/*--------------------------------*- C++ -*----------------------------------*\
  =========                 |
  \\      /  F ield         | OpenFOAM: The Open Source CFD Toolbox
   \\    /   O peration     | Website:  https://openfoam.org
    \\  /    A nd           | Version:  dev
     \\/     M anipulation  |

   OpenFOAM for Windows 20.09 (v1)
   Built by CFD Support, www.cfdsupport.com (based on Symscape).
\*---------------------------------------------------------------------------*/
FoamFile
{
    version     2.0;
    format      ascii;
    class       surfaceScalarField;
    location    "4";
    object      alphaPhi0.water;
}
// * * * * * * * * * * * * * * * * * * * * * * * * * * * * * * * * * * * * * //

dimensions      [0 3 -1 0 0 0 0];

internalField   nonuniform List<scalar> 
217
(
8.50441e-127
3.38867e-130
2.3404e-126
8.44773e-133
2.16425e-126
-3.38034e-132
1.712e-132
1.94066e-126
4.79945e-130
1.7022e-133
2.06687e-129
2.38515e-136
1.98925e-129
-2.37946e-135
1.60545e-135
1.29519e-129
3.01302e-133
1.05961e-136
1.79541e-132
-1.67496e-139
1.80254e-132
-1.79428e-138
2.11484e-138
1.05309e-132
2.12351e-136
7.12439e-140
1.65979e-135
-4.24326e-142
1.68348e-135
-1.27421e-141
1.65101e-141
8.2818e-136
1.55276e-139
5.02195e-143
1.45216e-138
-5.31749e-145
1.47017e-138
-8.86982e-145
1.18253e-144
7.2488e-139
1.12829e-142
3.27991e-146
1.16297e-141
-5.08593e-148
1.16605e-141
-5.52984e-148
8.44351e-148
5.7834e-142
7.55896e-146
1.88935e-149
8.47174e-145
-3.54847e-151
8.35727e-145
-3.03359e-151
4.92661e-151
4.20752e-145
4.39638e-149
8.86426e-153
5.54043e-148
-1.88323e-154
5.14912e-148
-1.31968e-154
2.22843e-154
2.56572e-148
2.09407e-152
1.28759e-155
3.00542e-151
-8.70415e-158
2.58045e-151
-4.38842e-158
2.68144e-155
1.2508e-151
5.2401e-155
2.51252e-158
1.50587e-154
-3.29167e-161
1.04495e-154
-1.00237e-161
5.13359e-158
9.91127e-155
1.99076e-157
8.47716e-161
1.29203e-157
-7.12639e-165
6.37729e-158
-1.67421e-165
1.89182e-161
5.70359e-158
7.15099e-161
2.08738e-164
3.44089e-161
-6.2691e-169
1.40854e-161
-1.26776e-169
2.70061e-165
1.35209e-161
1.16233e-164
2.10667e-168
4.35606e-165
-9.54863e-174
1.45606e-165
-2.43801e-174
9.93487e-170
1.47411e-165
7.2835e-169
6.2976e-173
1.84984e-169
5.16248e-174
4.59831e-170
-3.31777e-180
-3.3012e-179
5.3757e-170
6.70049e-174
9.75515e-175
1.53438e-175
4.62413e-175
2.81531e-126
4.98014e-130
2.26573e-126
-4.33877e-133
9.92154e-127
-4.57024e-132
5.17378e-134
1.79319e-129
1.55811e-135
1.50495e-129
-4.19942e-136
6.85725e-130
-2.75865e-135
1.34916e-136
1.04373e-132
7.26026e-139
9.21584e-133
-2.5185e-139
4.31082e-133
-1.63165e-138
1.15585e-139
7.31104e-136
2.6754e-141
5.36572e-136
-2.50568e-142
2.74457e-136
-1.04267e-141
9.44634e-143
6.09885e-139
3.23441e-145
3.70258e-139
-1.87884e-145
1.66298e-139
-7.00643e-145
7.22583e-146
4.88012e-142
1.71564e-148
2.66897e-142
-1.45672e-148
1.1191e-142
-4.26314e-148
5.49005e-149
3.5229e-145
7.83148e-152
1.73847e-145
-8.23351e-152
7.10279e-146
-2.13968e-151
3.41194e-152
2.12752e-148
2.83326e-155
9.69038e-149
-3.79879e-155
3.85836e-149
-8.3056e-155
1.70112e-155
1.02896e-151
1.47273e-156
4.30434e-152
-1.20665e-158
1.67614e-152
-2.51756e-158
1.07821e-155
5.93299e-155
2.6849e-159
2.92831e-155
-2.76229e-162
1.44157e-155
-5.77882e-162
6.12506e-159
2.78126e-158
4.82964e-163
1.18756e-158
-4.01732e-166
4.81396e-159
-7.73786e-166
1.98764e-162
5.67724e-162
-8.45171e-171
2.11987e-162
-2.51727e-170
7.53119e-163
-4.62272e-170
3.90351e-166
5.47561e-166
-1.67964e-174
1.77484e-166
-5.24696e-175
5.35238e-167
-9.43971e-175
4.2565e-170
2.15693e-170
-3.90852e-179
5.72224e-171
-1.37005e-180
1.3119e-171
-1.90872e-180
1.81837e-174
2.25451e-175
2.85199e-176
2.83391e-177
)
;

boundaryField
{
    topWall
    {
        type            calculated;
        value           uniform 0;
    }
    botWall
    {
        type            calculated;
        value           nonuniform List<scalar> 0();
    }
    inlet
    {
        type            cyclic;
        value           nonuniform List<scalar> 
15
(
-4.98139e-127
-3.32244e-130
-2.19828e-133
-1.38576e-136
-9.36401e-140
-6.53701e-143
-4.35879e-146
-2.51418e-149
-1.19753e-152
-1.12211e-155
-3.92548e-159
-8.41568e-163
-1.09183e-166
-7.46025e-171
-1.24722e-175
)
;
    }
    outlet
    {
        type            cyclic;
        value           nonuniform List<scalar> 
15
(
4.98139e-127
3.32244e-130
2.19828e-133
1.38576e-136
9.36401e-140
6.53701e-143
4.35879e-146
2.51418e-149
1.19753e-152
1.12211e-155
3.92548e-159
8.41568e-163
1.09183e-166
7.46025e-171
1.24722e-175
)
;
    }
    fixWall
    {
        type            empty;
        value           nonuniform List<scalar> 0();
    }
    procBoundary7to6
    {
        type            processor;
        value           nonuniform List<scalar> 8(-8.32124e-127 -2.65345e-129 4.62523e-129 -2.73812e-127 -1.65044e-126 5.48188e-130 6.83956e-129 1.17053e-130);
    }
}


// ************************************************************************* //
