/*--------------------------------*- C++ -*----------------------------------*\
  =========                 |
  \\      /  F ield         | OpenFOAM: The Open Source CFD Toolbox
   \\    /   O peration     | Website:  https://openfoam.org
    \\  /    A nd           | Version:  dev
     \\/     M anipulation  |

   OpenFOAM for Windows 20.09 (v1)
   Built by CFD Support, www.cfdsupport.com (based on Symscape).
\*---------------------------------------------------------------------------*/
FoamFile
{
    version     2.0;
    format      ascii;
    class       volSymmTensorField;
    location    "4";
    object      devReff;
}
// * * * * * * * * * * * * * * * * * * * * * * * * * * * * * * * * * * * * * //

dimensions      [0 2 -2 0 0 0 0];

internalField   nonuniform List<symmTensor> 
120
(
(-9.37879e-08 0.000701751 -0 1.42376e-07 -0 -4.85883e-08)
(-2.84527e-07 0.000705695 -0 2.41104e-07 -0 4.34238e-08)
(4.15927e-07 0.000705784 -0 -4.007e-07 -0 -1.52265e-08)
(-3.66469e-08 0.000701733 -0 5.20426e-08 -0 -1.53957e-08)
(-5.00896e-08 0.000873857 -0 1.13711e-07 -0 -6.36219e-08)
(-2.15148e-07 0.000877743 -0 2.01275e-07 -0 1.38723e-08)
(3.23508e-07 0.000877885 -0 -3.07737e-07 -0 -1.57714e-08)
(-8.25468e-08 0.000873543 -0 7.52886e-08 -0 7.25822e-09)
(-5.64816e-08 0.00107983 -0 7.67284e-08 -0 -2.02468e-08)
(-1.51708e-07 0.0010832 -0 1.1006e-07 -0 4.16481e-08)
(2.75747e-07 0.00108346 -0 -2.59077e-07 -0 -1.66706e-08)
(-3.95167e-08 0.0010792 -0 3.74576e-08 -0 2.05908e-09)
(-1.73288e-08 0.00132426 -0 3.29718e-08 -0 -1.5643e-08)
(-7.71975e-08 0.00132705 -0 4.68081e-08 -0 3.03895e-08)
(2.01271e-07 0.00132778 -0 -1.95313e-07 -0 -5.95818e-09)
(-7.48029e-08 0.0013234 -0 5.70625e-08 -0 1.77404e-08)
(-1.22217e-07 0.00161341 -0 1.6404e-07 -0 -4.18233e-08)
(-4.87923e-08 0.00161367 -0 2.19606e-08 -0 2.68317e-08)
(1.5849e-07 0.00161597 -0 -1.45065e-07 -0 -1.34246e-08)
(-5.15689e-08 0.00161179 -0 5.39145e-08 -0 -2.34557e-09)
(-2.22902e-07 0.00194947 -0 2.63624e-07 -0 -4.07213e-08)
(1.45396e-08 0.00194913 -0 -5.07678e-08 -0 3.62282e-08)
(1.34086e-07 0.00195296 -0 -1.22596e-07 -0 -1.14896e-08)
(-1.08973e-07 0.00194858 -0 1.06933e-07 -0 2.04026e-09)
(-3.05548e-07 0.00233847 -0 3.36181e-07 -0 -3.06338e-08)
(7.35413e-08 0.00233832 -0 -1.05933e-07 -0 3.23918e-08)
(1.41822e-07 0.00234165 -0 -1.29176e-07 -0 -1.26455e-08)
(-1.28573e-07 0.00233827 -0 1.27123e-07 -0 1.44976e-09)
(-3.64299e-07 0.00278537 -0 4.04853e-07 -0 -4.05532e-08)
(1.1451e-07 0.00278585 -0 -1.44327e-07 -0 2.98167e-08)
(1.30673e-07 0.00278733 -0 -1.16581e-07 -0 -1.40927e-08)
(-1.70073e-07 0.00278543 -0 1.65938e-07 -0 4.13413e-09)
(-3.74612e-07 0.00329474 -0 4.10527e-07 -0 -3.59147e-08)
(1.39836e-07 0.00329551 -0 -1.72588e-07 -0 3.27523e-08)
(1.27809e-07 0.0032957 -0 -1.14734e-07 -0 -1.3075e-08)
(-1.72415e-07 0.0032951 -0 1.70291e-07 -0 2.12355e-09)
(-3.67594e-07 0.00387098 -0 4.05844e-07 -0 -3.825e-08)
(1.47999e-07 0.00387208 -0 -1.78833e-07 -0 3.08346e-08)
(1.18788e-07 0.0038712 -0 -1.06088e-07 -0 -1.26997e-08)
(-1.71221e-07 0.00387146 -0 1.69181e-07 -0 2.0402e-09)
(-3.39222e-07 0.00451821 -0 3.77061e-07 -0 -3.78398e-08)
(1.47145e-07 0.00451939 -0 -1.79434e-07 -0 3.22894e-08)
(1.06726e-07 0.00451781 -0 -9.27992e-08 -0 -1.39269e-08)
(-1.48415e-07 0.00451874 -0 1.45379e-07 -0 3.03523e-09)
(-3.00294e-07 0.00523996 -0 3.37533e-07 -0 -3.72389e-08)
(1.34556e-07 0.00524125 -0 -1.65012e-07 -0 3.04557e-08)
(9.78139e-08 0.00523915 -0 -8.53463e-08 -0 -1.24676e-08)
(-1.16497e-07 0.0052405 -0 1.14161e-07 -0 2.33602e-09)
(-2.45515e-07 0.00603936 -0 2.82724e-07 -0 -3.72087e-08)
(1.20515e-07 0.00604071 -0 -1.52935e-07 -0 3.24198e-08)
(8.12397e-08 0.00603821 -0 -6.65443e-08 -0 -1.46954e-08)
(-7.76951e-08 0.00603954 -0 7.3794e-08 -0 3.90105e-09)
(-1.70097e-07 0.00691852 -0 2.0368e-07 -0 -3.35829e-08)
(9.30866e-08 0.00691992 -0 -1.20128e-07 -0 2.70419e-08)
(5.78993e-08 0.00691672 -0 -4.44016e-08 -0 -1.34977e-08)
(-5.28052e-08 0.00691781 -0 5.17364e-08 -0 1.06881e-09)
(-7.97135e-08 0.00786835 -0 1.09341e-07 -0 -2.96279e-08)
(5.30209e-08 0.00786981 -0 -7.80408e-08 -0 2.502e-08)
(1.79188e-08 0.00786552 -0 -1.02698e-08 -0 -7.64905e-09)
(-2.87964e-08 0.00786691 -0 2.72413e-08 -0 1.55505e-09)
(-5.43894e-07 0.000704725 -0 5.70342e-07 -0 -2.6448e-08)
(-2.06978e-08 0.000705002 -0 7.4292e-09 -0 1.32686e-08)
(1.14484e-07 0.000705126 -0 -9.74759e-08 -0 -1.70082e-08)
(4.34746e-07 0.000704973 -0 -4.86323e-07 -0 5.15769e-08)
(-4.79283e-07 0.000877294 -0 4.93866e-07 -0 -1.45826e-08)
(2.44939e-08 0.000877535 -0 -1.33922e-08 -0 -1.11018e-08)
(1.14277e-07 0.000877176 -0 -1.16665e-07 -0 2.38808e-09)
(3.12687e-07 0.000877425 -0 -3.42145e-07 -0 2.9458e-08)
(-3.83342e-07 0.0010834 -0 3.81159e-07 -0 2.18258e-09)
(-1.94868e-08 0.00108382 -0 1.11323e-09 -0 1.83735e-08)
(1.37232e-07 0.00108307 -0 -1.45123e-07 -0 7.89109e-09)
(2.80496e-07 0.00108361 -0 -2.882e-07 -0 7.70373e-09)
(-3.04315e-07 0.00132757 -0 2.97028e-07 -0 7.28665e-09)
(2.72162e-08 0.0013284 -0 -2.99675e-08 -0 2.75128e-09)
(1.16994e-07 0.0013275 -0 -1.27931e-07 -0 1.09364e-08)
(2.06425e-07 0.00132833 -0 -2.37185e-07 -0 3.076e-08)
(-2.3097e-07 0.00161543 -0 2.42225e-07 -0 -1.12551e-08)
(-2.35834e-08 0.00161624 -0 7.16048e-09 -0 1.64229e-08)
(1.24708e-07 0.00161587 -0 -1.21222e-07 -0 -3.48604e-09)
(1.75997e-07 0.00161904 -0 -1.87141e-07 -0 1.11439e-08)
(-1.74405e-07 0.00195056 -0 1.84973e-07 -0 -1.05683e-08)
(3.04294e-08 0.00195214 -0 -2.17725e-08 -0 -8.65693e-09)
(1.91377e-07 0.00195176 -0 -1.82312e-07 -0 -9.0647e-09)
(1.27175e-07 0.00195493 -0 -1.60734e-07 -0 3.35592e-08)
(-1.15223e-07 0.00233977 -0 1.28644e-07 -0 -1.34212e-08)
(1.13005e-08 0.00234062 -0 -2.23649e-08 -0 1.10644e-08)
(2.23422e-07 0.00233981 -0 -2.24597e-07 -0 1.17425e-09)
(1.10633e-07 0.00234253 -0 -1.3263e-07 -0 2.19965e-08)
(-9.31764e-08 0.00278601 -0 1.00385e-07 -0 -7.20853e-09)
(4.08731e-08 0.00278643 -0 -4.11112e-08 -0 2.38077e-10)
(2.61562e-07 0.00278673 -0 -2.58176e-07 -0 -3.3863e-09)
(7.50982e-08 0.00278774 -0 -1.01318e-07 -0 2.62199e-08)
(-8.03333e-08 0.00329574 -0 9.17373e-08 -0 -1.1404e-08)
(3.00968e-08 0.00329573 -0 -3.58536e-08 -0 5.75682e-09)
(2.65176e-07 0.00329577 -0 -2.63609e-07 -0 -1.56693e-09)
(6.53901e-08 0.00329565 -0 -8.76649e-08 -0 2.22748e-08)
(-7.30197e-08 0.00387191 -0 8.08955e-08 -0 -7.87578e-09)
(4.6057e-08 0.00387197 -0 -5.03027e-08 -0 4.24568e-09)
(2.60492e-07 0.00387235 -0 -2.57983e-07 -0 -2.50859e-09)
(4.00901e-08 0.00387094 -0 -6.58942e-08 -0 2.5804e-08)
(-6.34538e-08 0.00451945 -0 7.45426e-08 -0 -1.10888e-08)
(4.28144e-08 0.00451938 -0 -4.64894e-08 -0 3.675e-09)
(2.31035e-07 0.00451941 -0 -2.28977e-07 -0 -2.05824e-09)
(2.06578e-08 0.00451739 -0 -4.38606e-08 -0 2.32028e-08)
(-5.26595e-08 0.00524125 -0 6.10703e-08 -0 -8.41083e-09)
(4.54727e-08 0.00524098 -0 -5.02326e-08 -0 4.75982e-09)
(1.95565e-07 0.00524082 -0 -1.94107e-07 -0 -1.45763e-09)
(-1.13793e-09 0.00523845 -0 -2.37049e-08 -0 2.48429e-08)
(-4.69162e-08 0.00604017 -0 5.73888e-08 -0 -1.04726e-08)
(2.70472e-08 0.00603972 -0 -2.93793e-08 -0 2.33212e-09)
(1.4417e-07 0.00603913 -0 -1.39524e-07 -0 -4.6453e-09)
(-5.74417e-09 0.00603691 -0 -1.97256e-08 -0 2.54698e-08)
(-4.5627e-08 0.00691825 -0 5.29058e-08 -0 -7.27878e-09)
(1.39569e-08 0.00691812 -0 -2.15707e-08 -0 7.61384e-09)
(1.02334e-07 0.00691752 -0 -1.01202e-07 -0 -1.13178e-09)
(3.38734e-09 0.00691517 -0 -2.52885e-08 -0 2.19011e-08)
(-3.47314e-08 0.00786805 -0 4.32575e-08 -0 -8.5261e-09)
(1.2286e-09 0.00786884 -0 -2.09565e-09 -0 8.67052e-10)
(5.02521e-08 0.00786785 -0 -4.97812e-08 -0 -4.70918e-10)
(1.97998e-08 0.00786422 -0 -3.76106e-08 -0 1.78108e-08)
)
;

boundaryField
{
    topWall
    {
        type            calculated;
        value           nonuniform List<symmTensor> 8((-6.38126e-08 0.00835842 -0 7.75396e-08 -0 -1.3727e-08) (4.73388e-08 0.00835996 -0 -6.66767e-08 -0 1.93379e-08) (1.75359e-08 0.00835506 -0 -9.50384e-09 -0 -8.03202e-09) (-1.91513e-08 0.00835689 -0 7.95114e-09 -0 1.12001e-08) (-3.45822e-08 0.0083587 -0 4.29592e-08 -0 -8.37695e-09) (-7.4838e-09 0.00836004 -0 1.53292e-08 -0 -7.84535e-09) (3.59921e-08 0.00835866 -0 -2.12613e-08 -0 -1.47308e-08) (2.78642e-08 0.00835395 -0 -5.37394e-08 -0 2.58752e-08));
    }
    botWall
    {
        type            calculated;
        value           nonuniform List<symmTensor> 0();
    }
    inlet
    {
        type            cyclic;
    }
    outlet
    {
        type            cyclic;
    }
    fixWall
    {
        type            empty;
    }
    procBoundary7to6
    {
        type            processor;
        value           nonuniform List<symmTensor> 8((-7.19723e-08 0.0005594 -0 1.35127e-07 -0 -6.3155e-08) (-3.4408e-07 0.000563023 -0 3.24466e-07 -0 1.9614e-08) (4.58395e-07 0.000563168 -0 -4.46865e-07 -0 -1.15292e-08) (-3.94819e-08 0.000559406 -0 2.50964e-08 -0 1.43855e-08) (-6.07141e-07 0.000562027 -0 6.41931e-07 -0 -3.47897e-08) (-5.99342e-09 0.000561881 -0 3.42076e-08 -0 -2.82142e-08) (8.55507e-08 0.000562148 -0 -5.98566e-08 -0 -2.56941e-08) (4.23913e-07 0.000562439 -0 -4.52486e-07 -0 2.85727e-08));
    }
}


// ************************************************************************* //
