/*--------------------------------*- C++ -*----------------------------------*\
  =========                 |
  \\      /  F ield         | OpenFOAM: The Open Source CFD Toolbox
   \\    /   O peration     | Website:  https://openfoam.org
    \\  /    A nd           | Version:  dev
     \\/     M anipulation  |

   OpenFOAM for Windows 20.09 (v1)
   Built by CFD Support, www.cfdsupport.com (based on Symscape).
\*---------------------------------------------------------------------------*/
FoamFile
{
    version     2.0;
    format      ascii;
    class       volScalarField;
    location    "4";
    object      epsilon;
}
// * * * * * * * * * * * * * * * * * * * * * * * * * * * * * * * * * * * * * //

dimensions      [0 2 -3 0 0 0 0];

internalField   nonuniform List<scalar> 
120
(
2.10552e-15
2.1056e-15
2.10564e-15
2.10559e-15
2.44795e-15
2.44805e-15
2.4481e-15
2.44803e-15
2.88137e-15
2.88151e-15
2.88155e-15
2.88146e-15
3.44073e-15
3.4409e-15
3.44094e-15
3.44083e-15
4.17949e-15
4.17968e-15
4.17972e-15
4.17959e-15
5.18279e-15
5.18301e-15
5.18303e-15
5.1829e-15
6.59283e-15
6.59307e-15
6.59307e-15
6.59295e-15
8.66128e-15
8.66154e-15
8.66152e-15
8.6614e-15
1.18671e-14
1.18673e-14
1.18673e-14
1.18672e-14
1.72101e-14
1.72104e-14
1.72104e-14
1.72103e-14
2.70494e-14
2.70497e-14
2.70496e-14
2.70495e-14
4.79381e-14
4.79384e-14
4.79383e-14
4.79382e-14
1.01982e-13
1.01983e-13
1.01982e-13
1.01982e-13
2.99645e-13
2.99645e-13
2.99645e-13
2.99645e-13
1.73748e-12
1.73748e-12
1.73748e-12
1.73748e-12
2.10561e-15
2.10562e-15
2.10568e-15
2.1057e-15
2.44806e-15
2.44809e-15
2.44815e-15
2.44815e-15
2.8815e-15
2.88154e-15
2.88161e-15
2.8816e-15
3.44088e-15
3.44093e-15
3.441e-15
3.44097e-15
4.17965e-15
4.17971e-15
4.17979e-15
4.17975e-15
5.18296e-15
5.18303e-15
5.18311e-15
5.18306e-15
6.593e-15
6.59308e-15
6.59315e-15
6.59309e-15
8.66145e-15
8.66152e-15
8.6616e-15
8.66153e-15
1.18672e-14
1.18673e-14
1.18674e-14
1.18673e-14
1.72103e-14
1.72104e-14
1.72104e-14
1.72104e-14
2.70495e-14
2.70496e-14
2.70497e-14
2.70496e-14
4.79382e-14
4.79383e-14
4.79383e-14
4.79384e-14
1.01982e-13
1.01983e-13
1.01982e-13
1.01983e-13
2.99645e-13
2.99645e-13
2.99645e-13
2.99645e-13
1.73748e-12
1.73748e-12
1.73748e-12
1.73748e-12
)
;

boundaryField
{
    topWall
    {
        type            epsilonWallFunction;
        value           nonuniform List<scalar> 8(1.73748e-12 1.73748e-12 1.73748e-12 1.73748e-12 1.73748e-12 1.73748e-12 1.73748e-12 1.73748e-12);
    }
    botWall
    {
        type            epsilonWallFunction;
        value           nonuniform List<scalar> 0();
    }
    inlet
    {
        type            cyclic;
    }
    outlet
    {
        type            cyclic;
    }
    fixWall
    {
        type            empty;
    }
    procBoundary7to6
    {
        type            processor;
        value           nonuniform List<scalar> 8(1.83056e-15 1.8306e-15 1.83065e-15 1.83061e-15 1.83062e-15 1.83062e-15 1.83068e-15 1.83071e-15);
    }
}


// ************************************************************************* //
