/*--------------------------------*- C++ -*----------------------------------*\
  =========                 |
  \\      /  F ield         | OpenFOAM: The Open Source CFD Toolbox
   \\    /   O peration     | Website:  https://openfoam.org
    \\  /    A nd           | Version:  dev
     \\/     M anipulation  |

   OpenFOAM for Windows 20.09 (v1)
   Built by CFD Support, www.cfdsupport.com (based on Symscape).
\*---------------------------------------------------------------------------*/
FoamFile
{
    version     2.0;
    format      ascii;
    class       volVectorField;
    location    "4";
    object      gradp;
}
// * * * * * * * * * * * * * * * * * * * * * * * * * * * * * * * * * * * * * //

dimensions      [1 -2 -2 0 0 0 0];

internalField   nonuniform List<vector> 
120
(
(3.75218 -9.80857 0)
(-1.24783 -9.80891 0)
(-1.24524 -9.80972 0)
(-1.24862 -9.81128 0)
(3.75218 -9.80948 0)
(-1.24784 -9.80903 0)
(-1.24526 -9.80989 0)
(-1.24863 -9.81153 0)
(3.75219 -9.81004 0)
(-1.24784 -9.80917 0)
(-1.24528 -9.81003 0)
(-1.24864 -9.81158 0)
(3.75219 -9.81017 0)
(-1.24784 -9.80928 0)
(-1.2453 -9.81009 0)
(-1.24865 -9.81147 0)
(3.75219 -9.81018 0)
(-1.24784 -9.8094 0)
(-1.24532 -9.81009 0)
(-1.24865 -9.81131 0)
(3.75219 -9.8102 0)
(-1.24784 -9.80949 0)
(-1.24534 -9.81009 0)
(-1.24866 -9.81119 0)
(3.75219 -9.81018 0)
(-1.24783 -9.80955 0)
(-1.24535 -9.81007 0)
(-1.24866 -9.81106 0)
(3.75219 -9.81014 0)
(-1.24783 -9.80962 0)
(-1.24536 -9.81007 0)
(-1.24867 -9.81093 0)
(3.75219 -9.81011 0)
(-1.24783 -9.80969 0)
(-1.24537 -9.81007 0)
(-1.24867 -9.81079 0)
(3.75219 -9.81007 0)
(-1.24783 -9.80975 0)
(-1.24538 -9.81006 0)
(-1.24867 -9.81066 0)
(3.7522 -9.81005 0)
(-1.24783 -9.80981 0)
(-1.24539 -9.81006 0)
(-1.24868 -9.81053 0)
(3.7522 -9.81002 0)
(-1.24783 -9.80987 0)
(-1.24539 -9.81006 0)
(-1.24868 -9.8104 0)
(3.7522 -9.80999 0)
(-1.24783 -9.80992 0)
(-1.24539 -9.81006 0)
(-1.24868 -9.81028 0)
(3.75219 -9.80996 0)
(-1.24783 -9.80998 0)
(-1.2454 -9.81005 0)
(-1.24868 -9.81018 0)
(3.75219 -9.80997 0)
(-1.24784 -9.81 0)
(-1.2454 -9.81002 0)
(-1.24868 -9.81007 0)
(-1.25328 -9.81029 0)
(-1.25578 -9.80916 0)
(-1.25366 -9.80815 0)
(3.75224 -9.80984 0)
(-1.25326 -9.81081 0)
(-1.25576 -9.8095 0)
(-1.25366 -9.80862 0)
(3.75223 -9.80957 0)
(-1.25324 -9.811 0)
(-1.25574 -9.80969 0)
(-1.25366 -9.80882 0)
(3.75222 -9.80949 0)
(-1.25323 -9.81091 0)
(-1.25573 -9.80974 0)
(-1.25366 -9.80884 0)
(3.75221 -9.80952 0)
(-1.25321 -9.81077 0)
(-1.25571 -9.80973 0)
(-1.25366 -9.80886 0)
(3.7522 -9.80959 0)
(-1.2532 -9.81067 0)
(-1.25569 -9.80975 0)
(-1.25366 -9.80896 0)
(3.75219 -9.80965 0)
(-1.25319 -9.8106 0)
(-1.25568 -9.80979 0)
(-1.25365 -9.80908 0)
(3.75218 -9.80968 0)
(-1.25318 -9.81054 0)
(-1.25567 -9.80981 0)
(-1.25365 -9.80919 0)
(3.75217 -9.80971 0)
(-1.25317 -9.81047 0)
(-1.25566 -9.80984 0)
(-1.25365 -9.80931 0)
(3.75216 -9.80974 0)
(-1.25316 -9.81039 0)
(-1.25565 -9.80986 0)
(-1.25365 -9.80942 0)
(3.75216 -9.80978 0)
(-1.25316 -9.81032 0)
(-1.25564 -9.80988 0)
(-1.25365 -9.80954 0)
(3.75215 -9.80982 0)
(-1.25315 -9.81024 0)
(-1.25564 -9.8099 0)
(-1.25365 -9.80965 0)
(3.75215 -9.80986 0)
(-1.25315 -9.81017 0)
(-1.25563 -9.80993 0)
(-1.25365 -9.80976 0)
(3.75215 -9.8099 0)
(-1.25315 -9.8101 0)
(-1.25563 -9.80994 0)
(-1.25365 -9.80986 0)
(3.75214 -9.80994 0)
(-1.25315 -9.81003 0)
(-1.25563 -9.80997 0)
(-1.25365 -9.80995 0)
(3.75214 -9.80998 0)
)
;

boundaryField
{
    topWall
    {
        type            extrapolatedCalculated;
        value           nonuniform List<vector> 8((3.75219 -9.81 0) (-1.24784 -9.81 0) (-1.2454 -9.81 0) (-1.24868 -9.81 0) (-1.25315 -9.81 0) (-1.25563 -9.81 0) (-1.25365 -9.81 0) (3.75214 -9.81 0));
    }
    botWall
    {
        type            extrapolatedCalculated;
        value           nonuniform List<vector> 0();
    }
    inlet
    {
        type            cyclic;
    }
    outlet
    {
        type            cyclic;
    }
    fixWall
    {
        type            empty;
    }
    procBoundary7to6
    {
        type            processor;
        value           nonuniform List<vector> 8((3.75217 -9.80753 0) (-1.24782 -9.8088 0) (-1.24522 -9.80957 0) (-1.24862 -9.81093 0) (-1.25329 -9.8096 0) (-1.2558 -9.80869 0) (-1.25365 -9.8074 0) (3.75224 -9.81019 0));
    }
}


// ************************************************************************* //
