/*--------------------------------*- C++ -*----------------------------------*\
  =========                 |
  \\      /  F ield         | OpenFOAM: The Open Source CFD Toolbox
   \\    /   O peration     | Website:  https://openfoam.org
    \\  /    A nd           | Version:  dev
     \\/     M anipulation  |

   OpenFOAM for Windows 20.09 (v1)
   Built by CFD Support, www.cfdsupport.com (based on Symscape).
\*---------------------------------------------------------------------------*/
FoamFile
{
    version     2.0;
    format      ascii;
    class       volTensorField;
    location    "4";
    object      gradU;
}
// * * * * * * * * * * * * * * * * * * * * * * * * * * * * * * * * * * * * * //

dimensions      [0 0 -1 0 0 0 0];

internalField   nonuniform List<tensor> 
120
(
(0.000119779 2.37437e-05 0 -3.7193 -0.000506056 0 0 0 0)
(0.000869071 -0.000130163 0 -3.74005 -0.000523851 0 0 0 0)
(-0.00114256 5.89182e-05 0 -3.74072 0.00102151 0 0 0 0)
(5.63159e-05 9.8273e-05 0 -3.71928 -0.000178711 0 0 0 0)
(-3.58608e-05 6.52663e-06 0 -4.63145 -0.000469934 0 0 0 0)
(0.000606903 -0.00011891 0 -4.65192 -0.000496618 0 0 0 0)
(-0.00089909 6.10823e-05 0 -4.65285 0.000773708 0 0 0 0)
(0.000237983 7.92931e-05 0 -4.62986 -0.000180281 0 0 0 0)
(9.60223e-05 -9.45791e-07 0 -5.72312 -0.000256984 0 0 0 0)
(0.000512395 -0.000109436 0 -5.74084 -0.000181293 0 0 0 0)
(-0.000774908 6.41905e-05 0 -5.74243 0.000642376 0 0 0 0)
(0.000110176 6.29214e-05 0 -5.71984 -9.3806e-05 0 0 0 0)
(4.46733e-06 -9.56399e-06 0 -7.01858 -0.000128829 0 0 0 0)
(0.000285106 -0.00010392 0 -7.03325 -4.35093e-05 0 0 0 0)
(-0.000549157 6.25404e-05 0 -7.0373 0.000501789 0 0 0 0)
(0.00024524 5.18487e-05 0 -7.01409 -0.000104203 0 0 0 0)
(0.000213043 -1.35052e-05 0 -8.55104 -0.000545538 0 0 0 0)
(0.000200403 -9.89258e-05 0 -8.55233 1.29084e-05 0 0 0 0)
(-0.000455572 6.31789e-05 0 -8.5647 0.000348847 0 0 0 0)
(0.000130442 4.17613e-05 0 -8.54253 -0.000149089 0 0 0 0)
(0.000482779 -1.81065e-05 0 -10.3322 -0.000806514 0 0 0 0)
(5.74748e-05 -8.90138e-05 0 -10.3303 0.00023054 0 0 0 0)
(-0.000385775 5.98404e-05 0 -10.3508 0.000294433 0 0 0 0)
(0.000294186 3.48392e-05 0 -10.3275 -0.000277966 0 0 0 0)
(0.000728522 -1.82442e-05 0 -12.3939 -0.00097206 0 0 0 0)
(-0.000109046 -8.05767e-05 0 -12.393 0.000366561 0 0 0 0)
(-0.000409338 5.47038e-05 0 -12.4108 0.000308806 0 0 0 0)
(0.00034456 2.82177e-05 0 -12.3929 -0.000333034 0 0 0 0)
(0.000857928 -1.88264e-05 0 -14.7624 -0.00118033 0 0 0 0)
(-0.000224437 -6.7666e-05 0 -14.765 0.00046148 0 0 0 0)
(-0.00038363 4.81805e-05 0 -14.7729 0.000271593 0 0 0 0)
(0.000461648 2.34179e-05 0 -14.7628 -0.000428781 0 0 0 0)
(0.000897548 -1.61858e-05 0 -17.4621 -0.00118307 0 0 0 0)
(-0.00028377 -5.63781e-05 0 -17.4661 0.000544151 0 0 0 0)
(-0.000373342 3.98662e-05 0 -17.4673 0.000269396 0 0 0 0)
(0.000462527 1.89391e-05 0 -17.464 -0.000445645 0 0 0 0)
(0.000872761 -1.46129e-05 0 -20.5162 -0.00117685 0 0 0 0)
(-0.000310485 -4.34582e-05 0 -20.522 0.00055562 0 0 0 0)
(-0.000348442 3.16839e-05 0 -20.5174 0.000247479 0 0 0 0)
(0.000459143 1.43726e-05 0 -20.5188 -0.000442923 0 0 0 0)
(0.000798661 -1.09754e-05 0 -23.9465 -0.00109949 0 0 0 0)
(-0.000304367 -3.26393e-05 0 -23.9527 0.000561068 0 0 0 0)
(-0.00031973 2.32238e-05 0 -23.9444 0.000209012 0 0 0 0)
(0.000401342 1.08937e-05 0 -23.9494 -0.000377212 0 0 0 0)
(0.000697097 -8.22376e-06 0 -27.7718 -0.000993146 0 0 0 0)
(-0.000275866 -2.16499e-05 0 -27.7786 0.000517989 0 0 0 0)
(-0.000292246 1.60459e-05 0 -27.7675 0.000193129 0 0 0 0)
(0.000314906 7.10697e-06 0 -27.7747 -0.000296335 0 0 0 0)
(0.000552012 -4.48648e-06 0 -32.0086 -0.000847821 0 0 0 0)
(-0.000233452 -1.2868e-05 0 -32.0158 0.000491189 0 0 0 0)
(-0.000254228 9.65171e-06 0 -32.0025 0.000137399 0 0 0 0)
(0.00021623 4.60616e-06 0 -32.0096 -0.000185216 0 0 0 0)
(0.000361762 -2.03341e-06 0 -36.6682 -0.000628746 0 0 0 0)
(-0.000175019 -5.22958e-06 0 -36.6756 0.000390001 0 0 0 0)
(-0.000189202 4.77246e-06 0 -36.6586 8.18951e-05 0 0 0 0)
(0.000142766 1.81977e-06 0 -36.6644 -0.000134269 0 0 0 0)
(0.000132727 -7.06665e-08 0 -41.7022 -0.000368269 0 0 0 0)
(-7.42024e-05 -1.02399e-06 0 -41.71 0.000273111 0 0 0 0)
(-6.77549e-05 9.1387e-07 0 -41.6873 6.94489e-06 0 0 0 0)
(8.04312e-05 5.83088e-07 0 -41.6946 -6.80686e-05 0 0 0 0)
(0.00137123 -4.08664e-05 0 -3.735 -0.00158149 0 0 0 0)
(9.00107e-05 -0.000113437 0 -3.7364 1.54743e-05 0 0 0 0)
(-0.000348454 -4.17955e-05 0 -3.73713 0.00021324 0 0 0 0)
(-0.0010154 0.000145327 0 -3.7365 0.00142543 0 0 0 0)
(0.00123146 -3.6059e-05 0 -4.64962 -0.00134739 0 0 0 0)
(-9.43285e-05 -9.88514e-05 0 -4.65083 6.06955e-06 0 0 0 0)
(-0.000296506 -3.15499e-05 0 -4.649 0.000315491 0 0 0 0)
(-0.000750558 0.000138468 0 -4.65049 0.000984749 0 0 0 0)
(0.00102164 -3.77605e-05 0 -5.74199 -0.00100429 0 0 0 0)
(0.00010033 -8.57221e-05 0 -5.74419 4.57398e-05 0 0 0 0)
(-0.000342754 -2.54842e-05 0 -5.74022 0.000405489 0 0 0 0)
(-0.0007229 0.000132237 0 -5.74326 0.000784145 0 0 0 0)
(0.000825743 -3.37332e-05 0 -7.03608 -0.000767814 0 0 0 0)
(-6.4832e-05 -7.53551e-05 0 -7.04045 8.67047e-05 0 0 0 0)
(-0.000281054 -1.92431e-05 0 -7.03574 0.000367998 0 0 0 0)
(-0.000465513 0.000127427 0 -7.04027 0.000710055 0 0 0 0)
(0.000582244 -3.45787e-05 0 -8.56176 -0.000671723 0 0 0 0)
(0.000106017 -6.67919e-05 0 -8.56603 2.45454e-05 0 0 0 0)
(-0.000339714 -1.5095e-05 0 -8.56409 0.000312 0 0 0 0)
(-0.000436862 0.000123956 0 -8.58103 0.000525456 0 0 0 0)
(0.000434167 -3.08393e-05 0 -10.3379 -0.000518185 0 0 0 0)
(-0.000103579 -5.89597e-05 0 -10.3463 3.47563e-05 0 0 0 0)
(-0.00053117 -1.08946e-05 0 -10.3443 0.000459106 0 0 0 0)
(-0.000248082 0.000113134 0 -10.3612 0.000514878 0 0 0 0)
(0.000269774 -2.93667e-05 0 -12.4008 -0.000376472 0 0 0 0)
(-6.25538e-07 -5.05037e-05 0 -12.4052 8.85876e-05 0 0 0 0)
(-0.000588957 -7.093e-06 0 -12.401 0.000598293 0 0 0 0)
(-0.000234888 0.000102863 0 -12.4155 0.00040976 0 0 0 0)
(0.000227815 -2.38123e-05 0 -14.7658 -0.000285123 0 0 0 0)
(-0.000107683 -4.27136e-05 0 -14.768 0.000109576 0 0 0 0)
(-0.000702113 -5.54176e-06 0 -14.7697 0.000675192 0 0 0 0)
(-0.000129527 8.69618e-05 0 -14.7751 0.000337976 0 0 0 0)
(0.000182663 -2.03941e-05 0 -17.4674 -0.000273325 0 0 0 0)
(-6.45009e-05 -3.44985e-05 0 -17.4673 0.000110268 0 0 0 0)
(-0.000706868 -3.28633e-06 0 -17.4676 0.000694411 0 0 0 0)
(-0.000114256 7.19374e-05 0 -17.467 0.00029134 0 0 0 0)
(0.000172632 -1.45471e-05 0 -20.5211 -0.000235244 0 0 0 0)
(-0.0001108 -2.65847e-05 0 -20.5214 0.000144553 0 0 0 0)
(-0.000696951 -2.52388e-06 0 -20.5234 0.000677008 0 0 0 0)
(-3.78582e-05 5.56704e-05 0 -20.5161 0.000243 0 0 0 0)
(0.000138767 -1.06028e-05 0 -23.9531 -0.000226923 0 0 0 0)
(-0.000103719 -1.92943e-05 0 -23.9527 0.000132936 0 0 0 0)
(-0.000617698 -1.64555e-06 0 -23.9529 0.000601335 0 0 0 0)
(6.74437e-06 4.10398e-05 0 -23.9422 0.000177718 0 0 0 0)
(0.000117259 -6.04462e-06 0 -27.7786 -0.000184125 0 0 0 0)
(-0.000107889 -1.27804e-05 0 -27.7772 0.00014573 0 0 0 0)
(-0.000522109 -1.77751e-06 0 -27.7763 0.000510521 0 0 0 0)
(6.88491e-05 2.73233e-05 0 -27.7638 0.000128652 0 0 0 0)
(9.65753e-05 -3.23504e-06 0 -32.0129 -0.000179833 0 0 0 0)
(-6.54949e-05 -7.71685e-06 0 -32.0105 8.40353e-05 0 0 0 0)
(-0.000394359 -1.93018e-06 0 -32.0074 0.000357429 0 0 0 0)
(8.27171e-05 1.59787e-05 0 -31.9956 0.000119768 0 0 0 0)
(0.000101623 -1.55709e-06 0 -36.6667 -0.000159489 0 0 0 0)
(-1.68091e-05 -3.82603e-06 0 -36.666 7.73391e-05 0 0 0 0)
(-0.000274183 -1.18196e-06 0 -36.6629 0.000265185 0 0 0 0)
(4.90615e-05 7.23584e-06 0 -36.6504 0.000125052 0 0 0 0)
(6.9444e-05 2.91759e-07 0 -41.7007 -0.000137226 0 0 0 0)
(-9.58105e-07 -6.38943e-07 0 -41.7049 7.85116e-06 0 0 0 0)
(-0.000134416 -1.13496e-06 0 -41.6996 0.000130672 0 0 0 0)
(-5.27075e-06 1.07984e-06 0 -41.6803 0.000146867 0 0 0 0)
)
;

boundaryField
{
    topWall
    {
        type            extrapolatedCalculated;
        value           nonuniform List<tensor> 8((0.000132727 -7.06665e-08 0 -44.2996 -0.000241856 0 0 0 0) (-7.42024e-05 -1.02399e-06 0 -44.3078 0.000227939 0 0 0 0) (-6.77549e-05 9.1387e-07 0 -44.2818 3.90032e-06 0 0 0 0) (8.04312e-05 5.83088e-07 0 -44.2915 8.60983e-06 0 0 0 0) (6.9444e-05 2.91759e-07 0 -44.3011 -0.000136041 0 0 0 0) (-9.58105e-07 -6.38943e-07 0 -44.3082 -6.14124e-05 0 0 0 0) (-0.000134416 -1.13496e-06 0 -44.3009 1.73057e-05 0 0 0 0) (-5.27075e-06 1.07984e-06 0 -44.2759 0.000210979 0 0 0 0));
    }
    botWall
    {
        type            extrapolatedCalculated;
        value           nonuniform List<tensor> 0();
    }
    inlet
    {
        type            cyclic;
    }
    outlet
    {
        type            cyclic;
    }
    fixWall
    {
        type            empty;
    }
    procBoundary7to6
    {
        type            processor;
        value           nonuniform List<tensor> 8((2.33658e-05 3.90147e-05 0 -2.96486 -0.000525448 0 0 0 0) (0.000963788 -0.000144369 0 -2.98388 -0.000807856 0 0 0 0) (-0.0012453 5.53299e-05 0 -2.98485 0.00115364 0 0 0 0) (0.000142749 0.000122676 0 -2.96497 -2.83839e-05 0 0 0 0) (0.00151673 -3.92954e-05 0 -2.97871 -0.00179331 0 0 0 0) (-5.88851e-05 -0.000128764 0 -2.97784 -0.000165418 0 0 0 0) (-0.000294799 -5.50492e-05 0 -2.97933 9.05308e-05 0 0 0 0) (-0.00104765 0.000150456 0 -2.98107 0.0012748 0 0 0 0));
    }
}


// ************************************************************************* //
