/*--------------------------------*- C++ -*----------------------------------*\
  =========                 |
  \\      /  F ield         | OpenFOAM: The Open Source CFD Toolbox
   \\    /   O peration     | Website:  https://openfoam.org
    \\  /    A nd           | Version:  dev
     \\/     M anipulation  |

   OpenFOAM for Windows 20.09 (v1)
   Built by CFD Support, www.cfdsupport.com (based on Symscape).
\*---------------------------------------------------------------------------*/
FoamFile
{
    version     2.0;
    format      ascii;
    class       volVectorField;
    location    "4";
    object      gradp_rgh;
}
// * * * * * * * * * * * * * * * * * * * * * * * * * * * * * * * * * * * * * //

dimensions      [1 -2 -2 0 0 0 0];

internalField   nonuniform List<vector> 
120
(
(-1.24782 0.00143451 0)
(-1.24783 0.00108816 0)
(-1.24524 0.000275133 0)
(-1.24862 -0.00127894 0)
(-1.24782 0.000519665 0)
(-1.24784 0.000968014 0)
(-1.24526 0.000111904 0)
(-1.24863 -0.00153181 0)
(-1.24781 -3.52106e-05 0)
(-1.24784 0.000826078 0)
(-1.24528 -2.59551e-05 0)
(-1.24864 -0.0015829 0)
(-1.24781 -0.000172042 0)
(-1.24784 0.000724913 0)
(-1.2453 -8.77288e-05 0)
(-1.24865 -0.00147059 0)
(-1.24781 -0.000183612 0)
(-1.24784 0.000604084 0)
(-1.24532 -9.24873e-05 0)
(-1.24865 -0.00131156 0)
(-1.24781 -0.000203811 0)
(-1.24784 0.000510709 0)
(-1.24534 -8.52926e-05 0)
(-1.24866 -0.00118731 0)
(-1.24781 -0.000179818 0)
(-1.24783 0.000448254 0)
(-1.24535 -7.29259e-05 0)
(-1.24866 -0.00106193 0)
(-1.24781 -0.000138094 0)
(-1.24783 0.00037916 0)
(-1.24536 -6.87829e-05 0)
(-1.24867 -0.000926984 0)
(-1.24781 -0.000106709 0)
(-1.24783 0.000311576 0)
(-1.24537 -6.83434e-05 0)
(-1.24867 -0.000788515 0)
(-1.24781 -7.47808e-05 0)
(-1.24783 0.000250118 0)
(-1.24538 -6.47449e-05 0)
(-1.24867 -0.00065718 0)
(-1.2478 -4.83639e-05 0)
(-1.24783 0.000191113 0)
(-1.24539 -6.21479e-05 0)
(-1.24868 -0.000527932 0)
(-1.2478 -1.95573e-05 0)
(-1.24783 0.000133438 0)
(-1.24539 -5.91779e-05 0)
(-1.24868 -0.000401973 0)
(-1.2478 1.18267e-05 0)
(-1.24783 7.8132e-05 0)
(-1.24539 -5.67639e-05 0)
(-1.24868 -0.000282301 0)
(-1.24781 4.10401e-05 0)
(-1.24783 2.48821e-05 0)
(-1.2454 -5.06617e-05 0)
(-1.24868 -0.000177774 0)
(-1.24781 2.72375e-05 0)
(-1.24784 -1.54465e-06 0)
(-1.2454 -2.2066e-05 0)
(-1.24868 -6.59046e-05 0)
(-1.25328 -0.000286945 0)
(-1.25578 0.000844054 0)
(-1.25366 0.00185109 0)
(-1.24776 0.000158448 0)
(-1.25326 -0.000806755 0)
(-1.25576 0.000501514 0)
(-1.25366 0.00137837 0)
(-1.24777 0.000432718 0)
(-1.25324 -0.000998394 0)
(-1.25574 0.00030514 0)
(-1.25366 0.00118378 0)
(-1.24778 0.000512681 0)
(-1.25323 -0.000913315 0)
(-1.25573 0.000258956 0)
(-1.25366 0.001162 0)
(-1.24779 0.000479058 0)
(-1.25321 -0.000765344 0)
(-1.25571 0.000268542 0)
(-1.25366 0.00114323 0)
(-1.2478 0.00040652 0)
(-1.2532 -0.000668362 0)
(-1.25569 0.000253046 0)
(-1.25366 0.00104239 0)
(-1.24781 0.000345371 0)
(-1.25319 -0.000604743 0)
(-1.25568 0.000213359 0)
(-1.25365 0.000921573 0)
(-1.24782 0.000324463 0)
(-1.25318 -0.000541309 0)
(-1.25567 0.000190949 0)
(-1.25365 0.000809065 0)
(-1.24783 0.000293909 0)
(-1.25317 -0.000469248 0)
(-1.25566 0.000162346 0)
(-1.25365 0.000691395 0)
(-1.24784 0.000257556 0)
(-1.25316 -0.000394477 0)
(-1.25565 0.000143389 0)
(-1.25365 0.000575125 0)
(-1.24784 0.000217269 0)
(-1.25316 -0.00031798 0)
(-1.25564 0.000121094 0)
(-1.25365 0.000460057 0)
(-1.24785 0.00017815 0)
(-1.25315 -0.00024285 0)
(-1.25564 9.80321e-05 0)
(-1.25365 0.000349321 0)
(-1.24785 0.000138489 0)
(-1.25315 -0.000168033 0)
(-1.25563 7.33555e-05 0)
(-1.25365 0.000238079 0)
(-1.24785 0.000103693 0)
(-1.25315 -9.677e-05 0)
(-1.25563 5.6234e-05 0)
(-1.25365 0.000139915 0)
(-1.24786 6.25801e-05 0)
(-1.25315 -3.02619e-05 0)
(-1.25563 2.6471e-05 0)
(-1.25365 4.93385e-05 0)
(-1.24786 1.92397e-05 0)
)
;

boundaryField
{
    topWall
    {
        type            extrapolatedCalculated;
        value           nonuniform List<vector> 8((-1.24781 0 0) (-1.24784 0 0) (-1.2454 0 0) (-1.24868 0 0) (-1.25315 0 0) (-1.25563 0 0) (-1.25365 0 0) (-1.24786 0 0));
    }
    botWall
    {
        type            extrapolatedCalculated;
        value           nonuniform List<vector> 0();
    }
    inlet
    {
        type            cyclic;
    }
    outlet
    {
        type            cyclic;
    }
    fixWall
    {
        type            empty;
    }
    procBoundary7to6
    {
        type            processor;
        value           nonuniform List<vector> 8((-1.24783 0.00247324 0) (-1.24782 0.00120346 0) (-1.24522 0.00043496 0) (-1.24862 -0.000928604 0) (-1.25329 0.000401348 0) (-1.2558 0.00131055 0) (-1.25365 0.00260315 0) (-1.24776 -0.000185008 0));
    }
}


// ************************************************************************* //
