/*--------------------------------*- C++ -*----------------------------------*\
  =========                 |
  \\      /  F ield         | OpenFOAM: The Open Source CFD Toolbox
   \\    /   O peration     | Website:  https://openfoam.org
    \\  /    A nd           | Version:  dev
     \\/     M anipulation  |

   OpenFOAM for Windows 20.09 (v1)
   Built by CFD Support, www.cfdsupport.com (based on Symscape).
\*---------------------------------------------------------------------------*/
FoamFile
{
    version     2.0;
    format      ascii;
    class       volScalarField;
    location    "4";
    object      nut;
}
// * * * * * * * * * * * * * * * * * * * * * * * * * * * * * * * * * * * * * //

dimensions      [0 2 -1 0 0 0 0];

internalField   nonuniform List<scalar> 
120
(
2.10748e-18
2.1074e-18
2.10736e-18
2.10741e-18
1.81268e-18
1.8126e-18
1.81257e-18
1.81262e-18
1.54001e-18
1.53994e-18
1.53991e-18
1.53996e-18
1.28965e-18
1.28959e-18
1.28957e-18
1.28962e-18
1.06169e-18
1.06165e-18
1.06164e-18
1.06167e-18
8.56168e-19
8.56133e-19
8.56128e-19
8.5615e-19
6.73056e-19
6.73032e-19
6.73031e-19
6.73044e-19
5.1232e-19
5.12304e-19
5.12305e-19
5.12312e-19
3.73921e-19
3.73912e-19
3.73913e-19
3.73917e-19
2.57833e-19
2.57829e-19
2.5783e-19
2.57831e-19
1.64046e-19
1.64044e-19
1.64045e-19
1.64045e-19
9.25641e-20
9.25633e-20
9.25636e-20
9.25638e-20
4.35109e-20
4.35107e-20
4.35108e-20
4.35109e-20
1.48087e-20
1.48087e-20
1.48087e-20
1.48087e-20
2.5539e-21
2.5539e-21
2.5539e-21
2.5539e-21
2.10739e-18
2.10738e-18
2.10732e-18
2.1073e-18
1.8126e-18
1.81258e-18
1.81253e-18
1.81253e-18
1.53994e-18
1.53992e-18
1.53988e-18
1.53989e-18
1.2896e-18
1.28958e-18
1.28955e-18
1.28956e-18
1.06165e-18
1.06164e-18
1.06162e-18
1.06163e-18
8.5614e-19
8.56129e-19
8.56116e-19
8.56124e-19
6.73038e-19
6.73031e-19
6.73023e-19
6.73029e-19
5.1231e-19
5.12305e-19
5.123e-19
5.12305e-19
3.73915e-19
3.73913e-19
3.73911e-19
3.73913e-19
2.57831e-19
2.5783e-19
2.57828e-19
2.5783e-19
1.64045e-19
1.64044e-19
1.64044e-19
1.64044e-19
9.25638e-20
9.25636e-20
9.25636e-20
9.25635e-20
4.35109e-20
4.35108e-20
4.35108e-20
4.35108e-20
1.48087e-20
1.48087e-20
1.48087e-20
1.48087e-20
2.5539e-21
2.5539e-21
2.5539e-21
2.5539e-21
)
;

boundaryField
{
    topWall
    {
        type            nutkWallFunction;
        Cmu             0.09;
        kappa           0.41;
        E               9.8;
        value           uniform 0;
    }
    botWall
    {
        type            nutkWallFunction;
        Cmu             0.09;
        kappa           0.41;
        E               9.8;
        value           nonuniform List<scalar> 0();
    }
    inlet
    {
        type            cyclic;
    }
    outlet
    {
        type            cyclic;
    }
    fixWall
    {
        type            empty;
    }
    procBoundary7to6
    {
        type            processor;
        value           nonuniform List<scalar> 8(2.42403e-18 2.42398e-18 2.42392e-18 2.42396e-18 2.42395e-18 2.42395e-18 2.42388e-18 2.42384e-18);
    }
}


// ************************************************************************* //
