/*--------------------------------*- C++ -*----------------------------------*\
  =========                 |
  \\      /  F ield         | OpenFOAM: The Open Source CFD Toolbox
   \\    /   O peration     | Website:  https://openfoam.org
    \\  /    A nd           | Version:  dev
     \\/     M anipulation  |

   OpenFOAM for Windows 20.09 (v1)
   Built by CFD Support, www.cfdsupport.com (based on Symscape).
\*---------------------------------------------------------------------------*/
FoamFile
{
    version     2.0;
    format      ascii;
    class       volScalarField;
    location    "4";
    object      omega;
}
// * * * * * * * * * * * * * * * * * * * * * * * * * * * * * * * * * * * * * //

dimensions      [0 0 -1 0 0 0 0];

internalField   nonuniform List<scalar> 
120
(
105.36
105.364
105.366
105.364
122.495
122.501
122.503
122.499
144.184
144.191
144.193
144.188
172.174
172.182
172.184
172.179
209.142
209.151
209.153
209.147
259.347
259.358
259.359
259.353
329.905
329.917
329.917
329.911
433.41
433.423
433.422
433.416
593.828
593.842
593.84
593.835
861.195
861.21
861.207
861.202
1353.55
1353.57
1353.56
1353.56
2398.82
2398.84
2398.83
2398.83
5103.19
5103.22
5103.2
5103.2
14994.2
14994.2
14994.2
14994.2
86943.4
86943.4
86943.4
86943.4
105.365
105.365
105.368
105.369
122.501
122.502
122.505
122.506
144.19
144.192
144.196
144.195
172.182
172.184
172.188
172.186
209.15
209.153
209.157
209.155
259.356
259.359
259.363
259.36
329.914
329.917
329.921
329.918
433.419
433.423
433.427
433.423
593.837
593.84
593.844
593.84
861.203
861.207
861.211
861.207
1353.56
1353.56
1353.57
1353.56
2398.83
2398.83
2398.83
2398.84
5103.2
5103.2
5103.2
5103.21
14994.2
14994.2
14994.2
14994.2
86943.4
86943.4
86943.4
86943.4
)
;

boundaryField
{
    topWall
    {
        beta1           0.075;
        blended         0;
        type            omegaWallFunction;
        value           nonuniform List<scalar> 8(86943.4 86943.4 86943.4 86943.4 86943.4 86943.4 86943.4 86943.4);
    }
    botWall
    {
        beta1           0.075;
        blended         0;
        type            omegaWallFunction;
        value           nonuniform List<scalar> 0();
    }
    inlet
    {
        type            cyclic;
    }
    outlet
    {
        type            cyclic;
    }
    fixWall
    {
        type            empty;
    }
    procBoundary7to6
    {
        type            processor;
        value           nonuniform List<scalar> 8(91.6013 91.6032 91.6056 91.604 91.6044 91.6044 91.6072 91.6085);
    }
}


// ************************************************************************* //
