/*--------------------------------*- C++ -*----------------------------------*\
  =========                 |
  \\      /  F ield         | OpenFOAM: The Open Source CFD Toolbox
   \\    /   O peration     | Website:  https://openfoam.org
    \\  /    A nd           | Version:  dev
     \\/     M anipulation  |

   OpenFOAM for Windows 20.09 (v1)
   Built by CFD Support, www.cfdsupport.com (based on Symscape).
\*---------------------------------------------------------------------------*/
FoamFile
{
    version     2.0;
    format      ascii;
    class       volScalarField;
    location    "4";
    object      p;
}
// * * * * * * * * * * * * * * * * * * * * * * * * * * * * * * * * * * * * * //

dimensions      [1 -1 -2 0 0 0 0];

internalField   nonuniform List<scalar> 
120
(
-5.22731
-5.28991
-5.3521
-5.41444
-5.23549
-5.29809
-5.36027
-5.42261
-5.24366
-5.30626
-5.36845
-5.43079
-5.25184
-5.31444
-5.37662
-5.43897
-5.26001
-5.32261
-5.3848
-5.44714
-5.26819
-5.33079
-5.39297
-5.45532
-5.27636
-5.33896
-5.40115
-5.4635
-5.28454
-5.34714
-5.40932
-5.47167
-5.29271
-5.35531
-5.4175
-5.47985
-5.30089
-5.36348
-5.42567
-5.48802
-5.30906
-5.37166
-5.43385
-5.4962
-5.31724
-5.37983
-5.44202
-5.50437
-5.32541
-5.38801
-5.4502
-5.51255
-5.33359
-5.39618
-5.45837
-5.52072
-5.34176
-5.40436
-5.46655
-5.5289
-5.47696
-5.53977
-5.60254
-5.66513
-5.48514
-5.54794
-5.61071
-5.67331
-5.49331
-5.55612
-5.61889
-5.68148
-5.50149
-5.56429
-5.62706
-5.68966
-5.50966
-5.57246
-5.63523
-5.69783
-5.51784
-5.58064
-5.64341
-5.70601
-5.52601
-5.58881
-5.65158
-5.71418
-5.53419
-5.59699
-5.65976
-5.72235
-5.54236
-5.60516
-5.66793
-5.73053
-5.55054
-5.61334
-5.6761
-5.7387
-5.55872
-5.62151
-5.68428
-5.74688
-5.56689
-5.62969
-5.69245
-5.75505
-5.57507
-5.63786
-5.70063
-5.76323
-5.58324
-5.64604
-5.7088
-5.7714
-5.59142
-5.65421
-5.71698
-5.77958
)
;

boundaryField
{
    topWall
    {
        type            calculated;
        value           nonuniform List<scalar> 8(-5.34585 -5.40845 -5.47064 -5.53299 -5.5955 -5.6583 -5.72107 -5.78367);
    }
    botWall
    {
        type            calculated;
        value           nonuniform List<scalar> 0();
    }
    inlet
    {
        type            cyclic;
    }
    outlet
    {
        type            cyclic;
    }
    fixWall
    {
        type            empty;
    }
    procBoundary7to6
    {
        type            processor;
        value           nonuniform List<scalar> 8(-5.21914 -5.28174 -5.34392 -5.40626 -5.46878 -5.53159 -5.59436 -5.65696);
    }
}


// ************************************************************************* //
