/*--------------------------------*- C++ -*----------------------------------*\
  =========                 |
  \\      /  F ield         | OpenFOAM: The Open Source CFD Toolbox
   \\    /   O peration     | Website:  https://openfoam.org
    \\  /    A nd           | Version:  dev
     \\/     M anipulation  |

   OpenFOAM for Windows 20.09 (v1)
   Built by CFD Support, www.cfdsupport.com (based on Symscape).
\*---------------------------------------------------------------------------*/
FoamFile
{
    version     2.0;
    format      ascii;
    class       volScalarField;
    location    "4";
    object      p_rgh;
}
// * * * * * * * * * * * * * * * * * * * * * * * * * * * * * * * * * * * * * //

dimensions      [1 -1 -2 0 0 0 0];

internalField   nonuniform List<scalar> 
120
(
-4.36485
-4.42745
-4.48963
-4.55198
-4.36485
-4.42745
-4.48963
-4.55198
-4.36485
-4.42745
-4.48963
-4.55198
-4.36485
-4.42745
-4.48963
-4.55198
-4.36485
-4.42745
-4.48963
-4.55198
-4.36485
-4.42745
-4.48963
-4.55198
-4.36485
-4.42745
-4.48963
-4.55198
-4.36485
-4.42745
-4.48963
-4.55198
-4.36485
-4.42745
-4.48963
-4.55198
-4.36485
-4.42745
-4.48963
-4.55198
-4.36485
-4.42745
-4.48964
-4.55199
-4.36485
-4.42745
-4.48964
-4.55199
-4.36485
-4.42745
-4.48964
-4.55199
-4.36485
-4.42745
-4.48964
-4.55199
-4.36485
-4.42745
-4.48964
-4.55199
-4.6145
-4.6773
-4.74008
-4.80267
-4.6145
-4.6773
-4.74007
-4.80267
-4.6145
-4.6773
-4.74007
-4.80267
-4.6145
-4.6773
-4.74007
-4.80267
-4.6145
-4.6773
-4.74007
-4.80267
-4.6145
-4.6773
-4.74007
-4.80267
-4.6145
-4.6773
-4.74007
-4.80267
-4.6145
-4.6773
-4.74007
-4.80267
-4.6145
-4.6773
-4.74007
-4.80267
-4.6145
-4.6773
-4.74007
-4.80267
-4.6145
-4.6773
-4.74007
-4.80267
-4.6145
-4.6773
-4.74007
-4.80267
-4.6145
-4.6773
-4.74007
-4.80267
-4.6145
-4.6773
-4.74007
-4.80267
-4.6145
-4.6773
-4.74007
-4.80267
)
;

boundaryField
{
    topWall
    {
        type            zeroGradient;
    }
    botWall
    {
        type            zeroGradient;
    }
    inlet
    {
        type            fixedJump;
        patchType       cyclic;
        jump            uniform -0.5;
        value           nonuniform List<scalar> 
15
(
-4.33376
-4.33376
-4.33376
-4.33376
-4.33376
-4.33376
-4.33376
-4.33376
-4.33376
-4.33376
-4.33376
-4.33376
-4.33376
-4.33376
-4.33376
)
;
    }
    outlet
    {
        type            fixedJump;
        patchType       cyclic;
        value           nonuniform List<scalar> 
15
(
-4.83376
-4.83376
-4.83376
-4.83376
-4.83376
-4.83376
-4.83376
-4.83376
-4.83376
-4.83376
-4.83376
-4.83376
-4.83376
-4.83376
-4.83376
)
;
    }
    fixWall
    {
        type            empty;
    }
    procBoundary7to6
    {
        type            processor;
        value           nonuniform List<scalar> 8(-4.36485 -4.42745 -4.48963 -4.55197 -4.6145 -4.6773 -4.74008 -4.80267);
    }
}


// ************************************************************************* //
