/*--------------------------------*- C++ -*----------------------------------*\
  =========                 |
  \\      /  F ield         | OpenFOAM: The Open Source CFD Toolbox
   \\    /   O peration     | Website:  https://openfoam.org
    \\  /    A nd           | Version:  dev
     \\/     M anipulation  |

   OpenFOAM for Windows 20.09 (v1)
   Built by CFD Support, www.cfdsupport.com (based on Symscape).
\*---------------------------------------------------------------------------*/
FoamFile
{
    version     2.0;
    format      ascii;
    class       surfaceScalarField;
    location    "4";
    object      phi;
}
// * * * * * * * * * * * * * * * * * * * * * * * * * * * * * * * * * * * * * //

dimensions      [0 3 -1 0 0 0 0];

internalField   nonuniform List<scalar> 
217
(
1.84457e-07
4.47765e-10
1.84483e-07
-1.56935e-10
1.84439e-07
-1.78468e-10
1.51809e-10
1.84441e-07
1.8158e-07
4.36729e-10
1.81595e-07
-1.71617e-10
1.81562e-07
-1.45215e-10
1.42577e-10
1.81571e-07
1.7801e-07
4.20226e-10
1.78021e-07
-1.82397e-10
1.77993e-07
-1.17156e-10
1.38705e-10
1.77997e-07
1.73619e-07
4.07532e-10
1.7362e-07
-1.83727e-10
1.73602e-07
-9.85223e-11
1.29225e-10
1.73611e-07
1.68252e-07
3.86173e-10
1.6825e-07
-1.81545e-10
1.68235e-07
-8.38084e-11
1.24543e-10
1.6824e-07
1.61742e-07
3.53621e-10
1.61734e-07
-1.73423e-10
1.61722e-07
-7.20292e-11
1.13053e-10
1.61733e-07
1.53903e-07
3.10831e-10
1.53888e-07
-1.58376e-10
1.53875e-07
-5.92864e-11
9.94732e-11
1.53889e-07
1.44529e-07
2.62663e-10
1.44509e-07
-1.38545e-10
1.44497e-07
-4.76362e-11
8.10264e-11
1.44515e-07
1.33398e-07
2.12846e-10
1.33376e-07
-1.16263e-10
1.33364e-07
-3.64344e-11
6.25537e-11
1.33383e-07
1.20273e-07
1.64061e-10
1.20249e-07
-9.28889e-11
1.20239e-07
-2.62876e-11
4.42317e-11
1.20257e-07
1.04899e-07
1.18357e-10
1.04876e-07
-6.97859e-11
1.04867e-07
-1.7352e-11
2.83274e-11
1.04883e-07
8.70095e-08
7.68767e-11
8.69875e-08
-4.78825e-11
8.69796e-08
-9.57314e-12
1.60332e-11
8.69919e-08
6.63226e-08
4.14312e-11
6.63024e-08
-2.77526e-11
6.62961e-08
-3.38671e-12
7.85842e-12
6.63042e-08
4.25481e-08
1.39014e-11
4.25304e-08
-1.00575e-11
4.25268e-08
8.64385e-14
2.75187e-12
4.25318e-08
1.53874e-08
1.53773e-08
1.53773e-08
1.53801e-08
1.84501e-07
2.71814e-10
1.84504e-07
-4.48989e-11
1.8449e-07
-2.58555e-10
-2.32637e-10
1.81625e-07
2.1729e-10
1.8162e-07
-3.96699e-11
1.81608e-07
-2.46845e-10
-1.93355e-10
1.78043e-07
1.71513e-10
1.78046e-07
-4.25396e-11
1.78032e-07
-2.33211e-10
-1.55234e-10
1.73649e-07
1.33899e-10
1.73645e-07
-3.85279e-11
1.73634e-07
-2.22162e-10
-1.27786e-10
1.68267e-07
1.06429e-10
1.6827e-07
-4.16285e-11
1.68257e-07
-2.08676e-10
-1.01507e-10
1.61755e-07
8.51242e-11
1.61749e-07
-3.59833e-11
1.61727e-07
-1.87207e-10
-8.31161e-11
1.53903e-07
7.06659e-11
1.53902e-07
-3.46209e-11
1.53878e-07
-1.63334e-10
-6.52576e-11
1.44528e-07
5.79551e-11
1.44522e-07
-2.87865e-11
1.44494e-07
-1.34749e-10
-5.17883e-11
1.33394e-07
4.71271e-11
1.3339e-07
-2.47417e-11
1.33361e-07
-1.05972e-10
-3.89502e-11
1.20268e-07
3.67206e-11
1.20262e-07
-1.87585e-11
1.20234e-07
-7.76129e-11
-2.92947e-11
1.04892e-07
2.77302e-11
1.04886e-07
-1.30625e-11
1.04861e-07
-5.25636e-11
-2.14955e-11
8.7e-08
1.96412e-11
8.69942e-08
-7.18629e-12
8.69732e-08
-3.15046e-11
-1.62848e-11
6.63115e-08
1.24193e-11
6.63074e-08
-3.07164e-12
6.62918e-08
-1.57762e-11
-1.16519e-11
4.25393e-08
4.99173e-12
4.25373e-08
-9.83416e-13
4.25267e-08
-5.06323e-12
-5.61653e-12
1.53851e-08
1.53842e-08
1.53792e-08
)
;

boundaryField
{
    topWall
    {
        type            calculated;
        value           uniform 0;
    }
    botWall
    {
        type            calculated;
        value           nonuniform List<scalar> 0();
    }
    inlet
    {
        type            cyclic;
        value           nonuniform List<scalar> 
15
(
-1.8444e-07
-1.81569e-07
-1.77994e-07
-1.73606e-07
-1.68231e-07
-1.61709e-07
-1.5386e-07
-1.4448e-07
-1.33348e-07
-1.20224e-07
-1.04854e-07
-8.6968e-08
-6.62872e-08
-4.25206e-08
-1.53735e-08
)
;
    }
    outlet
    {
        type            cyclic;
        value           nonuniform List<scalar> 
15
(
1.8444e-07
1.81569e-07
1.77994e-07
1.73606e-07
1.68231e-07
1.61709e-07
1.5386e-07
1.4448e-07
1.33348e-07
1.20224e-07
1.04854e-07
8.6968e-08
6.62872e-08
4.25206e-08
1.53735e-08
)
;
    }
    fixWall
    {
        type            empty;
        value           nonuniform List<scalar> 0();
    }
    procBoundary7to6
    {
        type            processor;
        value           nonuniform List<scalar> 8(-4.66923e-10 1.28334e-10 2.21406e-10 -1.53006e-10 -3.32225e-10 4.16199e-11 2.68633e-10 2.88162e-10);
    }
}


// ************************************************************************* //
