/*--------------------------------*- C++ -*----------------------------------*\
  =========                 |
  \\      /  F ield         | OpenFOAM: The Open Source CFD Toolbox
   \\    /   O peration     | Website:  https://openfoam.org
    \\  /    A nd           | Version:  dev
     \\/     M anipulation  |

   OpenFOAM for Windows 20.09 (v1)
   Built by CFD Support, www.cfdsupport.com (based on Symscape).
\*---------------------------------------------------------------------------*/
FoamFile
{
    version     2.0;
    format      ascii;
    class       volSymmTensorField;
    location    "4";
    object      R;
}
// * * * * * * * * * * * * * * * * * * * * * * * * * * * * * * * * * * * * * //

dimensions      [0 2 -2 0 0 0 0];

internalField   nonuniform List<symmTensor> 
120
(
(1.48029e-16 7.8383e-18 -0 1.48031e-16 -0 1.48029e-16)
(1.48027e-16 7.88208e-18 -0 1.48032e-16 -0 1.4803e-16)
(1.48034e-16 7.8829e-18 -0 1.48025e-16 -0 1.4803e-16)
(1.48029e-16 7.83784e-18 -0 1.4803e-16 -0 1.4803e-16)
(1.48029e-16 8.39532e-18 -0 1.48031e-16 -0 1.48029e-16)
(1.48028e-16 8.43228e-18 -0 1.48032e-16 -0 1.4803e-16)
(1.48033e-16 8.43349e-18 -0 1.48027e-16 -0 1.4803e-16)
(1.48029e-16 8.39203e-18 -0 1.4803e-16 -0 1.4803e-16)
(1.48029e-16 8.81368e-18 -0 1.4803e-16 -0 1.4803e-16)
(1.48028e-16 8.8407e-18 -0 1.48031e-16 -0 1.4803e-16)
(1.48032e-16 8.84275e-18 -0 1.48028e-16 -0 1.4803e-16)
(1.48029e-16 8.80826e-18 -0 1.4803e-16 -0 1.4803e-16)
(1.4803e-16 9.05154e-18 -0 1.4803e-16 -0 1.4803e-16)
(1.48029e-16 9.07014e-18 -0 1.4803e-16 -0 1.4803e-16)
(1.48031e-16 9.07504e-18 -0 1.48028e-16 -0 1.4803e-16)
(1.48029e-16 9.04541e-18 -0 1.4803e-16 -0 1.4803e-16)
(1.48029e-16 9.07861e-18 -0 1.48031e-16 -0 1.4803e-16)
(1.48029e-16 9.07966e-18 -0 1.4803e-16 -0 1.4803e-16)
(1.48031e-16 9.09253e-18 -0 1.48029e-16 -0 1.4803e-16)
(1.48029e-16 9.06929e-18 -0 1.4803e-16 -0 1.4803e-16)
(1.48029e-16 8.84611e-18 -0 1.48031e-16 -0 1.4803e-16)
(1.4803e-16 8.84419e-18 -0 1.4803e-16 -0 1.4803e-16)
(1.4803e-16 8.86153e-18 -0 1.48029e-16 -0 1.4803e-16)
(1.48029e-16 8.84188e-18 -0 1.4803e-16 -0 1.4803e-16)
(1.48029e-16 8.3418e-18 -0 1.48031e-16 -0 1.4803e-16)
(1.4803e-16 8.34093e-18 -0 1.48029e-16 -0 1.4803e-16)
(1.4803e-16 8.35282e-18 -0 1.48029e-16 -0 1.4803e-16)
(1.48029e-16 8.34092e-18 -0 1.4803e-16 -0 1.4803e-16)
(1.48029e-16 7.56309e-18 -0 1.48031e-16 -0 1.4803e-16)
(1.4803e-16 7.56419e-18 -0 1.48029e-16 -0 1.4803e-16)
(1.4803e-16 7.56822e-18 -0 1.48029e-16 -0 1.4803e-16)
(1.48029e-16 7.56316e-18 -0 1.4803e-16 -0 1.4803e-16)
(1.48029e-16 6.52945e-18 -0 1.48031e-16 -0 1.4803e-16)
(1.4803e-16 6.53082e-18 -0 1.48029e-16 -0 1.4803e-16)
(1.4803e-16 6.53123e-18 -0 1.4803e-16 -0 1.4803e-16)
(1.48029e-16 6.53008e-18 -0 1.4803e-16 -0 1.4803e-16)
(1.48029e-16 5.28975e-18 -0 1.4803e-16 -0 1.4803e-16)
(1.4803e-16 5.29117e-18 -0 1.48029e-16 -0 1.4803e-16)
(1.4803e-16 5.28999e-18 -0 1.4803e-16 -0 1.4803e-16)
(1.4803e-16 5.29037e-18 -0 1.4803e-16 -0 1.4803e-16)
(1.48029e-16 3.92832e-18 -0 1.4803e-16 -0 1.4803e-16)
(1.4803e-16 3.9293e-18 -0 1.4803e-16 -0 1.4803e-16)
(1.4803e-16 3.92795e-18 -0 1.4803e-16 -0 1.4803e-16)
(1.4803e-16 3.92877e-18 -0 1.4803e-16 -0 1.4803e-16)
(1.4803e-16 2.57067e-18 -0 1.4803e-16 -0 1.4803e-16)
(1.4803e-16 2.57128e-18 -0 1.4803e-16 -0 1.4803e-16)
(1.4803e-16 2.57026e-18 -0 1.4803e-16 -0 1.4803e-16)
(1.4803e-16 2.57093e-18 -0 1.4803e-16 -0 1.4803e-16)
(1.4803e-16 1.39272e-18 -0 1.4803e-16 -0 1.4803e-16)
(1.4803e-16 1.39303e-18 -0 1.4803e-16 -0 1.4803e-16)
(1.4803e-16 1.39246e-18 -0 1.4803e-16 -0 1.4803e-16)
(1.4803e-16 1.39276e-18 -0 1.4803e-16 -0 1.4803e-16)
(1.4803e-16 5.43007e-19 -0 1.4803e-16 -0 1.4803e-16)
(1.4803e-16 5.43116e-19 -0 1.4803e-16 -0 1.4803e-16)
(1.4803e-16 5.42865e-19 -0 1.4803e-16 -0 1.4803e-16)
(1.4803e-16 5.42951e-19 -0 1.4803e-16 -0 1.4803e-16)
(1.4803e-16 1.06503e-19 -0 1.4803e-16 -0 1.4803e-16)
(1.4803e-16 1.06523e-19 -0 1.4803e-16 -0 1.4803e-16)
(1.4803e-16 1.06465e-19 -0 1.4803e-16 -0 1.4803e-16)
(1.4803e-16 1.06484e-19 -0 1.4803e-16 -0 1.4803e-16)
(1.48024e-16 7.87118e-18 -0 1.48036e-16 -0 1.48029e-16)
(1.4803e-16 7.87424e-18 -0 1.4803e-16 -0 1.4803e-16)
(1.48031e-16 7.87541e-18 -0 1.48029e-16 -0 1.4803e-16)
(1.48035e-16 7.87362e-18 -0 1.48024e-16 -0 1.4803e-16)
(1.48025e-16 8.42794e-18 -0 1.48034e-16 -0 1.4803e-16)
(1.4803e-16 8.43017e-18 -0 1.4803e-16 -0 1.4803e-16)
(1.48031e-16 8.42651e-18 -0 1.48029e-16 -0 1.4803e-16)
(1.48033e-16 8.42889e-18 -0 1.48026e-16 -0 1.4803e-16)
(1.48027e-16 8.84238e-18 -0 1.48033e-16 -0 1.4803e-16)
(1.4803e-16 8.84571e-18 -0 1.4803e-16 -0 1.4803e-16)
(1.48031e-16 8.83932e-18 -0 1.48029e-16 -0 1.4803e-16)
(1.48032e-16 8.84379e-18 -0 1.48027e-16 -0 1.4803e-16)
(1.48028e-16 9.07374e-18 -0 1.48032e-16 -0 1.4803e-16)
(1.4803e-16 9.0793e-18 -0 1.4803e-16 -0 1.4803e-16)
(1.48031e-16 9.07297e-18 -0 1.48029e-16 -0 1.4803e-16)
(1.48031e-16 9.07868e-18 -0 1.48028e-16 -0 1.4803e-16)
(1.48028e-16 9.08966e-18 -0 1.48031e-16 -0 1.4803e-16)
(1.4803e-16 9.09409e-18 -0 1.4803e-16 -0 1.4803e-16)
(1.4803e-16 9.09181e-18 -0 1.48029e-16 -0 1.4803e-16)
(1.48031e-16 9.10973e-18 -0 1.48029e-16 -0 1.4803e-16)
(1.48029e-16 8.85073e-18 -0 1.48031e-16 -0 1.4803e-16)
(1.4803e-16 8.85779e-18 -0 1.4803e-16 -0 1.4803e-16)
(1.48031e-16 8.85594e-18 -0 1.48029e-16 -0 1.4803e-16)
(1.4803e-16 8.8704e-18 -0 1.48029e-16 -0 1.4803e-16)
(1.48029e-16 8.34621e-18 -0 1.4803e-16 -0 1.4803e-16)
(1.4803e-16 8.34914e-18 -0 1.4803e-16 -0 1.4803e-16)
(1.48031e-16 8.34617e-18 -0 1.48029e-16 -0 1.4803e-16)
(1.4803e-16 8.35592e-18 -0 1.48029e-16 -0 1.4803e-16)
(1.48029e-16 7.56469e-18 -0 1.4803e-16 -0 1.4803e-16)
(1.4803e-16 7.56576e-18 -0 1.4803e-16 -0 1.4803e-16)
(1.4803e-16 7.56651e-18 -0 1.48029e-16 -0 1.4803e-16)
(1.4803e-16 7.56931e-18 -0 1.48029e-16 -0 1.4803e-16)
(1.4803e-16 6.53134e-18 -0 1.4803e-16 -0 1.4803e-16)
(1.4803e-16 6.53128e-18 -0 1.4803e-16 -0 1.4803e-16)
(1.4803e-16 6.53132e-18 -0 1.48029e-16 -0 1.4803e-16)
(1.4803e-16 6.53112e-18 -0 1.4803e-16 -0 1.4803e-16)
(1.4803e-16 5.29097e-18 -0 1.4803e-16 -0 1.4803e-16)
(1.4803e-16 5.29103e-18 -0 1.4803e-16 -0 1.4803e-16)
(1.4803e-16 5.29153e-18 -0 1.48029e-16 -0 1.4803e-16)
(1.4803e-16 5.28963e-18 -0 1.4803e-16 -0 1.4803e-16)
(1.4803e-16 3.92938e-18 -0 1.4803e-16 -0 1.4803e-16)
(1.4803e-16 3.92931e-18 -0 1.4803e-16 -0 1.4803e-16)
(1.4803e-16 3.92933e-18 -0 1.4803e-16 -0 1.4803e-16)
(1.4803e-16 3.92758e-18 -0 1.4803e-16 -0 1.4803e-16)
(1.4803e-16 2.5713e-18 -0 1.4803e-16 -0 1.4803e-16)
(1.4803e-16 2.57116e-18 -0 1.4803e-16 -0 1.4803e-16)
(1.4803e-16 2.57108e-18 -0 1.4803e-16 -0 1.4803e-16)
(1.4803e-16 2.56991e-18 -0 1.4803e-16 -0 1.4803e-16)
(1.4803e-16 1.39291e-18 -0 1.4803e-16 -0 1.4803e-16)
(1.4803e-16 1.3928e-18 -0 1.4803e-16 -0 1.4803e-16)
(1.4803e-16 1.39267e-18 -0 1.4803e-16 -0 1.4803e-16)
(1.4803e-16 1.39215e-18 -0 1.4803e-16 -0 1.4803e-16)
(1.4803e-16 5.42986e-19 -0 1.4803e-16 -0 1.4803e-16)
(1.4803e-16 5.42975e-19 -0 1.4803e-16 -0 1.4803e-16)
(1.4803e-16 5.42929e-19 -0 1.4803e-16 -0 1.4803e-16)
(1.4803e-16 5.42744e-19 -0 1.4803e-16 -0 1.4803e-16)
(1.4803e-16 1.06499e-19 -0 1.4803e-16 -0 1.4803e-16)
(1.4803e-16 1.0651e-19 -0 1.4803e-16 -0 1.4803e-16)
(1.4803e-16 1.06497e-19 -0 1.4803e-16 -0 1.4803e-16)
(1.4803e-16 1.06447e-19 -0 1.4803e-16 -0 1.4803e-16)
)
;

boundaryField
{
    topWall
    {
        type            kqRWallFunction;
        value           uniform (1.4803e-16 0 -0 1.4803e-16 -0 1.4803e-16);
    }
    botWall
    {
        type            kqRWallFunction;
        value           nonuniform List<symmTensor> 0();
    }
    inlet
    {
        type            cyclic;
    }
    outlet
    {
        type            cyclic;
    }
    fixWall
    {
        type            empty;
    }
    procBoundary7to6
    {
        type            processor;
        value           nonuniform List<symmTensor> 8((1.48029e-16 7.18682e-18 -0 1.48031e-16 -0 1.48029e-16) (1.48025e-16 7.23322e-18 -0 1.48034e-16 -0 1.4803e-16) (1.48036e-16 7.23489e-18 -0 1.48024e-16 -0 1.4803e-16) (1.48029e-16 7.18669e-18 -0 1.4803e-16 -0 1.4803e-16) (1.48022e-16 7.22033e-18 -0 1.48038e-16 -0 1.48029e-16) (1.4803e-16 7.21845e-18 -0 1.4803e-16 -0 1.48029e-16) (1.48031e-16 7.22167e-18 -0 1.48029e-16 -0 1.48029e-16) (1.48035e-16 7.22529e-18 -0 1.48024e-16 -0 1.4803e-16));
    }
}


// ************************************************************************* //
