/*--------------------------------*- C++ -*----------------------------------*\
  =========                 |
  \\      /  F ield         | OpenFOAM: The Open Source CFD Toolbox
   \\    /   O peration     | Website:  https://openfoam.org
    \\  /    A nd           | Version:  dev
     \\/     M anipulation  |

   OpenFOAM for Windows 20.09 (v1)
   Built by CFD Support, www.cfdsupport.com (based on Symscape).
\*---------------------------------------------------------------------------*/
FoamFile
{
    version     2.0;
    format      ascii;
    class       volVectorField;
    location    "4";
    object      U;
}
// * * * * * * * * * * * * * * * * * * * * * * * * * * * * * * * * * * * * * //

dimensions      [0 1 -1 0 0 0 0];

internalField   nonuniform List<vector> 
120
(
(0.221293 9.07468e-06 0)
(0.221389 -2.78748e-06 0)
(0.22138 -3.94167e-06 0)
(0.221275 3.10434e-06 0)
(0.217854 8.68794e-06 0)
(0.217923 -3.35119e-06 0)
(0.217915 -3.20301e-06 0)
(0.217833 2.75704e-06 0)
(0.213574 8.29146e-06 0)
(0.213636 -3.61517e-06 0)
(0.213625 -2.65216e-06 0)
(0.213559 2.80388e-06 0)
(0.208316 8.25964e-06 0)
(0.208355 -3.65334e-06 0)
(0.208344 -2.13238e-06 0)
(0.2083 2.6007e-06 0)
(0.201876 8.07674e-06 0)
(0.201914 -3.68769e-06 0)
(0.201896 -1.81584e-06 0)
(0.201868 2.6302e-06 0)
(0.194064 7.35041e-06 0)
(0.194101 -3.63183e-06 0)
(0.19407 -1.55097e-06 0)
(0.194063 2.35221e-06 0)
(0.184656 6.73255e-06 0)
(0.184697 -3.30346e-06 0)
(0.184645 -1.32512e-06 0)
(0.184656 2.16693e-06 0)
(0.173408 5.73031e-06 0)
(0.173446 -3.02089e-06 0)
(0.173385 -1.03629e-06 0)
(0.173408 1.79716e-06 0)
(0.160052 4.76534e-06 0)
(0.160089 -2.53432e-06 0)
(0.160023 -8.72463e-07 0)
(0.160051 1.45229e-06 0)
(0.144304 3.75852e-06 0)
(0.144336 -2.11397e-06 0)
(0.144273 -5.87301e-07 0)
(0.144301 1.05442e-06 0)
(0.125858 2.80393e-06 0)
(0.125885 -1.60829e-06 0)
(0.125828 -4.59998e-07 0)
(0.125853 7.14086e-07 0)
(0.104393 1.92604e-06 0)
(0.104415 -1.17886e-06 0)
(0.104366 -2.38949e-07 0)
(0.104385 4.25729e-07 0)
(0.0795718 1.14868e-06 0)
(0.0795876 -7.44977e-07 0)
(0.0795484 -1.38117e-07 0)
(0.0795621 2.20194e-07 0)
(0.0510455 5.13008e-07 0)
(0.0510551 -3.60211e-07 0)
(0.051028 -9.94969e-09 0)
(0.0510362 1.17035e-07 0)
(0.0184582 1.00774e-07 0)
(0.0184616 -9.49744e-08 0)
(0.0184508 -1.62513e-09 0)
(0.0184548 -3.58743e-09 0)
(0.221385 5.88563e-06 0)
(0.221412 -9.82292e-07 0)
(0.221394 -5.45805e-06 0)
(0.221377 -5.16184e-06 0)
(0.217939 4.7263e-06 0)
(0.217956 -8.48859e-07 0)
(0.217929 -5.15884e-06 0)
(0.217927 -4.00385e-06 0)
(0.213636 3.63998e-06 0)
(0.213661 -9.72176e-07 0)
(0.213646 -4.93223e-06 0)
(0.213626 -3.5206e-06 0)
(0.208369 3.05249e-06 0)
(0.208383 -7.72626e-07 0)
(0.208362 -4.48302e-06 0)
(0.208355 -2.69694e-06 0)
(0.201909 2.36029e-06 0)
(0.201927 -8.27668e-07 0)
(0.20192 -4.3189e-06 0)
(0.201893 -2.33717e-06 0)
(0.194099 1.93295e-06 0)
(0.194106 -7.31717e-07 0)
(0.194089 -3.96302e-06 0)
(0.194053 -1.82118e-06 0)
(0.184679 1.49665e-06 0)
(0.184683 -7.69741e-07 0)
(0.184679 -3.55372e-06 0)
(0.184624 -1.47904e-06 0)
(0.173431 1.30549e-06 0)
(0.173431 -5.84071e-07 0)
(0.17342 -2.96587e-06 0)
(0.17336 -1.13825e-06 0)
(0.16007 1.02145e-06 0)
(0.160069 -5.87115e-07 0)
(0.160063 -2.4284e-06 0)
(0.159999 -9.15748e-07 0)
(0.144319 8.49954e-07 0)
(0.144318 -4.00292e-07 0)
(0.144308 -1.80852e-06 0)
(0.144249 -6.5268e-07 0)
(0.125868 6.29374e-07 0)
(0.125867 -3.46193e-07 0)
(0.125857 -1.30006e-06 0)
(0.125805 -5.10748e-07 0)
(0.104397 4.71749e-07 0)
(0.104397 -1.78733e-07 0)
(0.104386 -8.06292e-07 0)
(0.104345 -3.56483e-07 0)
(0.07957 3.22499e-07 0)
(0.0795718 -1.0331e-07 0)
(0.0795635 -4.49186e-07 0)
(0.0795324 -2.96328e-07 0)
(0.0510423 1.72027e-07 0)
(0.0510464 -3.86738e-08 0)
(0.0510406 -2.10576e-07 0)
(0.0510189 -1.5687e-07 0)
(0.0184588 5.66836e-08 0)
(0.0184617 2.55885e-08 0)
(0.0184587 -7.2107e-09 0)
(0.0184483 -8.79077e-08 0)
)
;

boundaryField
{
    topWall
    {
        type            noSlip;
    }
    botWall
    {
        type            noSlip;
    }
    inlet
    {
        type            cyclic;
    }
    outlet
    {
        type            cyclic;
    }
    fixWall
    {
        type            empty;
    }
    procBoundary7to6
    {
        type            processor;
        value           nonuniform List<vector> 8((0.224053 9.53137e-06 0) (0.224157 -2.4781e-06 0) (0.22415 -4.90552e-06 0) (0.224032 3.05489e-06 0) (0.224164 7.36212e-06 0) (0.224184 -8.7465e-07 0) (0.224158 -5.51424e-06 0) (0.224154 -6.37957e-06 0));
    }
}


// ************************************************************************* //
