/*--------------------------------*- C++ -*----------------------------------*\
  =========                 |
  \\      /  F ield         | OpenFOAM: The Open Source CFD Toolbox
   \\    /   O peration     | Website:  https://openfoam.org
    \\  /    A nd           | Version:  dev
     \\/     M anipulation  |

   OpenFOAM for Windows 20.09 (v1)
   Built by CFD Support, www.cfdsupport.com (based on Symscape).
\*---------------------------------------------------------------------------*/
FoamFile
{
    version     2.0;
    format      ascii;
    class       volVectorField;
    location    "4";
    object      UMean;
}
// * * * * * * * * * * * * * * * * * * * * * * * * * * * * * * * * * * * * * //

dimensions      [0 1 -1 0 0 0 0];

internalField   nonuniform List<vector> 
120
(
(0.19794 7.85763e-06 0)
(0.198019 -8.90769e-07 0)
(0.198012 -3.14975e-06 0)
(0.197932 7.95573e-07 0)
(0.195227 7.75249e-06 0)
(0.195283 -1.35813e-06 0)
(0.195278 -2.42148e-06 0)
(0.195218 5.90931e-07 0)
(0.191797 7.16643e-06 0)
(0.191852 -1.51952e-06 0)
(0.191844 -2.16325e-06 0)
(0.191794 6.19644e-07 0)
(0.18752 7.18192e-06 0)
(0.187559 -1.72195e-06 0)
(0.18755 -1.57954e-06 0)
(0.187519 5.97704e-07 0)
(0.182204 6.74788e-06 0)
(0.182243 -1.78565e-06 0)
(0.182229 -1.45885e-06 0)
(0.18221 6.69759e-07 0)
(0.175664 6.20155e-06 0)
(0.175702 -1.88155e-06 0)
(0.175679 -1.1199e-06 0)
(0.175675 6.06162e-07 0)
(0.167676 5.46981e-06 0)
(0.167716 -1.73321e-06 0)
(0.167683 -1.05369e-06 0)
(0.167689 6.21542e-07 0)
(0.157996 4.65514e-06 0)
(0.158035 -1.67158e-06 0)
(0.157994 -7.44509e-07 0)
(0.158007 5.81091e-07 0)
(0.146352 3.75102e-06 0)
(0.146388 -1.44626e-06 0)
(0.146347 -6.56103e-07 0)
(0.146363 5.20925e-07 0)
(0.132451 2.92349e-06 0)
(0.132482 -1.27425e-06 0)
(0.132441 -4.03489e-07 0)
(0.132459 4.50911e-07 0)
(0.115975 2.1313e-06 0)
(0.116 -1.00551e-06 0)
(0.115962 -3.36125e-07 0)
(0.115981 3.47211e-07 0)
(0.0965864 1.43585e-06 0)
(0.0966056 -7.57724e-07 0)
(0.0965728 -1.66754e-07 0)
(0.0965887 2.51021e-07 0)
(0.0739285 8.43555e-07 0)
(0.0739424 -4.98128e-07 0)
(0.0739163 -1.13772e-07 0)
(0.0739286 1.61404e-07 0)
(0.047631 3.59366e-07 0)
(0.0476395 -2.57548e-07 0)
(0.047621 -2.484e-08 0)
(0.0476291 1.11793e-07 0)
(0.0173137 7.21594e-08 0)
(0.0173161 -6.47474e-08 0)
(0.0173081 -4.44898e-09 0)
(0.0173121 1.07235e-08 0)
(0.19801 2.85238e-06 0)
(0.198028 1.42701e-06 0)
(0.198021 -4.68049e-06 0)
(0.198006 -4.48611e-06 0)
(0.195287 2.10256e-06 0)
(0.195296 1.43419e-06 0)
(0.195286 -4.43944e-06 0)
(0.195281 -3.6316e-06 0)
(0.19184 1.32894e-06 0)
(0.191854 1.24464e-06 0)
(0.191852 -4.4233e-06 0)
(0.191834 -3.21024e-06 0)
(0.187557 1.17506e-06 0)
(0.187564 1.37929e-06 0)
(0.187557 -3.98058e-06 0)
(0.187543 -2.64563e-06 0)
(0.182222 6.96304e-07 0)
(0.182238 1.22081e-06 0)
(0.182242 -3.87966e-06 0)
(0.182207 -2.36821e-06 0)
(0.17568 5.69481e-07 0)
(0.175693 1.13753e-06 0)
(0.175691 -3.47169e-06 0)
(0.175646 -1.93546e-06 0)
(0.167681 3.65714e-07 0)
(0.167695 9.12209e-07 0)
(0.167703 -3.10476e-06 0)
(0.167642 -1.62086e-06 0)
(0.157999 3.57589e-07 0)
(0.158012 8.11047e-07 0)
(0.158016 -2.5457e-06 0)
(0.157952 -1.29374e-06 0)
(0.146351 2.54982e-07 0)
(0.146364 5.78505e-07 0)
(0.146371 -2.08345e-06 0)
(0.146306 -1.04963e-06 0)
(0.13245 2.5336e-07 0)
(0.132461 4.72405e-07 0)
(0.132465 -1.53824e-06 0)
(0.132405 -7.76105e-07 0)
(0.115972 1.90019e-07 0)
(0.115981 3.04029e-07 0)
(0.115985 -1.11563e-06 0)
(0.115932 -5.90557e-07 0)
(0.0965817 1.71217e-07 0)
(0.0965891 2.25649e-07 0)
(0.0965909 -6.97726e-07 0)
(0.0965485 -4.05511e-07 0)
(0.0739226 1.38867e-07 0)
(0.0739285 1.34793e-07 0)
(0.0739304 -4.01789e-07 0)
(0.0738984 -2.97849e-07 0)
(0.0476268 1.08506e-07 0)
(0.0476324 6.28708e-08 0)
(0.0476336 -1.88901e-07 0)
(0.0476115 -1.50312e-07 0)
(0.0173134 2.88588e-08 0)
(0.0173171 3.27093e-08 0)
(0.017317 -1.7388e-08 0)
(0.0173069 -6.71327e-08 0)
)
;

boundaryField
{
    topWall
    {
        type            calculated;
        value           uniform (0 0 0);
    }
    botWall
    {
        type            calculated;
        value           nonuniform List<vector> 0();
    }
    inlet
    {
        type            cyclic;
    }
    outlet
    {
        type            cyclic;
    }
    fixWall
    {
        type            empty;
    }
    procBoundary7to6
    {
        type            processor;
        value           nonuniform List<vector> 8((0.200087 8.21081e-06 0) (0.200165 -5.48214e-07 0) (0.200161 -3.84951e-06 0) (0.200074 7.84869e-07 0) (0.200174 3.8572e-06 0) (0.200193 1.57785e-06 0) (0.200176 -4.78599e-06 0) (0.200167 -5.44452e-06 0));
    }
}


// ************************************************************************* //
