/*--------------------------------*- C++ -*----------------------------------*\
  =========                 |
  \\      /  F ield         | OpenFOAM: The Open Source CFD Toolbox
   \\    /   O peration     | Website:  https://openfoam.org
    \\  /    A nd           | Version:  dev
     \\/     M anipulation  |

   OpenFOAM for Windows 20.09 (v1)
   Built by CFD Support, www.cfdsupport.com (based on Symscape).
\*---------------------------------------------------------------------------*/
FoamFile
{
    version     2.0;
    format      ascii;
    class       volSymmTensorField;
    location    "4";
    object      UPrime2Mean;
}
// * * * * * * * * * * * * * * * * * * * * * * * * * * * * * * * * * * * * * //

dimensions      [0 2 -2 0 0 0 0];

internalField   nonuniform List<symmTensor> 
120
(
(0.000841581 4.38601e-08 0 2.28583e-12 0 0)
(0.000842876 -6.84062e-08 0 5.55172e-12 0 0)
(0.000842685 -2.8558e-08 0 9.67811e-13 0 0)
(0.00084087 8.31685e-08 0 8.226e-12 0 0)
(0.000790149 3.26655e-08 0 1.35042e-12 0 0)
(0.000790993 -6.96336e-08 0 6.13007e-12 0 0)
(0.000790828 -2.73025e-08 0 9.42589e-13 0 0)
(0.000789294 7.55985e-08 0 7.24081e-12 0 0)
(0.000731862 3.78085e-08 0 1.95321e-12 0 0)
(0.000732316 -7.04503e-08 0 6.77746e-12 0 0)
(0.000732107 -1.64334e-08 0 3.68874e-13 0 0)
(0.000731021 7.3363e-08 0 7.36249e-12 0 0)
(0.000667366 3.45859e-08 0 1.7924e-12 0 0)
(0.000667422 -6.19846e-08 0 5.75661e-12 0 0)
(0.00066729 -1.77408e-08 0 4.71665e-13 0 0)
(0.000666477 6.4237e-08 0 6.19135e-12 0 0)
(0.000597214 4.03421e-08 0 2.72513e-12 0 0)
(0.000597169 -5.77406e-08 0 5.58296e-12 0 0)
(0.000596913 -1.08348e-08 0 1.96667e-13 0 0)
(0.00059639 5.94748e-08 0 5.93111e-12 0 0)
(0.000522458 3.26215e-08 0 2.03683e-12 0 0)
(0.000522443 -4.9698e-08 0 4.72759e-12 0 0)
(0.00052192 -1.22338e-08 0 2.86761e-13 0 0)
(0.000521789 4.95471e-08 0 4.7048e-12 0 0)
(0.00044495 3.3089e-08 0 2.46068e-12 0 0)
(0.00044499 -4.11487e-08 0 3.80507e-12 0 0)
(0.000444012 -7.10512e-09 0 1.13697e-13 0 0)
(0.000444249 4.04635e-08 0 3.68553e-12 0 0)
(0.000366548 2.55713e-08 0 1.78392e-12 0 0)
(0.000366516 -3.20903e-08 0 2.80966e-12 0 0)
(0.000365552 -6.93029e-09 0 1.31387e-13 0 0)
(0.00036605 2.89028e-08 0 2.28213e-12 0 0)
(0.000289646 2.14449e-08 0 1.58775e-12 0 0)
(0.000289655 -2.30042e-08 0 1.82697e-12 0 0)
(0.000288636 -4.5663e-09 0 7.22403e-14 0 0)
(0.000289126 1.96733e-08 0 1.33865e-12 0 0)
(0.000216815 1.52743e-08 0 1.07605e-12 0 0)
(0.000216843 -1.53611e-08 0 1.08817e-12 0 0)
(0.000216026 -3.35615e-09 0 5.21406e-14 0 0)
(0.000216405 1.10288e-08 0 5.62067e-13 0 0)
(0.000150735 1.02587e-08 0 6.98188e-13 0 0)
(0.00015081 -9.19581e-09 0 5.60725e-13 0 0)
(0.000150197 -1.88591e-09 0 2.36798e-14 0 0)
(0.000150409 5.58944e-09 0 2.07713e-13 0 0)
(9.40543e-05 5.90567e-09 0 3.70817e-13 0 0)
(9.41087e-05 -5.07516e-09 0 2.73696e-13 0 0)
(9.3716e-05 -8.68217e-10 0 8.04345e-15 0 0)
(9.3812e-05 2.10211e-09 0 4.71036e-14 0 0)
(4.91453e-05 2.65728e-09 0 1.43679e-13 0 0)
(4.9178e-05 -2.15045e-09 0 9.40346e-14 0 0)
(4.89525e-05 -2.11597e-10 0 9.14624e-16 0 0)
(4.89767e-05 5.11114e-10 0 5.33392e-15 0 0)
(1.79922e-05 8.0959e-10 0 3.6429e-14 0 0)
(1.80042e-05 -5.41142e-10 0 1.62648e-14 0 0)
(1.79135e-05 7.82901e-11 0 3.42163e-16 0 0)
(1.79139e-05 2.75636e-11 0 4.24111e-17 0 0)
(2.02133e-06 5.05374e-11 0 1.26354e-15 0 0)
(2.02484e-06 -5.34323e-11 0 1.40999e-15 0 0)
(2.01505e-06 4.97963e-12 0 1.23057e-17 0 0)
(2.01516e-06 -2.52368e-11 0 3.16053e-16 0 0)
(0.000843217 1.09419e-07 0 1.41985e-11 0 0)
(0.000843862 -8.6944e-08 0 8.95794e-12 0 0)
(0.000843056 -2.80462e-08 0 9.33023e-13 0 0)
(0.000842951 -2.43718e-08 0 7.04648e-13 0 0)
(0.000791851 9.17182e-08 0 1.06235e-11 0 0)
(0.000792409 -7.98368e-08 0 8.04372e-12 0 0)
(0.000791267 -2.51387e-08 0 7.98663e-13 0 0)
(0.000791434 -1.30094e-08 0 2.13846e-13 0 0)
(0.000733128 7.7734e-08 0 8.24218e-12 0 0)
(0.000733882 -7.46028e-08 0 7.58375e-12 0 0)
(0.000733007 -1.71169e-08 0 3.99709e-13 0 0)
(0.000732906 -1.04375e-08 0 1.48643e-13 0 0)
(0.000668426 6.02981e-08 0 5.43944e-12 0 0)
(0.000668827 -6.91345e-08 0 7.14622e-12 0 0)
(0.000668006 -1.61321e-08 0 3.89582e-13 0 0)
(0.000668383 -1.64805e-09 0 4.06363e-15 0 0)
(0.000598102 5.05535e-08 0 4.27295e-12 0 0)
(0.000598207 -6.22401e-08 0 6.47573e-12 0 0)
(0.000597546 -1.33382e-08 0 2.97729e-13 0 0)
(0.000598013 9.42941e-10 0 1.48682e-15 0 0)
(0.000523582 3.8757e-08 0 2.8689e-12 0 0)
(0.000523213 -5.31152e-08 0 5.39211e-12 0 0)
(0.000522357 -1.39499e-08 0 3.72544e-13 0 0)
(0.000522874 3.24635e-09 0 2.01555e-14 0 0)
(0.000445921 2.96675e-08 0 1.9738e-12 0 0)
(0.000445375 -4.4095e-08 0 4.36569e-12 0 0)
(0.000444757 -1.1762e-08 0 3.11057e-13 0 0)
(0.000445024 3.71661e-09 0 3.10392e-14 0 0)
(0.000367504 2.2574e-08 0 1.38662e-12 0 0)
(0.000366867 -3.31955e-08 0 3.00364e-12 0 0)
(0.000366199 -9.98849e-09 0 2.72447e-13 0 0)
(0.00036637 3.69738e-09 0 3.73138e-14 0 0)
(0.000290426 1.62264e-08 0 9.0659e-13 0 0)
(0.000289877 -2.46534e-08 0 2.09672e-12 0 0)
(0.000289309 -7.28876e-09 0 1.8363e-13 0 0)
(0.000289358 2.8291e-09 0 2.76606e-14 0 0)
(0.000217409 1.09278e-08 0 5.49268e-13 0 0)
(0.000216971 -1.5969e-08 0 1.17531e-12 0 0)
(0.000216445 -4.93963e-09 0 1.1273e-13 0 0)
(0.000216479 2.25591e-09 0 2.35087e-14 0 0)
(0.000151133 6.70978e-09 0 2.97891e-13 0 0)
(0.000150831 -9.92019e-09 0 6.52454e-13 0 0)
(0.000150411 -2.80981e-09 0 5.24897e-14 0 0)
(0.000150428 1.216e-09 0 9.8296e-15 0 0)
(9.42606e-05 3.62467e-09 0 1.39382e-13 0 0)
(9.40857e-05 -4.87266e-09 0 2.52353e-13 0 0)
(9.37787e-05 -1.30605e-09 0 1.81892e-14 0 0)
(9.38047e-05 5.89884e-10 0 3.70944e-15 0 0)
(4.92179e-05 1.60038e-09 0 5.20381e-14 0 0)
(4.91465e-05 -2.0736e-09 0 8.74895e-14 0 0)
(4.89692e-05 -4.12028e-10 0 3.46681e-15 0 0)
(4.89845e-05 1.32183e-11 0 3.56691e-18 0 0)
(1.80025e-05 3.34809e-10 0 6.22675e-15 0 0)
(1.7986e-05 -5.34979e-10 0 1.59126e-14 0 0)
(1.79138e-05 -1.13966e-10 0 7.25044e-16 0 0)
(1.79183e-05 -3.44836e-11 0 6.63636e-17 0 0)
(2.02458e-06 4.91828e-11 0 1.19479e-15 0 0)
(2.02209e-06 -1.25788e-11 0 7.82486e-17 0 0)
(2.01149e-06 1.79311e-11 0 1.59844e-16 0 0)
(2.01038e-06 -3.65926e-11 0 6.66053e-16 0 0)
)
;

boundaryField
{
    topWall
    {
        type            calculated;
        value           uniform (0 0 0 0 0 0);
    }
    botWall
    {
        type            calculated;
        value           nonuniform List<symmTensor> 0();
    }
    inlet
    {
        type            cyclic;
    }
    outlet
    {
        type            cyclic;
    }
    fixWall
    {
        type            empty;
    }
    procBoundary7to6
    {
        type            processor;
        value           nonuniform List<symmTensor> 8((0.000886406 4.88415e-08 0 2.6912e-12 0 0) (0.000888232 -7.1451e-08 0 5.74765e-12 0 0) (0.000888074 -3.90937e-08 0 1.72094e-12 0 0) (0.000885766 8.39273e-08 0 7.95219e-12 0 0) (0.00088814 1.29757e-07 0 1.89576e-11 0 0) (0.000888219 -9.07991e-08 0 9.28203e-12 0 0) (0.00088754 -2.69517e-08 0 8.18438e-13 0 0) (0.000887969 -3.46137e-08 0 1.34927e-12 0 0));
    }
}


// ************************************************************************* //
