/*--------------------------------*- C++ -*----------------------------------*\
  =========                 |
  \\      /  F ield         | OpenFOAM: The Open Source CFD Toolbox
   \\    /   O peration     | Website:  https://openfoam.org
    \\  /    A nd           | Version:  dev
     \\/     M anipulation  |

   OpenFOAM for Windows 20.09 (v1)
   Built by CFD Support, www.cfdsupport.com (based on Symscape).
\*---------------------------------------------------------------------------*/
FoamFile
{
    version     2.0;
    format      ascii;
    class       surfaceScalarField;
    location    "4";
    object      alphaPhi0.water;
}
// * * * * * * * * * * * * * * * * * * * * * * * * * * * * * * * * * * * * * //

dimensions      [0 3 -1 0 0 0 0];

internalField   nonuniform List<scalar> 
217
(
8.31646e-10
3.11648e-13
3.8901e-10
2.39594e-14
5.00527e-10
3.28562e-14
-1.35869e-15
3.99419e-10
2.5144e-12
4.79488e-17
1.67534e-12
1.33426e-17
8.19165e-13
8.74467e-18
-1.62409e-18
5.726e-13
7.31488e-15
2.85751e-21
5.8696e-15
2.24549e-20
3.75884e-15
8.90643e-20
5.97331e-21
2.92336e-15
2.5432e-17
-7.5985e-22
1.24312e-17
4.26617e-23
1.28204e-17
2.41075e-21
6.43313e-23
1.34223e-17
9.98816e-20
-3.46486e-24
3.29183e-20
3.74195e-25
4.07221e-20
3.25745e-23
6.00141e-25
5.41435e-20
4.03347e-22
-1.63284e-26
1.24015e-22
1.94949e-27
1.60262e-22
1.62047e-25
2.97792e-27
2.22733e-22
1.61785e-24
-7.19421e-29
5.26625e-25
1.03911e-29
6.80544e-25
7.8194e-28
1.37094e-29
9.64861e-25
6.58356e-27
-3.17424e-31
2.31148e-27
5.24287e-32
3.11193e-27
3.9147e-30
6.20467e-32
4.39524e-27
2.81336e-29
-1.42058e-33
1.07575e-29
2.70879e-34
1.51483e-29
2.01917e-32
2.60487e-34
2.0597e-29
1.25131e-31
-6.39679e-36
5.38171e-32
1.37546e-36
7.62289e-32
1.0058e-34
1.02489e-36
9.68524e-32
5.7034e-34
-2.83667e-38
2.67735e-34
6.79715e-39
3.78324e-34
4.75677e-37
3.98474e-39
4.50832e-34
2.60035e-36
-1.2249e-40
1.29588e-36
3.19872e-41
1.81503e-36
2.15052e-39
1.61164e-41
2.0355e-36
1.16511e-38
-5.05618e-43
6.07112e-39
1.44267e-43
8.40256e-39
9.00356e-42
6.79619e-44
8.82301e-39
5.0484e-41
-1.99212e-45
2.71646e-41
6.12406e-46
3.68823e-41
3.43118e-44
2.95628e-46
3.68922e-41
2.10583e-43
1.13877e-43
1.50293e-43
1.45719e-43
5.27351e-10
-7.6117e-15
6.83387e-10
-1.07849e-14
5.56606e-10
-1.31664e-14
1.68207e-12
3.13645e-13
-6.05011e-18
2.24309e-13
-4.60933e-17
4.69428e-13
-3.45563e-17
1.0913e-14
2.22758e-15
2.51365e-20
1.2042e-15
-3.0006e-19
1.16478e-15
-1.56551e-19
5.52266e-17
1.31501e-17
2.26131e-22
8.48313e-18
-1.33313e-21
5.05231e-18
-8.81503e-22
1.88008e-19
6.17555e-20
1.84017e-24
5.19584e-20
-5.00432e-24
3.53955e-20
-3.84624e-24
5.13333e-22
2.83364e-22
8.61717e-27
2.76785e-22
-2.43723e-26
2.14206e-22
-1.98111e-26
1.199e-24
1.32475e-24
3.8277e-29
1.42693e-24
-1.16885e-28
1.18423e-24
-9.57046e-29
2.87648e-27
6.24772e-27
1.63369e-31
7.15505e-27
-5.50853e-31
6.25825e-27
-4.43641e-31
5.81867e-30
2.93919e-29
6.87855e-34
3.50653e-29
-2.52767e-33
3.17142e-29
-1.99759e-33
7.8416e-33
1.39554e-31
2.89867e-36
1.67854e-31
-1.12848e-35
1.55124e-31
-8.78949e-36
6.00862e-36
6.4723e-34
1.21383e-38
7.79966e-34
-4.95123e-38
7.38833e-34
-3.77133e-38
2.74675e-38
2.89336e-36
4.99059e-41
3.52235e-36
-2.11235e-40
3.34697e-36
-1.5743e-40
1.20463e-40
1.22939e-38
2.05361e-43
1.52428e-38
-8.5974e-43
1.46329e-38
-6.34214e-43
8.41914e-43
4.96617e-41
8.28359e-46
6.24599e-41
-3.32871e-45
6.13835e-41
-2.42311e-45
1.311e-44
1.87596e-43
2.41482e-43
2.42679e-43
)
;

boundaryField
{
    topWall
    {
        type            calculated;
        value           nonuniform List<scalar> 0();
    }
    botWall
    {
        type            calculated;
        value           nonuniform List<scalar> 0();
    }
    inlet
    {
        type            cyclic;
        value           nonuniform List<scalar> 
15
(
-2.23014e-12
-8.09292e-10
-1.36237e-14
-6.09112e-17
-2.38232e-19
-8.56518e-22
-3.04333e-24
-1.12096e-26
-4.4102e-29
-1.84394e-31
-8.06664e-34
-3.58564e-36
-1.58747e-38
-6.8403e-41
-2.84983e-43
)
;
    }
    outlet
    {
        type            cyclic;
        value           nonuniform List<scalar> 
15
(
2.23014e-12
8.09292e-10
1.36237e-14
6.09112e-17
2.38232e-19
8.56518e-22
3.04333e-24
1.12096e-26
4.4102e-29
1.84394e-31
8.06664e-34
3.58564e-36
1.58747e-38
6.8403e-41
2.84983e-43
)
;
    }
    fixWall
    {
        type            empty;
        value           nonuniform List<scalar> 0();
    }
    procBoundary4to3
    {
        type            processor;
        value           nonuniform List<scalar> 8(-6.63293e-10 -1.40312e-10 -1.64566e-10 4.29923e-13 8.74868e-12 3.95875e-11 2.34707e-11 -9.59893e-10);
    }
    procBoundary4to5
    {
        type            processor;
        value           nonuniform List<scalar> 8(-3.98281e-48 7.60906e-47 5.90761e-46 9.99949e-49 2.54977e-48 -9.629e-48 -7.28195e-48 1.20614e-46);
    }
}


// ************************************************************************* //
