/*--------------------------------*- C++ -*----------------------------------*\
  =========                 |
  \\      /  F ield         | OpenFOAM: The Open Source CFD Toolbox
   \\    /   O peration     | Website:  https://openfoam.org
    \\  /    A nd           | Version:  dev
     \\/     M anipulation  |

   OpenFOAM for Windows 20.09 (v1)
   Built by CFD Support, www.cfdsupport.com (based on Symscape).
\*---------------------------------------------------------------------------*/
FoamFile
{
    version     2.0;
    format      ascii;
    class       volSymmTensorField;
    location    "4";
    object      devReff;
}
// * * * * * * * * * * * * * * * * * * * * * * * * * * * * * * * * * * * * * //

dimensions      [0 2 -2 0 0 0 0];

internalField   nonuniform List<symmTensor> 
120
(
(-9.95104e-07 -0.00354633 -0 1.89919e-06 -0 -9.04085e-07)
(1.76793e-07 -0.00366582 -0 4.18798e-07 -0 -5.95591e-07)
(4.93141e-07 -0.00362486 -0 -6.36938e-07 -0 1.43797e-07)
(-3.5562e-07 -0.00364953 -0 5.36373e-07 -0 -1.80753e-07)
(-3.39963e-06 -0.0057589 -0 3.34096e-06 -0 5.86723e-08)
(-1.27783e-06 -0.00584591 -0 7.59174e-07 -0 5.18658e-07)
(5.90214e-07 -0.00580786 -0 -3.75e-07 -0 -2.15214e-07)
(1.42114e-08 -0.00582105 -0 -1.91055e-07 -0 1.76844e-07)
(-2.10124e-06 -0.00528696 -0 1.39314e-06 -0 7.08103e-07)
(-7.81561e-07 -0.00523356 -0 7.04027e-07 -0 7.7534e-08)
(1.35364e-06 -0.00523885 -0 -1.52893e-06 -0 1.75293e-07)
(1.13792e-07 -0.00522048 -0 1.66092e-08 -0 -1.30401e-07)
(-2.56378e-06 -0.00458343 -0 2.83349e-06 -0 -2.69706e-07)
(-3.19384e-07 -0.00454107 -0 4.47044e-07 -0 -1.2766e-07)
(1.19415e-06 -0.00455314 -0 -1.14642e-06 -0 -4.77296e-08)
(4.43909e-07 -0.00453967 -0 -4.87381e-07 -0 4.34721e-08)
(-1.72649e-06 -0.00394852 -0 1.67807e-06 -0 4.84149e-08)
(2.66234e-07 -0.00391818 -0 -3.80509e-07 -0 1.14275e-07)
(1.22559e-06 -0.00393214 -0 -1.22626e-06 -0 6.70507e-10)
(4.94739e-07 -0.00392413 -0 -5.05049e-07 -0 1.03101e-08)
(-1.36201e-06 -0.00337992 -0 1.30922e-06 -0 5.27902e-08)
(2.82374e-07 -0.00335843 -0 -2.08888e-07 -0 -7.34857e-08)
(1.05883e-06 -0.00337342 -0 -1.07467e-06 -0 1.5847e-08)
(3.20196e-07 -0.00336987 -0 -2.52862e-07 -0 -6.73337e-08)
(-1.17238e-06 -0.00287646 -0 1.27606e-06 -0 -1.03686e-07)
(3.97603e-07 -0.00286249 -0 -4.25463e-07 -0 2.78606e-08)
(8.29004e-07 -0.0028751 -0 -8.15339e-07 -0 -1.36644e-08)
(3.19081e-07 -0.00287473 -0 -3.54203e-07 -0 3.51221e-08)
(-6.37078e-07 -0.00243411 -0 4.72192e-07 -0 1.64887e-07)
(4.3593e-07 -0.00242453 -0 -4.69226e-07 -0 3.32958e-08)
(6.91693e-07 -0.00243438 -0 -7.50291e-07 -0 5.85979e-08)
(5.04247e-08 -0.00243665 -0 5.22386e-09 -0 -5.56485e-08)
(-7.21626e-07 -0.00204568 -0 8.893e-07 -0 -1.67674e-07)
(3.4247e-07 -0.00203904 -0 -3.23163e-07 -0 -1.93069e-08)
(3.60382e-07 -0.00204865 -0 -2.84145e-07 -0 -7.62366e-08)
(-4.72309e-08 -0.00205184 -0 3.24476e-08 -0 1.47834e-08)
(-1.83796e-07 -0.00170853 -0 4.32989e-08 -0 1.40497e-07)
(2.94966e-07 -0.0017037 -0 -2.85335e-07 -0 -9.63114e-09)
(3.18577e-07 -0.00171361 -0 -4.32833e-07 -0 1.14256e-07)
(-1.87741e-07 -0.00171598 -0 2.25742e-07 -0 -3.80008e-08)
(-2.86143e-07 -0.00141831 -0 4.23555e-07 -0 -1.37412e-07)
(2.24832e-07 -0.00141304 -0 -2.56199e-07 -0 3.13663e-08)
(-9.12281e-08 -0.00142297 -0 2.07397e-07 -0 -1.16169e-07)
(-9.45684e-08 -0.00142491 -0 7.66373e-08 -0 1.79311e-08)
(1.46585e-07 -0.00116873 -0 -2.75629e-07 -0 1.29044e-07)
(2.11988e-07 -0.0011633 -0 -2.73884e-07 -0 6.18961e-08)
(-1.02185e-07 -0.00117317 -0 1.05654e-08 -0 9.16198e-08)
(-3.95653e-08 -0.00117526 -0 6.09962e-08 -0 -2.14308e-08)
(7.70613e-08 -0.000956507 -0 -1.16489e-08 -0 -6.54125e-08)
(1.95798e-08 -0.000951837 -0 6.85677e-09 -0 -2.64366e-08)
(-4.51937e-07 -0.000960445 -0 5.27831e-07 -0 -7.5894e-08)
(1.62219e-07 -0.000962271 -0 -2.26303e-07 -0 6.40838e-08)
(2.40383e-07 -0.000777188 -0 -2.40051e-07 -0 -3.32416e-10)
(9.50573e-08 -0.000772793 -0 -1.70467e-07 -0 7.54102e-08)
(-5.23041e-07 -0.000779828 -0 5.0223e-07 -0 2.08111e-08)
(9.03196e-08 -0.000781484 -0 4.73317e-09 -0 -9.50528e-08)
(4.14614e-07 -0.000627164 -0 -4.86138e-07 -0 7.15231e-08)
(-9.16097e-08 -0.000622745 -0 1.42045e-07 -0 -5.04349e-08)
(-5.94504e-07 -0.000628418 -0 5.21234e-07 -0 7.32706e-08)
(3.07269e-07 -0.000629629 -0 -3.55873e-07 -0 4.86048e-08)
(-2.4519e-07 -0.00362197 -0 3.17278e-08 -0 2.13462e-07)
(-3.52493e-07 -0.00356508 -0 5.10951e-07 -0 -1.58458e-07)
(2.72662e-07 -0.00360723 -0 -3.44996e-07 -0 7.23348e-08)
(-9.15343e-07 -0.00356033 -0 1.4272e-06 -0 -5.11861e-07)
(1.7502e-06 -0.00579526 -0 -1.19723e-06 -0 -5.52976e-07)
(5.24896e-07 -0.00575021 -0 -6.73689e-07 -0 1.48793e-07)
(3.61235e-08 -0.00579177 -0 2.77448e-07 -0 -3.13571e-07)
(1.35497e-06 -0.00576446 -0 -1.12691e-06 -0 -2.28053e-07)
(2.16937e-06 -0.00522193 -0 -2.43671e-06 -0 2.67342e-07)
(-3.41687e-07 -0.00524647 -0 6.0833e-07 -0 -2.66644e-07)
(-1.27663e-08 -0.00524194 -0 -2.45498e-07 -0 2.58265e-07)
(1.04821e-06 -0.00526858 -0 -1.40648e-06 -0 3.58265e-07)
(1.448e-06 -0.00454589 -0 -1.46033e-06 -0 1.23296e-08)
(8.80752e-10 -0.00456753 -0 -2.901e-07 -0 2.89219e-07)
(-2.94075e-07 -0.00455796 -0 2.04672e-07 -0 8.94025e-08)
(6.2628e-08 -0.00457217 -0 -4.56305e-08 -0 -1.69975e-08)
(9.86475e-07 -0.00393249 -0 -1.00077e-06 -0 1.42935e-08)
(-6.37282e-07 -0.00394943 -0 8.00629e-07 -0 -1.63348e-07)
(-4.91866e-07 -0.00393689 -0 5.61529e-07 -0 -6.96634e-08)
(-1.12079e-07 -0.00394459 -0 6.17033e-08 -0 5.03753e-08)
(5.64464e-07 -0.00337938 -0 -5.3839e-07 -0 -2.60734e-08)
(-4.8744e-07 -0.00339156 -0 5.42355e-07 -0 -5.4915e-08)
(-1.67388e-07 -0.00337799 -0 1.16056e-07 -0 5.13312e-08)
(-3.89064e-07 -0.00337965 -0 4.67264e-07 -0 -7.82001e-08)
(2.64506e-07 -0.0028835 -0 -2.81818e-07 -0 1.73116e-08)
(-2.27245e-07 -0.00289169 -0 3.11442e-08 -0 1.96101e-07)
(1.13526e-08 -0.00287988 -0 -4.38766e-08 -0 3.2524e-08)
(-2.53361e-07 -0.00288087 -0 2.76367e-07 -0 -2.30063e-08)
(2.15823e-08 -0.00244471 -0 -1.9355e-08 -0 -2.22725e-09)
(-5.68183e-07 -0.00244783 -0 8.27141e-07 -0 -2.58958e-07)
(1.86824e-07 -0.00243814 -0 -2.28587e-07 -0 4.17632e-08)
(-1.72947e-07 -0.00243997 -0 1.46411e-07 -0 2.65354e-08)
(-1.49192e-07 -0.00205628 -0 1.71498e-07 -0 -2.23061e-08)
(2.77955e-08 -0.00205674 -0 -2.5588e-07 -0 2.28084e-07)
(2.3168e-07 -0.00205061 -0 -2.19141e-07 -0 -1.25389e-08)
(-1.47509e-07 -0.00205335 -0 1.95544e-07 -0 -4.80352e-08)
(-7.2879e-08 -0.00171507 -0 4.87367e-09 -0 6.80054e-08)
(-2.86413e-07 -0.00171556 -0 4.55987e-07 -0 -1.69574e-07)
(3.8889e-07 -0.00171352 -0 -5.16924e-07 -0 1.28033e-07)
(-6.16071e-08 -0.00171583 -0 8.51962e-08 -0 -2.35891e-08)
(-2.01316e-07 -0.00141898 -0 2.88354e-07 -0 -8.70386e-08)
(-4.37338e-08 -0.0014206 -0 -5.73206e-08 -0 1.01054e-07)
(1.58198e-07 -0.00142086 -0 -7.83276e-08 -0 -7.987e-08)
(5.59411e-08 -0.00142326 -0 -4.80607e-08 -0 -7.88038e-09)
(6.2553e-08 -0.00116681 -0 -1.23313e-07 -0 6.076e-08)
(-3.24011e-07 -0.00116874 -0 4.7203e-07 -0 -1.48019e-07)
(1.76831e-07 -0.00116991 -0 -1.7919e-07 -0 2.35917e-09)
(1.03679e-07 -0.00117201 -0 -1.63323e-07 -0 5.96447e-08)
(7.10644e-08 -0.000954289 -0 -4.03433e-08 -0 -3.07211e-08)
(-1.24871e-07 -0.000955472 -0 5.38894e-09 -0 1.19482e-07)
(1.64508e-07 -0.000956225 -0 -1.97233e-07 -0 3.27244e-08)
(9.47143e-08 -0.000958511 -0 -8.92273e-08 -0 -5.48701e-09)
(2.44998e-07 -0.000774964 -0 -2.62585e-07 -0 1.75868e-08)
(-3.64551e-07 -0.000775354 -0 4.92553e-07 -0 -1.28002e-07)
(3.0446e-08 -0.00077596 -0 1.48329e-08 -0 -4.52789e-08)
(4.06493e-08 -0.000778789 -0 -4.97697e-08 -0 9.12037e-09)
(2.19865e-07 -0.000624953 -0 -1.34963e-07 -0 -8.49027e-08)
(-2.10579e-07 -0.000624607 -0 1.4726e-07 -0 6.33182e-08)
(1.56099e-07 -0.000624352 -0 -2.92283e-07 -0 1.36184e-07)
(-1.11246e-09 -0.000628189 -0 5.86327e-08 -0 -5.75203e-08)
)
;

boundaryField
{
    topWall
    {
        type            calculated;
        value           nonuniform List<symmTensor> 0();
    }
    botWall
    {
        type            calculated;
        value           nonuniform List<symmTensor> 0();
    }
    inlet
    {
        type            cyclic;
    }
    outlet
    {
        type            cyclic;
    }
    fixWall
    {
        type            empty;
    }
    procBoundary4to3
    {
        type            processor;
        value           nonuniform List<symmTensor> 8((-7.61097e-08 -0.000935898 -0 2.14925e-07 -0 -1.38815e-07) (7.09388e-07 -0.000939332 -0 -5.98406e-07 -0 -1.10982e-07) (1.76312e-07 -0.000935508 -0 -9.15032e-08 -0 -8.48088e-08) (-2.08798e-07 -0.000936032 -0 1.59531e-07 -0 4.92675e-08) (-4.54951e-07 -0.000931826 -0 3.98694e-07 -0 5.62574e-08) (-2.31923e-08 -0.000934875 -0 -7.15978e-08 -0 9.47901e-08) (1.8268e-07 -0.000934585 -0 -1.77977e-07 -0 -4.70235e-09) (-3.70036e-07 -0.000933685 -0 2.95749e-07 -0 7.42865e-08));
    }
    procBoundary4to5
    {
        type            processor;
        value           nonuniform List<symmTensor> 8((2.61931e-07 -0.000503614 -0 -1.01267e-07 -0 -1.60664e-07) (-1.29288e-07 -0.000497884 -0 2.37099e-07 -0 -1.07812e-07) (-7.78215e-07 -0.000502449 -0 7.81263e-07 -0 -3.04851e-09) (1.48146e-07 -0.000503521 -0 2.85497e-09 -0 -1.51001e-07) (5.07495e-07 -0.000500451 -0 -6.21482e-07 -0 1.13988e-07) (-1.18185e-07 -0.000499317 -0 2.41572e-08 -0 9.40276e-08) (1.09374e-07 -0.000495869 -0 -2.59685e-07 -0 1.50311e-07) (-2.57243e-07 -0.000501842 -0 4.49027e-07 -0 -1.91784e-07));
    }
}


// ************************************************************************* //
