/*--------------------------------*- C++ -*----------------------------------*\
  =========                 |
  \\      /  F ield         | OpenFOAM: The Open Source CFD Toolbox
   \\    /   O peration     | Website:  https://openfoam.org
    \\  /    A nd           | Version:  dev
     \\/     M anipulation  |

   OpenFOAM for Windows 20.09 (v1)
   Built by CFD Support, www.cfdsupport.com (based on Symscape).
\*---------------------------------------------------------------------------*/
FoamFile
{
    version     2.0;
    format      ascii;
    class       volScalarField;
    location    "4";
    object      epsilon;
}
// * * * * * * * * * * * * * * * * * * * * * * * * * * * * * * * * * * * * * //

dimensions      [0 2 -3 0 0 0 0];

internalField   nonuniform List<scalar> 
120
(
9.57744e-16
9.61735e-16
9.59732e-16
9.60268e-16
1.0752e-15
1.07869e-15
1.07678e-15
1.0772e-15
1.13044e-15
1.13105e-15
1.13021e-15
1.13015e-15
1.13127e-15
1.13021e-15
1.13035e-15
1.13024e-15
1.09422e-15
1.09244e-15
1.09323e-15
1.09335e-15
1.03376e-15
1.0318e-15
1.03294e-15
1.03335e-15
9.61122e-16
9.59216e-16
9.60486e-16
9.6113e-16
8.84269e-16
8.82502e-16
8.83747e-16
8.84558e-16
8.08447e-16
8.0683e-16
8.07987e-16
8.08873e-16
7.36857e-16
7.35372e-16
7.36398e-16
7.37285e-16
6.712e-16
6.6982e-16
6.7069e-16
6.71542e-16
6.12169e-16
6.10879e-16
6.11576e-16
6.12368e-16
5.60271e-16
5.59078e-16
5.59596e-16
5.60303e-16
5.15525e-16
5.14416e-16
5.14845e-16
5.15369e-16
4.77514e-16
4.76457e-16
4.76808e-16
4.77168e-16
9.58995e-16
9.57171e-16
9.59742e-16
9.57608e-16
1.07597e-15
1.07425e-15
1.07686e-15
1.07503e-15
1.12963e-15
1.1292e-15
1.13076e-15
1.13006e-15
1.1304e-15
1.13068e-15
1.13127e-15
1.13105e-15
1.09395e-15
1.09445e-15
1.09439e-15
1.09431e-15
1.03417e-15
1.03458e-15
1.03419e-15
1.03408e-15
9.6197e-16
9.62156e-16
9.61696e-16
9.61564e-16
8.85277e-16
8.85223e-16
8.84837e-16
8.84738e-16
8.09378e-16
8.09178e-16
8.08938e-16
8.08841e-16
7.37581e-16
7.37286e-16
7.37223e-16
7.37085e-16
6.71681e-16
6.71319e-16
6.71418e-16
6.71206e-16
6.12451e-16
6.12008e-16
6.12252e-16
6.11928e-16
5.60413e-16
5.59882e-16
5.60246e-16
5.59762e-16
5.15563e-16
5.14937e-16
5.15416e-16
5.14739e-16
4.77476e-16
4.76747e-16
4.77346e-16
4.76629e-16
)
;

boundaryField
{
    topWall
    {
        type            epsilonWallFunction;
        value           nonuniform List<scalar> 0();
    }
    botWall
    {
        type            epsilonWallFunction;
        value           nonuniform List<scalar> 0();
    }
    inlet
    {
        type            cyclic;
    }
    outlet
    {
        type            cyclic;
    }
    fixWall
    {
        type            empty;
    }
    procBoundary4to3
    {
        type            processor;
        value           nonuniform List<scalar> 8(8.31032e-16 8.33757e-16 8.32165e-16 8.32461e-16 8.31499e-16 8.30355e-16 8.32323e-16 8.30789e-16);
    }
    procBoundary4to5
    {
        type            processor;
        value           nonuniform List<scalar> 8(4.45299e-16 4.44279e-16 4.44579e-16 4.44792e-16 4.4524e-16 4.44393e-16 4.45119e-16 4.44319e-16);
    }
}


// ************************************************************************* //
