/*--------------------------------*- C++ -*----------------------------------*\
  =========                 |
  \\      /  F ield         | OpenFOAM: The Open Source CFD Toolbox
   \\    /   O peration     | Website:  https://openfoam.org
    \\  /    A nd           | Version:  dev
     \\/     M anipulation  |

   OpenFOAM for Windows 20.09 (v1)
   Built by CFD Support, www.cfdsupport.com (based on Symscape).
\*---------------------------------------------------------------------------*/
FoamFile
{
    version     2.0;
    format      ascii;
    class       volVectorField;
    location    "4";
    object      gradp_rgh;
}
// * * * * * * * * * * * * * * * * * * * * * * * * * * * * * * * * * * * * * //

dimensions      [1 -2 -2 0 0 0 0];

internalField   nonuniform List<vector> 
120
(
(-1.66677 -2622.34 0)
(-1.63371 -2605.56 0)
(-1.23189 -2608.91 0)
(-1.28487 -2602.02 0)
(-1.24842 -58.3429 0)
(-1.24485 -27.2788 0)
(-1.2434 -35.0384 0)
(-1.24735 -27.9461 0)
(-1.2491 0.00517996 0)
(-1.2453 -0.0431066 0)
(-1.24301 -0.0301319 0)
(-1.24716 -0.0240472 0)
(-1.2491 0.0162347 0)
(-1.24544 0.00830155 0)
(-1.24308 0.000998959 0)
(-1.24717 0.000932529 0)
(-1.24911 0.0149919 0)
(-1.24556 0.00800758 0)
(-1.24314 0.000872098 0)
(-1.24718 0.0010599 0)
(-1.24911 0.0145859 0)
(-1.24567 0.00776002 0)
(-1.24319 0.000964873 0)
(-1.24718 0.00103561 0)
(-1.24911 0.0142054 0)
(-1.24579 0.00734055 0)
(-1.24325 0.001129 0)
(-1.24719 0.00100266 0)
(-1.24911 0.0142283 0)
(-1.24589 0.00720375 0)
(-1.2433 0.00142489 0)
(-1.24719 0.0010028 0)
(-1.24911 0.0142146 0)
(-1.246 0.0070313 0)
(-1.24335 0.00159653 0)
(-1.2472 0.000988938 0)
(-1.24911 0.014181 0)
(-1.2461 0.00685181 0)
(-1.2434 0.00185025 0)
(-1.2472 0.001069 0)
(-1.24911 0.014306 0)
(-1.2462 0.00701068 0)
(-1.24345 0.00198509 0)
(-1.24721 0.0012123 0)
(-1.24911 0.014541 0)
(-1.24631 0.00748624 0)
(-1.2435 0.00209376 0)
(-1.24722 0.00136921 0)
(-1.24911 0.0149217 0)
(-1.24641 0.00774039 0)
(-1.24355 0.00243872 0)
(-1.24723 0.00137103 0)
(-1.2491 0.0149384 0)
(-1.24651 0.0076551 0)
(-1.2436 0.00298948 0)
(-1.24725 0.000700786 0)
(-1.24909 0.0150315 0)
(-1.24661 0.00701382 0)
(-1.24367 0.00424106 0)
(-1.24728 -0.000614599 0)
(-0.923014 -2608.85 0)
(-1.15588 -2597.24 0)
(-1.17833 -2610.11 0)
(-0.925537 -2623.56 0)
(-1.25447 -32.7762 0)
(-1.25776 -47.8164 0)
(-1.25372 -38.8858 0)
(-1.25004 -52.3387 0)
(-1.25419 -0.0192999 0)
(-1.25771 -0.00657192 0)
(-1.2537 -0.0153746 0)
(-1.24982 -0.00199796 0)
(-1.25418 0.000119981 0)
(-1.25769 0.00256994 0)
(-1.25364 0.00240127 0)
(-1.2497 0.00854176 0)
(-1.25416 0.000243612 0)
(-1.25767 0.00269596 0)
(-1.2536 0.00226561 0)
(-1.24959 0.0083952 0)
(-1.25415 0.000414874 0)
(-1.25766 0.00222485 0)
(-1.25355 0.00204423 0)
(-1.24948 0.00808693 0)
(-1.25414 0.000595836 0)
(-1.25765 0.00253977 0)
(-1.2535 0.00213404 0)
(-1.24938 0.00756586 0)
(-1.25412 0.000827463 0)
(-1.25763 0.002493 0)
(-1.25347 0.0022942 0)
(-1.24928 0.00733677 0)
(-1.25411 0.000972591 0)
(-1.25762 0.00242139 0)
(-1.25342 0.00235544 0)
(-1.24918 0.00714196 0)
(-1.2541 0.00118853 0)
(-1.25761 0.00243184 0)
(-1.25339 0.00248371 0)
(-1.24909 0.0069084 0)
(-1.25409 0.001122 0)
(-1.2576 0.0019746 0)
(-1.25335 0.00221097 0)
(-1.24899 0.00693586 0)
(-1.25409 0.000889176 0)
(-1.25759 0.0014253 0)
(-1.2533 0.00156271 0)
(-1.24888 0.00722873 0)
(-1.25409 0.000654755 0)
(-1.25759 0.000988468 0)
(-1.25325 0.00148104 0)
(-1.24877 0.00718872 0)
(-1.25409 0.000178017 0)
(-1.25758 0.000741595 0)
(-1.2532 0.0020866 0)
(-1.24866 0.00619904 0)
(-1.25409 -0.000469761 0)
(-1.25756 0.000609862 0)
(-1.25316 0.00385774 0)
(-1.24856 0.00402104 0)
)
;

boundaryField
{
    topWall
    {
        type            extrapolatedCalculated;
        value           nonuniform List<vector> 0();
    }
    botWall
    {
        type            extrapolatedCalculated;
        value           nonuniform List<vector> 0();
    }
    inlet
    {
        type            cyclic;
    }
    outlet
    {
        type            cyclic;
    }
    fixWall
    {
        type            empty;
    }
    procBoundary4to3
    {
        type            processor;
        value           nonuniform List<vector> 8((-1.54854 -2590.82 0) (-1.46867 -2621.03 0) (-1.30239 -2613.5 0) (-1.24838 -2620.39 0) (-1.33413 -2615.76 0) (-1.2367 -2600.76 0) (-0.814945 -2609.72 0) (-1.04625 -2596.78 0));
    }
    procBoundary4to5
    {
        type            processor;
        value           nonuniform List<vector> 8((-1.24905 0.0146073 0) (-1.24669 0.00569374 0) (-1.24373 0.00561602 0) (-1.24732 -0.00236422 0) (-1.25407 -0.000915497 0) (-1.25751 0.00098768 0) (-1.25314 0.00650356 0) (-1.24847 0.000829151 0));
    }
}


// ************************************************************************* //
