/*--------------------------------*- C++ -*----------------------------------*\
  =========                 |
  \\      /  F ield         | OpenFOAM: The Open Source CFD Toolbox
   \\    /   O peration     | Website:  https://openfoam.org
    \\  /    A nd           | Version:  dev
     \\/     M anipulation  |

   OpenFOAM for Windows 20.09 (v1)
   Built by CFD Support, www.cfdsupport.com (based on Symscape).
\*---------------------------------------------------------------------------*/
FoamFile
{
    version     2.0;
    format      ascii;
    class       volVectorField;
    location    "4";
    object      gradp;
}
// * * * * * * * * * * * * * * * * * * * * * * * * * * * * * * * * * * * * * //

dimensions      [1 -2 -2 0 0 0 0];

internalField   nonuniform List<vector> 
120
(
(3.74755 -32.653 0)
(-1.24821 -31.8984 0)
(-1.24282 -32.0757 0)
(-1.24749 -31.9225 0)
(3.75091 -10.2702 0)
(-1.24517 -10.0261 0)
(-1.24296 -10.0959 0)
(-1.24716 -10.0378 0)
(3.7509 -9.7933 0)
(-1.2453 -9.80168 0)
(-1.24301 -9.80917 0)
(-1.24716 -9.80884 0)
(3.7509 -9.79368 0)
(-1.24544 -9.80154 0)
(-1.24308 -9.8089 0)
(-1.24717 -9.80898 0)
(3.75089 -9.79501 0)
(-1.24556 -9.80199 0)
(-1.24314 -9.80913 0)
(-1.24718 -9.80894 0)
(3.75089 -9.79541 0)
(-1.24567 -9.80224 0)
(-1.24319 -9.80904 0)
(-1.24718 -9.80896 0)
(3.75089 -9.79579 0)
(-1.24579 -9.80266 0)
(-1.24325 -9.80887 0)
(-1.24719 -9.809 0)
(3.75089 -9.79577 0)
(-1.24589 -9.8028 0)
(-1.2433 -9.80858 0)
(-1.24719 -9.809 0)
(3.75089 -9.79579 0)
(-1.246 -9.80297 0)
(-1.24335 -9.8084 0)
(-1.2472 -9.80901 0)
(3.75089 -9.79582 0)
(-1.2461 -9.80315 0)
(-1.2434 -9.80815 0)
(-1.2472 -9.80893 0)
(3.75089 -9.79569 0)
(-1.2462 -9.80299 0)
(-1.24345 -9.80801 0)
(-1.24721 -9.80879 0)
(3.75089 -9.79546 0)
(-1.24631 -9.80251 0)
(-1.2435 -9.80791 0)
(-1.24722 -9.80863 0)
(3.75089 -9.79508 0)
(-1.24641 -9.80226 0)
(-1.24355 -9.80756 0)
(-1.24723 -9.80863 0)
(3.7509 -9.79506 0)
(-1.24651 -9.80234 0)
(-1.2436 -9.80701 0)
(-1.24725 -9.8093 0)
(3.75091 -9.79497 0)
(-1.24661 -9.80299 0)
(-1.24367 -9.80576 0)
(-1.24728 -9.81061 0)
(-1.2515 -32.0654 0)
(-1.2569 -32.2056 0)
(-1.25323 -32.1549 0)
(3.7526 -32.5878 0)
(-1.2542 -10.0761 0)
(-1.25773 -10.1987 0)
(-1.25375 -10.125 0)
(3.75006 -10.2269 0)
(-1.25418 -9.80975 0)
(-1.25771 -9.80711 0)
(-1.2537 -9.80784 0)
(3.75018 -9.80085 0)
(-1.25418 -9.80979 0)
(-1.25769 -9.80739 0)
(-1.25364 -9.80756 0)
(3.7503 -9.80146 0)
(-1.25416 -9.80976 0)
(-1.25767 -9.8073 0)
(-1.2536 -9.80773 0)
(3.75041 -9.8016 0)
(-1.25415 -9.80959 0)
(-1.25766 -9.80778 0)
(-1.25355 -9.80796 0)
(3.75052 -9.80191 0)
(-1.25414 -9.8094 0)
(-1.25765 -9.80746 0)
(-1.2535 -9.80787 0)
(3.75062 -9.80243 0)
(-1.25412 -9.80917 0)
(-1.25763 -9.80751 0)
(-1.25347 -9.80771 0)
(3.75072 -9.80266 0)
(-1.25411 -9.80903 0)
(-1.25762 -9.80758 0)
(-1.25342 -9.80764 0)
(3.75082 -9.80286 0)
(-1.2541 -9.80881 0)
(-1.25761 -9.80757 0)
(-1.25339 -9.80752 0)
(3.75091 -9.80309 0)
(-1.25409 -9.80888 0)
(-1.2576 -9.80803 0)
(-1.25335 -9.80779 0)
(3.75101 -9.80306 0)
(-1.25409 -9.80911 0)
(-1.25759 -9.80857 0)
(-1.2533 -9.80844 0)
(3.75112 -9.80277 0)
(-1.25409 -9.80935 0)
(-1.25759 -9.80901 0)
(-1.25325 -9.80852 0)
(3.75123 -9.80281 0)
(-1.25409 -9.80982 0)
(-1.25758 -9.80926 0)
(-1.2532 -9.80791 0)
(3.75134 -9.8038 0)
(-1.25409 -9.81047 0)
(-1.25756 -9.80939 0)
(-1.25316 -9.80614 0)
(3.75144 -9.80598 0)
)
;

boundaryField
{
    topWall
    {
        type            extrapolatedCalculated;
        value           nonuniform List<vector> 0();
    }
    botWall
    {
        type            extrapolatedCalculated;
        value           nonuniform List<vector> 0();
    }
    inlet
    {
        type            cyclic;
    }
    outlet
    {
        type            cyclic;
    }
    fixWall
    {
        type            empty;
    }
    procBoundary4to3
    {
        type            processor;
        value           nonuniform List<vector> 8((3.73942 -76.0306 0) (-1.2548 -75.428 0) (-1.24256 -75.5952 0) (-1.24733 -75.4431 0) (-1.24949 -75.6057 0) (-1.25623 -75.5221 0) (-1.24738 -75.6475 0) (3.75836 -76.0542 0));
    }
    procBoundary4to5
    {
        type            processor;
        value           nonuniform List<vector> 8((3.75095 -9.79539 0) (-1.24669 -9.80431 0) (-1.24373 -9.80438 0) (-1.24732 -9.81236 0) (-1.25407 -9.81092 0) (-1.25751 -9.80901 0) (-1.25314 -9.8035 0) (3.75153 -9.80917 0));
    }
}


// ************************************************************************* //
