/*--------------------------------*- C++ -*----------------------------------*\
  =========                 |
  \\      /  F ield         | OpenFOAM: The Open Source CFD Toolbox
   \\    /   O peration     | Website:  https://openfoam.org
    \\  /    A nd           | Version:  dev
     \\/     M anipulation  |

   OpenFOAM for Windows 20.09 (v1)
   Built by CFD Support, www.cfdsupport.com (based on Symscape).
\*---------------------------------------------------------------------------*/
FoamFile
{
    version     2.0;
    format      ascii;
    class       volTensorField;
    location    "4";
    object      gradU;
}
// * * * * * * * * * * * * * * * * * * * * * * * * * * * * * * * * * * * * * //

dimensions      [0 0 -1 0 0 0 0];

internalField   nonuniform List<tensor> 
120
(
(0.000241201 -0.000125333 0 18.7957 -0.00742868 0 0 0 0)
(-0.00204682 -0.000249 0 19.4291 -0.00268813 0 0 0 0)
(-0.000925761 -2.57823e-06 0 19.2118 0.00206895 0 0 0 0)
(0.000463397 -7.18786e-05 0 19.3426 -0.00190039 0 0 0 0)
(0.0091645 -9.52449e-05 0 30.5223 -0.00869806 0 0 0 0)
(0.0047607 -0.000126155 0 30.9834 -0.000637368 0 0 0 0)
(-0.00213438 8.8562e-06 0 30.7817 0.000423435 0 0 0 0)
(0.000430976 -9.51904e-05 0 30.8516 0.000974932 0 0 0 0)
(0.00744476 -0.000175656 0 28.021 -0.00181534 0 0 0 0)
(0.0022766 -9.69752e-05 0 27.738 -0.00166021 0 0 0 0)
(-0.00312262 2.42934e-05 0 27.7659 0.0045162 0 0 0 0)
(-0.000647111 -5.04815e-05 0 27.6686 -0.000389577 0 0 0 0)
(0.00607931 -0.000200858 0 24.2924 -0.00822347 0 0 0 0)
(0.000508068 -2.06296e-05 0 24.0677 -0.00152297 0 0 0 0)
(-0.00329099 3.00334e-05 0 24.1316 0.00291154 0 0 0 0)
(-0.00106116 -5.10314e-05 0 24.0603 0.00140676 0 0 0 0)
(0.00470349 -0.000202303 0 20.9273 -0.00431859 0 0 0 0)
(-0.000402692 8.86083e-05 0 20.7663 0.00131118 0 0 0 0)
(-0.00324605 7.31222e-05 0 20.8403 0.00325138 0 0 0 0)
(-0.00128374 -3.39646e-05 0 20.7979 0.0013657 0 0 0 0)
(0.00374921 -0.000178504 0 17.9137 -0.00332953 0 0 0 0)
(-0.000943028 0.000105537 0 17.7996 0.000358817 0 0 0 0)
(-0.0027639 3.09421e-05 0 17.8791 0.00288988 0 0 0 0)
(-0.00102695 -6.03892e-05 0 17.8603 0.000491651 0 0 0 0)
(0.00283203 -0.000172231 0 15.2454 -0.00365634 0 0 0 0)
(-0.000979816 0.000192265 0 15.171 0.00120131 0 0 0 0)
(-0.00223307 7.53361e-05 0 15.238 0.00212444 0 0 0 0)
(-0.000752491 -5.95019e-05 0 15.2362 0.00103171 0 0 0 0)
(0.00212521 -0.00014526 0 12.9009 -0.000814358 0 0 0 0)
(-0.00106698 0.000201883 0 12.8498 0.00133168 0 0 0 0)
(-0.0016777 2.81155e-05 0 12.9022 0.00214356 0 0 0 0)
(-0.000281094 -8.25849e-05 0 12.9144 -0.000161312 0 0 0 0)
(0.00146797 -0.000144742 0 10.8422 -0.00280098 0 0 0 0)
(-0.000958709 0.000241564 0 10.8067 0.000805219 0 0 0 0)
(-0.00115704 5.04529e-05 0 10.8578 0.000550959 0 0 0 0)
(0.000164338 -9.44713e-05 0 10.8748 -4.68102e-05 0 0 0 0)
(0.000859378 -0.000121082 0 9.05533 0.000257576 0 0 0 0)
(-0.000807184 0.000257749 0 9.02933 0.000730616 0 0 0 0)
(-0.00054145 1.3915e-05 0 9.08209 0.00144979 0 0 0 0)
(0.000396812 -0.000100327 0 9.09479 -0.000698918 0 0 0 0)
(0.000394138 -0.000127761 0 7.51716 -0.00148656 0 0 0 0)
(-0.000512685 0.000261434 0 7.48883 0.000762047 0 0 0 0)
(-6.60927e-05 2.66273e-05 0 7.54173 -0.000857449 0 0 0 0)
(0.000298124 -0.000115846 0 7.55213 -0.000155572 0 0 0 0)
(-4.64823e-05 -0.000110156 0 6.19437 0.00107238 0 0 0 0)
(-0.000397744 0.000268234 0 6.16522 0.000889818 0 0 0 0)
(0.000513583 -1.37862e-06 0 6.21781 0.000214794 0 0 0 0)
(4.80564e-05 -0.000102616 0 6.22898 -0.000218432 0 0 0 0)
(-0.000377556 -0.000122778 0 5.06961 -0.000142473 0 0 0 0)
(-0.000121943 0.000247141 0 5.04449 -8.82274e-05 0 0 0 0)
(0.000996514 8.1565e-06 0 5.09035 -0.00159987 0 0 0 0)
(-0.000260058 -0.000111296 0 5.10015 0.000769524 0 0 0 0)
(-0.000637897 -0.000115325 0 4.11921 0.000635254 0 0 0 0)
(-5.20648e-05 0.000243944 0 4.09556 0.000651576 0 0 0 0)
(0.00144121 1.29172e-05 0 4.13307 -0.00127576 0 0 0 0)
(-0.000491237 -7.55268e-05 0 4.14194 -0.000264433 0 0 0 0)
(-0.000909192 -0.000114519 0 3.32408 0.0014778 0 0 0 0)
(0.000109113 0.000215291 0 3.30033 -0.000510071 0 0 0 0)
(0.0017696 -7.11031e-06 0 3.33062 -0.0011871 0 0 0 0)
(-0.000685459 -7.76592e-05 0 3.33711 0.00107187 0 0 0 0)
(0.00121543 -0.000159057 0 19.1966 0.000481595 0 0 0 0)
(0.000514193 -0.000157723 0 18.8951 -0.00177393 0 0 0 0)
(-0.000530866 0.000286968 0 19.118 0.00110593 0 0 0 0)
(0.00106923 0.000478602 0 18.8693 -0.00513852 0 0 0 0)
(-0.00610343 -0.000157024 0 30.715 0.00170727 0 0 0 0)
(-0.000996673 -0.000156613 0 30.4763 0.00217958 0 0 0 0)
(-0.00092669 0.000243412 0 30.6961 -0.0015662 0 0 0 0)
(-0.004195 0.000377959 0 30.5512 0.00238197 0 0 0 0)
(-0.00504037 -0.000138979 0 27.6764 0.00716574 0 0 0 0)
(0.000198864 -0.000212281 0 27.8065 -0.00231868 0 0 0 0)
(0.000718232 0.000290342 0 27.782 0.00133497 0 0 0 0)
(-0.00182835 0.000359737 0 27.9231 0.00467656 0 0 0 0)
(-0.00380453 -0.000189175 0 24.0934 0.00390255 0 0 0 0)
(0.000764097 -0.000253793 0 24.2082 0.0015352 0 0 0 0)
(0.00101621 0.00036 0 24.1568 -0.000305465 0 0 0 0)
(-0.000211007 0.000325454 0 24.2322 7.58775e-05 0 0 0 0)
(-0.00257628 -0.000136839 0 20.8423 0.00268991 0 0 0 0)
(0.00125593 -0.000282414 0 20.9323 -0.00255454 0 0 0 0)
(0.00111884 0.00026602 0 20.8652 -0.00167266 0 0 0 0)
(0.000430503 0.000227771 0 20.9061 -3.00192e-05 0 0 0 0)
(-0.00156492 -0.000254513 0 17.911 0.00135764 0 0 0 0)
(0.00114619 -0.000326502 0 17.9756 -0.00158277 0 0 0 0)
(0.000579605 0.000402075 0 17.9029 -0.000171522 0 0 0 0)
(0.00082379 0.000281355 0 17.9119 -0.00144548 0 0 0 0)
(-0.000655066 -0.000171412 0 15.2827 0.000792693 0 0 0 0)
(0.00112187 -0.0003079 0 15.3263 0.000437136 0 0 0 0)
(5.61042e-05 0.000268308 0 15.2631 0.000202462 0 0 0 0)
(0.000610439 0.000175137 0 15.2684 -0.000793339 0 0 0 0)
(-6.30953e-05 -0.000264422 0 12.9572 4.53886e-05 0 0 0 0)
(0.000819447 -0.00033634 0 12.9738 -0.00287816 0 0 0 0)
(-0.00038441 0.000381567 0 12.9217 0.000716428 0 0 0 0)
(0.000528628 0.000217042 0 12.9316 -0.000317672 0 0 0 0)
(0.000336249 -0.000216693 0 10.8985 -0.000513582 0 0 0 0)
(0.000530766 -0.000296716 0 10.901 0.00128251 0 0 0 0)
(-0.00064718 0.000310983 0 10.8679 0.000547496 0 0 0 0)
(0.000263605 0.000149624 0 10.8826 -0.000645485 0 0 0 0)
(0.000373344 -0.000242267 0 9.09012 0.000167299 0 0 0 0)
(0.000309624 -0.000318655 0 9.09279 -0.00165773 0 0 0 0)
(-0.000691272 0.000349434 0 9.0813 0.00170914 0 0 0 0)
(0.000100748 0.000161234 0 9.09376 -0.000288281 0 0 0 0)
(0.000302834 -0.000232674 0 7.5208 -0.000994791 0 0 0 0)
(0.000383689 -0.000271019 0 7.52944 0.000419694 0 0 0 0)
(-0.000630879 0.000333807 0 7.53021 -4.08742e-06 0 0 0 0)
(-0.000169127 0.000125431 0 7.54318 0.000106478 0 0 0 0)
(-4.75149e-06 -0.000232679 0 6.18432 0.000487794 0 0 0 0)
(0.000466377 -0.000302143 0 6.19463 -0.00164313 0 0 0 0)
(-0.00046235 0.000344214 0 6.20015 0.000481105 0 0 0 0)
(-0.00011669 0.000136526 0 6.21153 0.000590865 0 0 0 0)
(-0.000269732 -0.000256419 0 5.05799 2.5499e-05 0 0 0 0)
(0.000647535 -0.000271131 0 5.06427 0.000302346 0 0 0 0)
(-0.000349227 0.00037104 0 5.06762 0.000609386 0 0 0 0)
(-0.000265533 0.000135286 0 5.07997 0.000221912 0 0 0 0)
(-0.000602639 -0.000240466 0 4.10755 0.000742454 0 0 0 0)
(0.000626854 -0.000292412 0 4.10967 -0.00164447 0 0 0 0)
(-0.000200671 0.000342873 0 4.11225 -0.000159296 0 0 0 0)
(-8.35518e-05 0.000123995 0 4.12746 0.000156059 0 0 0 0)
(-0.000807635 -0.000279419 0 3.31253 0.000132659 0 0 0 0)
(0.000725827 -0.00028616 0 3.3107 -0.000222447 0 0 0 0)
(-5.27759e-05 0.000401049 0 3.30866 0.00113544 0 0 0 0)
(-0.000149481 0.000148528 0 3.32925 -0.000307805 0 0 0 0)
)
;

boundaryField
{
    topWall
    {
        type            extrapolatedCalculated;
        value           nonuniform List<tensor> 0();
    }
    botWall
    {
        type            extrapolatedCalculated;
        value           nonuniform List<tensor> 0();
    }
    inlet
    {
        type            cyclic;
    }
    outlet
    {
        type            cyclic;
    }
    fixWall
    {
        type            empty;
    }
    procBoundary4to3
    {
        type            processor;
        value           nonuniform List<tensor> 8((-0.000166169 -0.000136085 0 4.96039 -0.000937411 0 0 0 0) (-0.00217398 -0.000284449 0 4.97875 0.00129167 0 0 0 0) (-0.00069197 -4.27287e-06 0 4.9582 1.77401e-05 0 0 0 0) (0.000683875 -6.87346e-05 0 4.96104 -0.000292198 0 0 0 0) (0.0013547 -0.000159131 0 4.93884 -0.000907456 0 0 0 0) (0.000312653 -0.000167019 0 4.95501 0.000440928 0 0 0 0) (-0.000496563 0.000299489 0 4.953 0.000459179 0 0 0 0) (0.00117745 0.000520203 0 4.94801 -0.000586876 0 0 0 0));
    }
    procBoundary4to5
    {
        type            processor;
        value           nonuniform List<tensor> 8((-0.00111988 -0.000118696 0 2.66927 -0.000157403 0 0 0 0) (5.69107e-05 0.000199529 0 2.63859 -0.000914015 0 0 0 0) (0.00205419 3.92829e-05 0 2.66294 -0.00207843 0 0 0 0) (-0.000792739 -5.35308e-05 0 2.66872 -0.000407718 0 0 0 0) (-0.00104279 -0.000262037 0 2.65265 0.00194899 0 0 0 0) (0.000562363 -0.000275699 0 2.64666 0.000185157 0 0 0 0) (0.000108482 0.000341451 0 2.62777 0.00108649 0 0 0 0) (0.000173465 0.000129701 0 2.65963 -0.00169815 0 0 0 0));
    }
}


// ************************************************************************* //
