/*--------------------------------*- C++ -*----------------------------------*\
  =========                 |
  \\      /  F ield         | OpenFOAM: The Open Source CFD Toolbox
   \\    /   O peration     | Website:  https://openfoam.org
    \\  /    A nd           | Version:  dev
     \\/     M anipulation  |

   OpenFOAM for Windows 20.09 (v1)
   Built by CFD Support, www.cfdsupport.com (based on Symscape).
\*---------------------------------------------------------------------------*/
FoamFile
{
    version     2.0;
    format      ascii;
    class       volScalarField;
    location    "4";
    object      k;
}
// * * * * * * * * * * * * * * * * * * * * * * * * * * * * * * * * * * * * * //

dimensions      [0 2 -2 0 0 0 0];

internalField   nonuniform List<scalar> 
120
(
3.87931e-16
3.88746e-16
3.88632e-16
3.88884e-16
4.10397e-16
4.11008e-16
4.10916e-16
4.11137e-16
4.23124e-16
4.23283e-16
4.2328e-16
4.23431e-16
4.27065e-16
4.26896e-16
4.27009e-16
4.27128e-16
4.2402e-16
4.23641e-16
4.23861e-16
4.23979e-16
4.15632e-16
4.15128e-16
4.15429e-16
4.15565e-16
4.03298e-16
4.02734e-16
4.03082e-16
4.03247e-16
3.88183e-16
3.87598e-16
3.87966e-16
3.8816e-16
3.71238e-16
3.70652e-16
3.71024e-16
3.71243e-16
3.53233e-16
3.52659e-16
3.53019e-16
3.53258e-16
3.34781e-16
3.34221e-16
3.34557e-16
3.34813e-16
3.16355e-16
3.15814e-16
3.16116e-16
3.16386e-16
2.98563e-16
2.98049e-16
2.98309e-16
2.98572e-16
2.81866e-16
2.81378e-16
2.81644e-16
2.81835e-16
2.66529e-16
2.66064e-16
2.66328e-16
2.6645e-16
3.88598e-16
3.88049e-16
3.88564e-16
3.88065e-16
4.10862e-16
4.1037e-16
4.10886e-16
4.10492e-16
4.23217e-16
4.22902e-16
4.23331e-16
4.23144e-16
4.26989e-16
4.26804e-16
4.27137e-16
4.27044e-16
4.23912e-16
4.23809e-16
4.24056e-16
4.23996e-16
4.1556e-16
4.15498e-16
4.1568e-16
4.15619e-16
4.03289e-16
4.03238e-16
4.03379e-16
4.03309e-16
3.88235e-16
3.88174e-16
3.88295e-16
3.88209e-16
3.71331e-16
3.71251e-16
3.71373e-16
3.71266e-16
3.53345e-16
3.5324e-16
3.53381e-16
3.5324e-16
3.34896e-16
3.34763e-16
3.34932e-16
3.34745e-16
3.16473e-16
3.16304e-16
3.16507e-16
3.16261e-16
2.98689e-16
2.98474e-16
2.98714e-16
2.9839e-16
2.82004e-16
2.81736e-16
2.8202e-16
2.81597e-16
2.66684e-16
2.66352e-16
2.6669e-16
2.6625e-16
)
;

boundaryField
{
    topWall
    {
        type            kqRWallFunction;
        value           nonuniform List<scalar> 0();
    }
    botWall
    {
        type            kqRWallFunction;
        value           nonuniform List<scalar> 0();
    }
    inlet
    {
        type            cyclic;
    }
    outlet
    {
        type            cyclic;
    }
    fixWall
    {
        type            empty;
    }
    procBoundary4to3
    {
        type            processor;
        value           nonuniform List<scalar> 8(3.61256e-16 3.61987e-16 3.61894e-16 3.62118e-16 3.61856e-16 3.61381e-16 3.61828e-16 3.61388e-16);
    }
    procBoundary4to5
    {
        type            processor;
        value           nonuniform List<scalar> 8(2.52689e-16 2.52235e-16 2.52496e-16 2.5255e-16 2.52862e-16 2.52455e-16 2.52863e-16 2.52376e-16);
    }
}


// ************************************************************************* //
