/*--------------------------------*- C++ -*----------------------------------*\
  =========                 |
  \\      /  F ield         | OpenFOAM: The Open Source CFD Toolbox
   \\    /   O peration     | Website:  https://openfoam.org
    \\  /    A nd           | Version:  dev
     \\/     M anipulation  |

   OpenFOAM for Windows 20.09 (v1)
   Built by CFD Support, www.cfdsupport.com (based on Symscape).
\*---------------------------------------------------------------------------*/
FoamFile
{
    version     2.0;
    format      ascii;
    class       volScalarField;
    location    "4";
    object      nut;
}
// * * * * * * * * * * * * * * * * * * * * * * * * * * * * * * * * * * * * * //

dimensions      [0 2 -1 0 0 0 0];

internalField   nonuniform List<scalar> 
120
(
6.64313e-18
6.44345e-18
6.51069e-18
6.4705e-18
4.36012e-18
4.30372e-18
4.32861e-18
4.32078e-18
4.87016e-18
4.92174e-18
4.91588e-18
4.93428e-18
5.60194e-18
5.65129e-18
5.6378e-18
5.6557e-18
6.38013e-18
6.4232e-18
6.40397e-18
6.4188e-18
7.24545e-18
7.28266e-18
7.25575e-18
7.26592e-18
8.22376e-18
8.25222e-18
8.22323e-18
8.22776e-18
9.336e-18
9.35872e-18
9.32974e-18
9.32578e-18
1.06169e-17
1.06346e-17
1.05953e-17
1.05852e-17
1.20933e-17
1.21079e-17
1.20501e-17
1.20416e-17
1.38063e-17
1.38347e-17
1.37519e-17
1.37437e-17
1.47137e-17
1.46944e-17
1.47057e-17
1.47118e-17
1.43191e-17
1.43003e-17
1.4312e-17
1.43192e-17
1.38701e-17
1.38519e-17
1.38665e-17
1.38713e-17
1.33889e-17
1.33718e-17
1.33885e-17
1.33906e-17
6.51378e-18
6.60776e-18
6.54189e-18
6.61815e-18
4.33645e-18
4.36484e-18
4.34067e-18
4.35616e-18
4.93076e-18
4.90477e-18
4.91426e-18
4.88678e-18
5.64701e-18
5.61876e-18
5.63432e-18
5.61539e-18
6.40499e-18
6.37657e-18
6.39982e-18
6.38635e-18
7.24592e-18
7.21906e-18
7.25069e-18
7.24605e-18
8.20385e-18
8.17963e-18
8.21576e-18
8.21154e-18
9.29692e-18
9.28359e-18
9.32331e-18
9.31426e-18
1.05648e-17
1.05602e-17
1.05952e-17
1.0578e-17
1.2051e-17
1.2044e-17
1.20631e-17
1.2042e-17
1.38046e-17
1.37833e-17
1.37878e-17
1.37568e-17
1.47178e-17
1.47128e-17
1.47258e-17
1.47107e-17
1.43275e-17
1.43206e-17
1.43343e-17
1.43155e-17
1.38826e-17
1.38731e-17
1.38881e-17
1.38647e-17
1.34056e-17
1.33926e-17
1.34098e-17
1.33857e-17
)
;

boundaryField
{
    topWall
    {
        type            nutkWallFunction;
        Cmu             0.09;
        kappa           0.41;
        E               9.8;
        value           nonuniform List<scalar> 0();
    }
    botWall
    {
        type            nutkWallFunction;
        Cmu             0.09;
        kappa           0.41;
        E               9.8;
        value           nonuniform List<scalar> 0();
    }
    inlet
    {
        type            cyclic;
    }
    outlet
    {
        type            cyclic;
    }
    fixWall
    {
        type            empty;
    }
    procBoundary4to3
    {
        type            processor;
        value           nonuniform List<scalar> 8(1.41337e-17 1.41446e-17 1.41643e-17 1.41768e-17 1.41727e-17 1.4155e-17 1.41564e-17 1.41482e-17);
    }
    procBoundary4to5
    {
        type            processor;
        value           nonuniform List<scalar> 8(1.29052e-17 1.28884e-17 1.29063e-17 1.29056e-17 1.29246e-17 1.29075e-17 1.29282e-17 1.29017e-17);
    }
}


// ************************************************************************* //
