/*--------------------------------*- C++ -*----------------------------------*\
  =========                 |
  \\      /  F ield         | OpenFOAM: The Open Source CFD Toolbox
   \\    /   O peration     | Website:  https://openfoam.org
    \\  /    A nd           | Version:  dev
     \\/     M anipulation  |

   OpenFOAM for Windows 20.09 (v1)
   Built by CFD Support, www.cfdsupport.com (based on Symscape).
\*---------------------------------------------------------------------------*/
FoamFile
{
    version     2.0;
    format      ascii;
    class       volScalarField;
    location    "4";
    object      omega;
}
// * * * * * * * * * * * * * * * * * * * * * * * * * * * * * * * * * * * * * //

dimensions      [0 0 -1 0 0 0 0];

internalField   nonuniform List<scalar> 
120
(
27.4317
27.4882
27.4391
27.4366
29.11
29.1611
29.116
29.1118
29.685
29.69
29.6679
29.6559
29.4326
29.4167
29.4125
29.4015
28.6732
28.6523
28.658
28.653
27.6357
27.6165
27.6272
27.6291
26.4795
26.464
26.4761
26.4831
25.3107
25.2983
25.31
25.3205
24.1967
24.1865
24.1969
24.2091
23.1782
23.1691
23.1778
23.19
22.2766
22.268
22.2746
22.2858
21.5008
21.4922
21.4961
21.5056
20.8506
20.8422
20.8433
20.8512
20.3219
20.3133
20.3111
20.318
19.9067
19.8973
19.8923
19.8982
27.4204
27.4069
27.4441
27.4183
29.0978
29.0861
29.1202
29.0987
29.6572
29.668
29.679
29.6736
29.4151
29.4354
29.4276
29.4284
28.6735
28.6935
28.6752
28.6771
27.6513
27.6663
27.6438
27.645
26.5035
26.512
26.49
26.491
25.3362
25.3387
25.3197
25.3225
24.2185
24.2178
24.2026
24.2067
23.1937
23.1912
23.1799
23.1849
22.2849
22.2817
22.2738
22.2792
21.5027
21.4986
21.4934
21.4987
20.8472
20.8424
20.8392
20.8438
20.3134
20.3081
20.3065
20.3104
19.8935
19.8879
19.8877
19.8906
)
;

boundaryField
{
    topWall
    {
        beta1           0.075;
        blended         0;
        type            omegaWallFunction;
        value           nonuniform List<scalar> 0();
    }
    botWall
    {
        beta1           0.075;
        blended         0;
        type            omegaWallFunction;
        value           nonuniform List<scalar> 0();
    }
    inlet
    {
        type            cyclic;
    }
    outlet
    {
        type            cyclic;
    }
    fixWall
    {
        type            empty;
    }
    procBoundary4to3
    {
        type            processor;
        value           nonuniform List<scalar> 8(25.56 25.592 25.5497 25.5429 25.5319 25.5303 25.5592 25.5431);
    }
    procBoundary4to5
    {
        type            processor;
        value           nonuniform List<scalar> 8(19.5804 19.5707 19.5637 19.569 19.5645 19.5588 19.5591 19.5616);
    }
}


// ************************************************************************* //
