/*--------------------------------*- C++ -*----------------------------------*\
  =========                 |
  \\      /  F ield         | OpenFOAM: The Open Source CFD Toolbox
   \\    /   O peration     | Website:  https://openfoam.org
    \\  /    A nd           | Version:  dev
     \\/     M anipulation  |

   OpenFOAM for Windows 20.09 (v1)
   Built by CFD Support, www.cfdsupport.com (based on Symscape).
\*---------------------------------------------------------------------------*/
FoamFile
{
    version     2.0;
    format      ascii;
    class       volScalarField;
    location    "4";
    object      p;
}
// * * * * * * * * * * * * * * * * * * * * * * * * * * * * * * * * * * * * * //

dimensions      [1 -1 -2 0 0 0 0];

internalField   nonuniform List<scalar> 
120
(
-4.85906
-4.92184
-4.98388
-5.04613
-4.86801
-4.93039
-4.99253
-5.05468
-4.87617
-4.93855
-5.0007
-5.06285
-4.88433
-4.94672
-5.00888
-5.07103
-4.89249
-4.95489
-5.01705
-5.0792
-4.90066
-4.96306
-5.02522
-5.08738
-4.90882
-4.97123
-5.0334
-5.09555
-4.91698
-4.9794
-5.04157
-5.10373
-4.92515
-4.98756
-5.04975
-5.1119
-4.93331
-4.99573
-5.05792
-5.12007
-4.94147
-5.0039
-5.06609
-5.12825
-4.94964
-5.01207
-5.07427
-5.13642
-4.9578
-5.02024
-5.08244
-5.1446
-4.96596
-5.02841
-5.09061
-5.15277
-4.97412
-5.03658
-5.09879
-5.16094
-5.10863
-5.17128
-5.23432
-5.2966
-5.11724
-5.1801
-5.24302
-5.30548
-5.12542
-5.18827
-5.25119
-5.31364
-5.13359
-5.19645
-5.25936
-5.32181
-5.14177
-5.20462
-5.26754
-5.32998
-5.14994
-5.21279
-5.27571
-5.33815
-5.15812
-5.22097
-5.28388
-5.34632
-5.16629
-5.22914
-5.29206
-5.35448
-5.17447
-5.23731
-5.30023
-5.36265
-5.18264
-5.24548
-5.3084
-5.37082
-5.19081
-5.25366
-5.31657
-5.37899
-5.19899
-5.26183
-5.32475
-5.38716
-5.20716
-5.27
-5.33292
-5.39533
-5.21534
-5.27818
-5.3411
-5.4035
-5.22351
-5.28635
-5.34927
-5.41167
)
;

boundaryField
{
    topWall
    {
        type            calculated;
        value           nonuniform List<scalar> 0();
    }
    botWall
    {
        type            calculated;
        value           nonuniform List<scalar> 0();
    }
    inlet
    {
        type            cyclic;
    }
    outlet
    {
        type            cyclic;
    }
    fixWall
    {
        type            empty;
    }
    procBoundary4to3
    {
        type            processor;
        value           nonuniform List<scalar> 8(-4.81359 -4.87722 -4.93907 -5.00148 -5.0638 -5.12643 -5.18943 -5.25116);
    }
    procBoundary4to5
    {
        type            processor;
        value           nonuniform List<scalar> 8(-4.98229 -5.04475 -5.10696 -5.16912 -5.23169 -5.29453 -5.35744 -5.41984);
    }
}


// ************************************************************************* //
