/*--------------------------------*- C++ -*----------------------------------*\
  =========                 |
  \\      /  F ield         | OpenFOAM: The Open Source CFD Toolbox
   \\    /   O peration     | Website:  https://openfoam.org
    \\  /    A nd           | Version:  dev
     \\/     M anipulation  |

   OpenFOAM for Windows 20.09 (v1)
   Built by CFD Support, www.cfdsupport.com (based on Symscape).
\*---------------------------------------------------------------------------*/
FoamFile
{
    version     2.0;
    format      ascii;
    class       volScalarField;
    location    "4";
    object      p_rgh;
}
// * * * * * * * * * * * * * * * * * * * * * * * * * * * * * * * * * * * * * //

dimensions      [1 -1 -2 0 0 0 0];

internalField   nonuniform List<scalar> 
120
(
-4.268
-4.38215
-4.43137
-4.50534
-4.36523
-4.42754
-4.48971
-4.55188
-4.36523
-4.42762
-4.48976
-4.55192
-4.36522
-4.42761
-4.48976
-4.55192
-4.36521
-4.4276
-4.48976
-4.55192
-4.3652
-4.4276
-4.48976
-4.55191
-4.36518
-4.42759
-4.48976
-4.55191
-4.36517
-4.42758
-4.48976
-4.55191
-4.36516
-4.42758
-4.48976
-4.55191
-4.36515
-4.42757
-4.48976
-4.55191
-4.36514
-4.42757
-4.48976
-4.55191
-4.36512
-4.42756
-4.48975
-4.55191
-4.36511
-4.42755
-4.48975
-4.55191
-4.3651
-4.42755
-4.48975
-4.55191
-4.36509
-4.42754
-4.48975
-4.55191
-4.55985
-4.59764
-4.67544
-4.71547
-4.61445
-4.67732
-4.74022
-4.8027
-4.61448
-4.67734
-4.74025
-4.80271
-4.61448
-4.67733
-4.74025
-4.8027
-4.61448
-4.67733
-4.74025
-4.80269
-4.61448
-4.67733
-4.74025
-4.80268
-4.61448
-4.67733
-4.74024
-4.80268
-4.61448
-4.67733
-4.74024
-4.80267
-4.61448
-4.67732
-4.74024
-4.80267
-4.61448
-4.67732
-4.74024
-4.80266
-4.61448
-4.67732
-4.74024
-4.80265
-4.61448
-4.67732
-4.74024
-4.80265
-4.61448
-4.67732
-4.74023
-4.80264
-4.61448
-4.67732
-4.74023
-4.80264
-4.61448
-4.67732
-4.74023
-4.80263
)
;

boundaryField
{
    topWall
    {
        type            zeroGradient;
    }
    botWall
    {
        type            zeroGradient;
    }
    inlet
    {
        type            fixedJump;
        patchType       cyclic;
        jump            uniform -0.5;
        value           nonuniform List<scalar> 
15
(
-4.33396
-4.24174
-4.33397
-4.33396
-4.33395
-4.33394
-4.33393
-4.33392
-4.33391
-4.3339
-4.3339
-4.33389
-4.33388
-4.33387
-4.33386
)
;
    }
    outlet
    {
        type            fixedJump;
        patchType       cyclic;
        value           nonuniform List<scalar> 
15
(
-4.83396
-4.74174
-4.83397
-4.83396
-4.83395
-4.83394
-4.83393
-4.83392
-4.83391
-4.8339
-4.8339
-4.83389
-4.83388
-4.83387
-4.83386
)
;
    }
    fixWall
    {
        type            empty;
    }
    procBoundary4to3
    {
        type            processor;
        value           nonuniform List<scalar> 8(0.00533143 -0.084944 -0.141535 -0.215183 -0.266374 -0.348596 -0.390044 -0.43009);
    }
    procBoundary4to5
    {
        type            processor;
        value           nonuniform List<scalar> 8(-4.36507 -4.42754 -4.48974 -4.55191 -4.61448 -4.67732 -4.74023 -4.80263);
    }
}


// ************************************************************************* //
