/*--------------------------------*- C++ -*----------------------------------*\
  =========                 |
  \\      /  F ield         | OpenFOAM: The Open Source CFD Toolbox
   \\    /   O peration     | Website:  https://openfoam.org
    \\  /    A nd           | Version:  dev
     \\/     M anipulation  |

   OpenFOAM for Windows 20.09 (v1)
   Built by CFD Support, www.cfdsupport.com (based on Symscape).
\*---------------------------------------------------------------------------*/
FoamFile
{
    version     2.0;
    format      ascii;
    class       surfaceScalarField;
    location    "4";
    object      phi;
}
// * * * * * * * * * * * * * * * * * * * * * * * * * * * * * * * * * * * * * //

dimensions      [0 3 -1 0 0 0 0];

internalField   nonuniform List<scalar> 
217
(
3.96757e-08
1.41295e-09
3.95856e-08
1.81961e-11
3.95492e-08
2.57703e-10
-9.14041e-11
3.95688e-08
6.16746e-08
1.03217e-09
6.18706e-08
-1.77822e-10
6.17805e-08
3.47869e-10
-1.132e-10
6.18023e-08
8.23861e-08
7.22905e-10
8.24785e-08
-2.702e-10
8.23471e-08
4.79339e-10
-9.02784e-11
8.23241e-08
1.00396e-07
4.70307e-10
1.00415e-07
-2.88733e-10
1.00276e-07
6.17909e-10
-5.01652e-11
1.00236e-07
1.1597e-07
2.74852e-10
1.1595e-07
-2.69242e-10
1.15814e-07
7.54683e-10
-8.59938e-13
1.15764e-07
1.2935e-07
1.19031e-10
1.29309e-07
-2.27171e-10
1.29192e-07
8.71465e-10
3.76412e-11
1.29153e-07
1.40771e-07
1.24496e-12
1.40727e-07
-1.83491e-10
1.40633e-07
9.66178e-10
6.4623e-11
1.40606e-07
1.50473e-07
-8.73093e-11
1.50426e-07
-1.36121e-10
1.50354e-07
1.03778e-09
7.19144e-11
1.50347e-07
1.58653e-07
-1.487e-10
1.58611e-07
-9.31597e-11
1.58561e-07
1.08772e-09
6.06324e-11
1.58572e-07
1.65507e-07
-1.84973e-10
1.65471e-07
-5.64478e-11
1.65446e-07
1.11206e-09
3.96293e-11
1.65467e-07
1.71212e-07
-2.02085e-10
1.71188e-07
-3.18844e-11
1.71183e-07
1.11665e-09
2.27329e-11
1.712e-07
1.75928e-07
-2.01012e-10
1.75909e-07
-1.20716e-11
1.75928e-07
1.0972e-09
1.61989e-11
1.75935e-07
1.79796e-07
-1.86276e-10
1.79787e-07
-3.73594e-12
1.79827e-07
1.05774e-09
2.24349e-11
1.79821e-07
1.82952e-07
-1.60865e-10
1.82947e-07
1.5758e-12
1.83005e-07
9.99731e-10
3.82421e-11
1.82989e-07
1.85501e-07
1.85502e-07
1.85574e-07
1.8555e-07
3.96187e-08
-2.15482e-10
3.96433e-08
-8.9961e-10
3.96164e-08
-9.47502e-10
4.66018e-10
6.15489e-08
3.79759e-11
6.15093e-08
-8.60098e-10
6.14631e-08
-9.01171e-10
6.35116e-10
8.2115e-08
2.47133e-10
8.21255e-08
-8.7076e-10
8.21473e-08
-9.23019e-10
7.0552e-10
1.00079e-07
4.04854e-10
1.00113e-07
-9.05097e-10
1.00147e-07
-9.57249e-10
7.08701e-10
1.15658e-07
5.11523e-10
1.15712e-07
-9.59964e-10
1.15751e-07
-9.95624e-10
6.85265e-10
1.29089e-07
5.76123e-10
1.29139e-07
-1.01032e-09
1.29155e-07
-1.01139e-09
6.45534e-10
1.40579e-07
6.02854e-10
1.40628e-07
-1.05975e-09
1.40622e-07
-1.00526e-09
6.14777e-10
1.50345e-07
6.04981e-10
1.50382e-07
-1.09663e-09
1.50357e-07
-9.80695e-10
5.87503e-10
1.58586e-07
5.90439e-10
1.58611e-07
-1.12153e-09
1.58576e-07
-9.45192e-10
5.71376e-10
1.65483e-07
5.74383e-10
1.65499e-07
-1.13726e-09
1.65462e-07
-9.07833e-10
5.62099e-10
1.71213e-07
5.61251e-10
1.71232e-07
-1.15614e-09
1.71197e-07
-8.73013e-10
5.6414e-10
1.75935e-07
5.60961e-10
1.75957e-07
-1.17855e-09
1.75929e-07
-8.45232e-10
5.64025e-10
1.7981e-07
5.71702e-10
1.7984e-07
-1.20853e-09
1.79817e-07
-8.22065e-10
5.70129e-10
1.82964e-07
5.96289e-10
1.82993e-07
-1.23757e-09
1.82976e-07
-8.0479e-10
5.688e-10
1.85516e-07
1.85549e-07
1.85539e-07
)
;

boundaryField
{
    topWall
    {
        type            calculated;
        value           nonuniform List<scalar> 0();
    }
    botWall
    {
        type            calculated;
        value           nonuniform List<scalar> 0();
    }
    inlet
    {
        type            cyclic;
        value           nonuniform List<scalar> 
15
(
-6.12938e-08
-3.96627e-08
-8.20769e-08
-1.00144e-07
-1.15774e-07
-1.29195e-07
-1.40653e-07
-1.50385e-07
-1.58592e-07
-1.65471e-07
-1.71195e-07
-1.75929e-07
-1.7981e-07
-1.82978e-07
-1.85537e-07
)
;
    }
    outlet
    {
        type            cyclic;
        value           nonuniform List<scalar> 
15
(
6.12938e-08
3.96627e-08
8.20769e-08
1.00144e-07
1.15774e-07
1.29195e-07
1.40653e-07
1.50385e-07
1.58592e-07
1.65471e-07
1.71195e-07
1.75929e-07
1.7981e-07
1.82978e-07
1.85537e-07
)
;
    }
    fixWall
    {
        type            empty;
        value           nonuniform List<scalar> 0();
    }
    procBoundary4to3
    {
        type            processor;
        value           nonuniform List<scalar> 8(-1.42577e-09 7.17918e-11 -2.21031e-10 7.32377e-11 1.65408e-10 8.76859e-10 9.73494e-10 -5.12082e-10);
    }
    procBoundary4to5
    {
        type            processor;
        value           nonuniform List<scalar> 8(-1.24993e-10 -3.50031e-12 9.28924e-10 6.57821e-11 6.24969e-10 -1.26859e-09 -7.94442e-10 5.71491e-10);
    }
}


// ************************************************************************* //
