/*--------------------------------*- C++ -*----------------------------------*\
  =========                 |
  \\      /  F ield         | OpenFOAM: The Open Source CFD Toolbox
   \\    /   O peration     | Website:  https://openfoam.org
    \\  /    A nd           | Version:  dev
     \\/     M anipulation  |

   OpenFOAM for Windows 20.09 (v1)
   Built by CFD Support, www.cfdsupport.com (based on Symscape).
\*---------------------------------------------------------------------------*/
FoamFile
{
    version     2.0;
    format      ascii;
    class       volSymmTensorField;
    location    "4";
    object      R;
}
// * * * * * * * * * * * * * * * * * * * * * * * * * * * * * * * * * * * * * //

dimensions      [0 2 -2 0 0 0 0];

internalField   nonuniform List<symmTensor> 
120
(
(2.58585e-16 -1.24861e-16 -0 2.58687e-16 -0 2.58589e-16)
(2.5917e-16 -1.25189e-16 -0 2.59179e-16 -0 2.59144e-16)
(2.59105e-16 -1.25082e-16 -0 2.59066e-16 -0 2.59093e-16)
(2.59244e-16 -1.25156e-16 -0 2.59274e-16 -0 2.5925e-16)
(2.73519e-16 -1.3308e-16 -0 2.73675e-16 -0 2.73599e-16)
(2.73976e-16 -1.33343e-16 -0 2.74023e-16 -0 2.74017e-16)
(2.73958e-16 -1.33242e-16 -0 2.73935e-16 -0 2.73939e-16)
(2.74091e-16 -1.33303e-16 -0 2.74087e-16 -0 2.74095e-16)
(2.82029e-16 -1.36466e-16 -0 2.82119e-16 -0 2.82101e-16)
(2.82168e-16 -1.36519e-16 -0 2.82207e-16 -0 2.82191e-16)
(2.82222e-16 -1.36494e-16 -0 2.82147e-16 -0 2.82191e-16)
(2.8229e-16 -1.36524e-16 -0 2.82288e-16 -0 2.82284e-16)
(2.84634e-16 -1.36083e-16 -0 2.84794e-16 -0 2.84702e-16)
(2.84588e-16 -1.36013e-16 -0 2.84611e-16 -0 2.84593e-16)
(2.84708e-16 -1.36049e-16 -0 2.84638e-16 -0 2.84671e-16)
(2.84765e-16 -1.36078e-16 -0 2.84738e-16 -0 2.84753e-16)
(2.82621e-16 -1.33518e-16 -0 2.82737e-16 -0 2.82681e-16)
(2.82436e-16 -1.33387e-16 -0 2.82414e-16 -0 2.82431e-16)
(2.82615e-16 -1.33461e-16 -0 2.82532e-16 -0 2.82574e-16)
(2.8267e-16 -1.33497e-16 -0 2.82636e-16 -0 2.82653e-16)
(2.77036e-16 -1.29792e-16 -0 2.77138e-16 -0 2.7709e-16)
(2.76763e-16 -1.29629e-16 -0 2.76744e-16 -0 2.76749e-16)
(2.76993e-16 -1.29727e-16 -0 2.76911e-16 -0 2.76953e-16)
(2.77056e-16 -1.29771e-16 -0 2.77034e-16 -0 2.77041e-16)
(2.68814e-16 -1.25373e-16 -0 2.68921e-16 -0 2.68861e-16)
(2.68507e-16 -1.25196e-16 -0 2.68471e-16 -0 2.68491e-16)
(2.68758e-16 -1.25306e-16 -0 2.68686e-16 -0 2.68721e-16)
(2.68845e-16 -1.25359e-16 -0 2.68816e-16 -0 2.68833e-16)
(2.58757e-16 -1.20442e-16 -0 2.58812e-16 -0 2.58797e-16)
(2.5842e-16 -1.2026e-16 -0 2.58375e-16 -0 2.584e-16)
(2.58678e-16 -1.20374e-16 -0 2.58607e-16 -0 2.58647e-16)
(2.58776e-16 -1.20436e-16 -0 2.58774e-16 -0 2.58771e-16)
(2.47451e-16 -1.15109e-16 -0 2.47542e-16 -0 2.47482e-16)
(2.47121e-16 -1.14927e-16 -0 2.47083e-16 -0 2.471e-16)
(2.4737e-16 -1.15043e-16 -0 2.47333e-16 -0 2.47345e-16)
(2.47493e-16 -1.15111e-16 -0 2.47497e-16 -0 2.47496e-16)
(2.35477e-16 -1.09507e-16 -0 2.35492e-16 -0 2.35498e-16)
(2.35125e-16 -1.09329e-16 -0 2.35088e-16 -0 2.35105e-16)
(2.35366e-16 -1.09441e-16 -0 2.35318e-16 -0 2.35353e-16)
(2.35493e-16 -1.09515e-16 -0 2.3552e-16 -0 2.35503e-16)
(2.23166e-16 -1.03783e-16 -0 2.23218e-16 -0 2.23177e-16)
(2.22831e-16 -1.03609e-16 -0 2.22796e-16 -0 2.22817e-16)
(2.23031e-16 -1.03713e-16 -0 2.23053e-16 -0 2.2303e-16)
(2.23202e-16 -1.03793e-16 -0 2.23214e-16 -0 2.2321e-16)
(2.10915e-16 -9.11402e-17 -0 2.10882e-16 -0 2.10913e-16)
(2.10559e-16 -9.05979e-17 -0 2.10521e-16 -0 2.10548e-16)
(2.10736e-16 -9.14374e-17 -0 2.10745e-16 -0 2.10751e-16)
(2.10921e-16 -9.16379e-17 -0 2.10929e-16 -0 2.10923e-16)
(1.99048e-16 -7.25907e-17 -0 1.99041e-16 -0 1.99037e-16)
(1.98701e-16 -7.21411e-17 -0 1.987e-16 -0 1.98697e-16)
(1.98838e-16 -7.28532e-17 -0 1.98913e-16 -0 1.98867e-16)
(1.9906e-16 -7.30282e-17 -0 1.99031e-16 -0 1.99053e-16)
(1.87929e-16 -5.71323e-17 -0 1.87893e-16 -0 1.87911e-16)
(1.87592e-16 -5.67346e-17 -0 1.87573e-16 -0 1.87591e-16)
(1.87724e-16 -5.73116e-17 -0 1.878e-16 -0 1.87764e-16)
(1.87897e-16 -5.74529e-17 -0 1.87891e-16 -0 1.87883e-16)
(1.77716e-16 -4.45044e-17 -0 1.77652e-16 -0 1.77691e-16)
(1.77369e-16 -4.41343e-17 -0 1.77386e-16 -0 1.77372e-16)
(1.7751e-16 -4.45919e-17 -0 1.77589e-16 -0 1.77557e-16)
(1.77655e-16 -4.4685e-17 -0 1.77608e-16 -0 1.77636e-16)
(2.59057e-16 -1.25041e-16 -0 2.59066e-16 -0 2.59073e-16)
(2.58687e-16 -1.24853e-16 -0 2.58717e-16 -0 2.58694e-16)
(2.59052e-16 -1.2507e-16 -0 2.59031e-16 -0 2.59045e-16)
(2.58678e-16 -1.24883e-16 -0 2.5876e-16 -0 2.58692e-16)
(2.73948e-16 -1.33193e-16 -0 2.7388e-16 -0 2.73895e-16)
(2.73592e-16 -1.33024e-16 -0 2.73564e-16 -0 2.73583e-16)
(2.73925e-16 -1.33243e-16 -0 2.7393e-16 -0 2.73917e-16)
(2.73693e-16 -1.33088e-16 -0 2.73636e-16 -0 2.73656e-16)
(2.82201e-16 -1.36465e-16 -0 2.82081e-16 -0 2.82152e-16)
(2.81926e-16 -1.36384e-16 -0 2.8195e-16 -0 2.81928e-16)
(2.8222e-16 -1.36529e-16 -0 2.82214e-16 -0 2.82227e-16)
(2.82123e-16 -1.36456e-16 -0 2.8206e-16 -0 2.82105e-16)
(2.84703e-16 -1.36055e-16 -0 2.84616e-16 -0 2.8466e-16)
(2.84536e-16 -1.36018e-16 -0 2.84527e-16 -0 2.84544e-16)
(2.84749e-16 -1.36109e-16 -0 2.84764e-16 -0 2.84761e-16)
(2.84698e-16 -1.36075e-16 -0 2.84695e-16 -0 2.84696e-16)
(2.82641e-16 -1.33494e-16 -0 2.82574e-16 -0 2.82608e-16)
(2.82518e-16 -1.33474e-16 -0 2.82566e-16 -0 2.82534e-16)
(2.82687e-16 -1.33536e-16 -0 2.82723e-16 -0 2.82702e-16)
(2.8266e-16 -1.33515e-16 -0 2.82666e-16 -0 2.82666e-16)
(2.77062e-16 -1.2978e-16 -0 2.7702e-16 -0 2.77039e-16)
(2.7698e-16 -1.29765e-16 -0 2.7702e-16 -0 2.76997e-16)
(2.77114e-16 -1.29812e-16 -0 2.77124e-16 -0 2.77122e-16)
(2.77064e-16 -1.29792e-16 -0 2.77097e-16 -0 2.77076e-16)
(2.68871e-16 -1.25376e-16 -0 2.68847e-16 -0 2.6886e-16)
(2.68815e-16 -1.25361e-16 -0 2.68827e-16 -0 2.68834e-16)
(2.6892e-16 -1.254e-16 -0 2.68917e-16 -0 2.68921e-16)
(2.68861e-16 -1.25379e-16 -0 2.68884e-16 -0 2.68871e-16)
(2.58825e-16 -1.2046e-16 -0 2.58823e-16 -0 2.58823e-16)
(2.58755e-16 -1.20441e-16 -0 2.58823e-16 -0 2.5877e-16)
(2.58872e-16 -1.20477e-16 -0 2.58852e-16 -0 2.58865e-16)
(2.58798e-16 -1.20451e-16 -0 2.58814e-16 -0 2.58808e-16)
(2.47546e-16 -1.15138e-16 -0 2.47563e-16 -0 2.47553e-16)
(2.47502e-16 -1.15113e-16 -0 2.47486e-16 -0 2.47513e-16)
(2.47595e-16 -1.15151e-16 -0 2.4757e-16 -0 2.47581e-16)
(2.47502e-16 -1.15118e-16 -0 2.47521e-16 -0 2.47508e-16)
(2.35558e-16 -1.09542e-16 -0 2.35563e-16 -0 2.35567e-16)
(2.35475e-16 -1.09509e-16 -0 2.35523e-16 -0 2.35483e-16)
(2.35612e-16 -1.09553e-16 -0 2.35555e-16 -0 2.35596e-16)
(2.3549e-16 -1.09509e-16 -0 2.35499e-16 -0 2.35492e-16)
(2.2325e-16 -1.03819e-16 -0 2.23285e-16 -0 2.23258e-16)
(2.23172e-16 -1.03777e-16 -0 2.23171e-16 -0 2.23182e-16)
(2.23299e-16 -1.0383e-16 -0 2.23282e-16 -0 2.23282e-16)
(2.23168e-16 -1.03772e-16 -0 2.2316e-16 -0 2.23163e-16)
(2.10987e-16 -9.10164e-17 -0 2.10972e-16 -0 2.10987e-16)
(2.10844e-16 -9.11356e-17 -0 2.10906e-16 -0 2.10858e-16)
(2.11018e-16 -9.13074e-17 -0 2.10991e-16 -0 2.11005e-16)
(2.10849e-16 -9.13778e-17 -0 2.10828e-16 -0 2.10845e-16)
(1.99131e-16 -7.24648e-17 -0 1.99123e-16 -0 1.99123e-16)
(1.98973e-16 -7.25193e-17 -0 1.98983e-16 -0 1.98992e-16)
(1.99155e-16 -7.26459e-17 -0 1.99128e-16 -0 1.99145e-16)
(1.98934e-16 -7.27243e-17 -0 1.9892e-16 -0 1.98926e-16)
(1.88021e-16 -5.70203e-17 -0 1.87983e-16 -0 1.88004e-16)
(1.87797e-16 -5.70096e-17 -0 1.8786e-16 -0 1.87814e-16)
(1.88015e-16 -5.71161e-17 -0 1.88014e-16 -0 1.8801e-16)
(1.87734e-16 -5.72275e-17 -0 1.87727e-16 -0 1.87732e-16)
(1.77805e-16 -4.44027e-17 -0 1.7778e-16 -0 1.77783e-16)
(1.77553e-16 -4.43352e-17 -0 1.77579e-16 -0 1.77573e-16)
(1.77805e-16 -4.4374e-17 -0 1.77773e-16 -0 1.77803e-16)
(1.775e-16 -4.45663e-17 -0 1.77504e-16 -0 1.77496e-16)
)
;

boundaryField
{
    topWall
    {
        type            kqRWallFunction;
        value           nonuniform List<symmTensor> 0();
    }
    botWall
    {
        type            kqRWallFunction;
        value           nonuniform List<symmTensor> 0();
    }
    inlet
    {
        type            cyclic;
    }
    outlet
    {
        type            cyclic;
    }
    fixWall
    {
        type            empty;
    }
    procBoundary4to3
    {
        type            processor;
        value           nonuniform List<symmTensor> 8((2.40832e-16 -7.01067e-17 -0 2.40854e-16 -0 2.40827e-16) (2.41378e-16 -7.04182e-17 -0 2.4128e-16 -0 2.41317e-16) (2.41276e-16 -7.02295e-17 -0 2.41256e-16 -0 2.41256e-16) (2.41397e-16 -7.03309e-17 -0 2.41424e-16 -0 2.41416e-16) (2.41203e-16 -6.99944e-17 -0 2.41267e-16 -0 2.41242e-16) (2.40919e-16 -7.01356e-17 -0 2.40915e-16 -0 2.40928e-16) (2.41232e-16 -7.01211e-17 -0 2.41205e-16 -0 2.41218e-16) (2.40898e-16 -7.00126e-17 -0 2.40948e-16 -0 2.40931e-16));
    }
    procBoundary4to5
    {
        type            processor;
        value           nonuniform List<symmTensor> 8((1.68477e-16 -3.44459e-17 -0 1.68452e-16 -0 1.68448e-16) (1.68148e-16 -3.40097e-17 -0 1.68173e-16 -0 1.68149e-16) (1.68277e-16 -3.43693e-17 -0 1.68384e-16 -0 1.6833e-16) (1.68376e-16 -3.44407e-17 -0 1.68367e-16 -0 1.68356e-16) (1.68609e-16 -3.4281e-17 -0 1.68532e-16 -0 1.68583e-16) (1.68295e-16 -3.41582e-17 -0 1.68305e-16 -0 1.6831e-16) (1.68583e-16 -3.39766e-17 -0 1.68558e-16 -0 1.68586e-16) (1.68233e-16 -3.43153e-17 -0 1.68282e-16 -0 1.68238e-16));
    }
}


// ************************************************************************* //
