/*--------------------------------*- C++ -*----------------------------------*\
  =========                 |
  \\      /  F ield         | OpenFOAM: The Open Source CFD Toolbox
   \\    /   O peration     | Website:  https://openfoam.org
    \\  /    A nd           | Version:  dev
     \\/     M anipulation  |

   OpenFOAM for Windows 20.09 (v1)
   Built by CFD Support, www.cfdsupport.com (based on Symscape).
\*---------------------------------------------------------------------------*/
FoamFile
{
    version     2.0;
    format      ascii;
    class       volVectorField;
    location    "4";
    object      U;
}
// * * * * * * * * * * * * * * * * * * * * * * * * * * * * * * * * * * * * * //

dimensions      [0 1 -1 0 0 0 0];

internalField   nonuniform List<vector> 
120
(
(0.0476496 2.92972e-05 0)
(0.047566 -1.20579e-06 0)
(0.0474449 4.39718e-06 0)
(0.0474734 -1.46361e-06 0)
(0.0735442 1.97619e-05 0)
(0.0744735 -4.68176e-06 0)
(0.0740202 7.14638e-06 0)
(0.07426 -3.79614e-06 0)
(0.09852 1.48004e-05 0)
(0.0992051 -2.26807e-06 0)
(0.0987477 5.1029e-06 0)
(0.0988928 1.61274e-07 0)
(0.120246 1.67363e-05 0)
(0.120703 -7.44877e-06 0)
(0.120297 1.46734e-05 0)
(0.120374 -4.44544e-06 0)
(0.139007 1.09463e-06 0)
(0.139318 -4.80635e-06 0)
(0.138967 9.95547e-06 0)
(0.138993 2.50588e-06 0)
(0.155125 9.53869e-06 0)
(0.155314 -5.26348e-06 0)
(0.15503 2.00924e-05 0)
(0.155038 -2.16927e-06 0)
(0.168864 -4.45459e-06 0)
(0.168984 -4.20832e-06 0)
(0.168766 1.47719e-05 0)
(0.168761 3.32529e-06 0)
(0.180534 3.4448e-06 0)
(0.180599 -3.2613e-06 0)
(0.180427 2.36331e-05 0)
(0.180431 -4.49748e-07 0)
(0.190365 -5.81185e-06 0)
(0.1904 -1.98885e-06 0)
(0.190269 1.83445e-05 0)
(0.190284 3.05644e-06 0)
(0.198604 -1.22351e-06 0)
(0.19861 -1.91927e-06 0)
(0.198523 2.45513e-05 0)
(0.198556 -5.27765e-07 0)
(0.205457 -5.38256e-06 0)
(0.205449 -7.71155e-07 0)
(0.205406 2.07608e-05 0)
(0.205442 1.89158e-06 0)
(0.211133 -3.70111e-06 0)
(0.211091 -6.49189e-07 0)
(0.211093 2.31223e-05 0)
(0.211143 -7.87051e-07 0)
(0.215781 -3.59525e-06 0)
(0.215724 7.11875e-07 0)
(0.215769 2.11188e-05 0)
(0.215824 1.52752e-06 0)
(0.219582 -3.93857e-06 0)
(0.219499 -7.96235e-07 0)
(0.219577 2.04558e-05 0)
(0.219643 4.95489e-07 0)
(0.222647 -2.5365e-06 0)
(0.22255 1.79783e-06 0)
(0.222658 1.89926e-05 0)
(0.222727 1.0868e-06 0)
(0.0474912 -2.79069e-06 0)
(0.047595 -1.73693e-05 0)
(0.0475426 -1.8563e-05 0)
(0.0475419 1.13275e-05 0)
(0.0740633 -2.37266e-06 0)
(0.0736497 -1.94985e-05 0)
(0.0739637 -1.8034e-05 0)
(0.073557 4.84273e-06 0)
(0.098683 5.47543e-08 0)
(0.0983888 -1.37367e-05 0)
(0.0987028 -2.11733e-05 0)
(0.0984606 1.52975e-05 0)
(0.120191 9.57024e-06 0)
(0.119994 -2.3363e-05 0)
(0.120267 -1.5809e-05 0)
(0.120096 1.2637e-05 0)
(0.138839 6.55901e-06 0)
(0.138736 -1.1178e-05 0)
(0.138964 -2.16824e-05 0)
(0.138848 1.5424e-05 0)
(0.154928 1.40534e-05 0)
(0.154881 -2.76205e-05 0)
(0.155042 -1.85968e-05 0)
(0.154939 1.2587e-05 0)
(0.16869 8.82174e-06 0)
(0.168695 -1.3816e-05 0)
(0.168802 -2.19683e-05 0)
(0.168701 1.30148e-05 0)
(0.180399 1.53746e-05 0)
(0.180425 -2.6892e-05 0)
(0.180481 -1.82594e-05 0)
(0.180386 1.12647e-05 0)
(0.190286 8.89739e-06 0)
(0.190318 -1.86129e-05 0)
(0.190339 -2.07742e-05 0)
(0.190253 1.24854e-05 0)
(0.198563 1.45186e-05 0)
(0.198593 -2.47545e-05 0)
(0.198594 -1.73469e-05 0)
(0.198524 1.01889e-05 0)
(0.205436 9.17622e-06 0)
(0.205473 -2.13758e-05 0)
(0.205474 -1.79257e-05 0)
(0.20541 1.20049e-05 0)
(0.211098 1.28606e-05 0)
(0.211142 -2.4055e-05 0)
(0.211144 -1.73537e-05 0)
(0.211096 1.03664e-05 0)
(0.215743 9.98921e-06 0)
(0.215797 -2.41143e-05 0)
(0.215808 -1.71238e-05 0)
(0.215762 1.29897e-05 0)
(0.219528 1.29031e-05 0)
(0.219583 -2.35511e-05 0)
(0.21959 -1.63381e-05 0)
(0.219563 1.07362e-05 0)
(0.222589 1.12266e-05 0)
(0.222647 -2.68551e-05 0)
(0.222662 -1.73893e-05 0)
(0.222641 1.32498e-05 0)
)
;

boundaryField
{
    topWall
    {
        type            noSlip;
    }
    botWall
    {
        type            noSlip;
    }
    inlet
    {
        type            cyclic;
    }
    outlet
    {
        type            cyclic;
    }
    fixWall
    {
        type            empty;
    }
    procBoundary4to3
    {
        type            processor;
        value           nonuniform List<vector> 8((0.042218 3.2143e-05 0) (0.0420916 -2.01546e-07 0) (0.0420006 3.69814e-06 0) (0.0420224 -6.28833e-07 0) (0.042069 -3.17532e-06 0) (0.0421579 -1.6542e-05 0) (0.0421003 -1.98772e-05 0) (0.0421082 1.34069e-05 0));
    }
    procBoundary4to5
    {
        type            processor;
        value           nonuniform List<vector> 8((0.225122 -1.47557e-06 0) (0.224999 -1.64635e-06 0) (0.225128 1.84773e-05 0) (0.225205 2.28193e-06 0) (0.225049 1.31242e-05 0) (0.225101 -2.39218e-05 0) (0.225105 -1.44457e-05 0) (0.225111 1.02232e-05 0));
    }
}


// ************************************************************************* //
