/*--------------------------------*- C++ -*----------------------------------*\
  =========                 |
  \\      /  F ield         | OpenFOAM: The Open Source CFD Toolbox
   \\    /   O peration     | Website:  https://openfoam.org
    \\  /    A nd           | Version:  dev
     \\/     M anipulation  |

   OpenFOAM for Windows 20.09 (v1)
   Built by CFD Support, www.cfdsupport.com (based on Symscape).
\*---------------------------------------------------------------------------*/
FoamFile
{
    version     2.0;
    format      ascii;
    class       volVectorField;
    location    "4";
    object      UMean;
}
// * * * * * * * * * * * * * * * * * * * * * * * * * * * * * * * * * * * * * //

dimensions      [0 1 -1 0 0 0 0];

internalField   nonuniform List<vector> 
120
(
(0.0424227 1.81866e-05 0)
(0.0423622 -6.83243e-06 0)
(0.0422686 -6.00836e-08 0)
(0.0423138 1.49702e-06 0)
(0.0671481 1.2816e-05 0)
(0.0677222 -9.11759e-06 0)
(0.0672962 2.44391e-06 0)
(0.0673108 -4.34734e-07 0)
(0.090108 5.53721e-06 0)
(0.0905255 -4.28006e-06 0)
(0.0901205 2.45522e-06 0)
(0.0901493 8.94408e-07 0)
(0.109905 1.14936e-05 0)
(0.110182 -9.80826e-06 0)
(0.109831 1.08739e-05 0)
(0.109868 -1.55735e-06 0)
(0.126848 -4.91161e-06 0)
(0.127035 -2.71223e-06 0)
(0.126741 8.30009e-06 0)
(0.126773 5.42905e-07 0)
(0.141259 7.13854e-06 0)
(0.141373 -7.69562e-06 0)
(0.141137 1.46768e-05 0)
(0.14117 -1.64116e-06 0)
(0.153417 -8.42836e-06 0)
(0.15349 -1.16784e-06 0)
(0.153311 1.19597e-05 0)
(0.153335 -3.53743e-08 0)
(0.163624 2.87917e-06 0)
(0.163662 -5.12536e-06 0)
(0.163524 1.73206e-05 0)
(0.163552 -1.95411e-06 0)
(0.172117 -8.61098e-06 0)
(0.172137 2.71493e-07 0)
(0.172037 1.41112e-05 0)
(0.172064 -3.9074e-07 0)
(0.179141 -8.89377e-07 0)
(0.179145 -3.34517e-06 0)
(0.179082 1.81004e-05 0)
(0.179115 -2.89017e-06 0)
(0.184908 -7.62934e-06 0)
(0.184904 9.71381e-07 0)
(0.184877 1.56755e-05 0)
(0.184906 -8.80429e-07 0)
(0.189617 -3.38637e-06 0)
(0.189586 -2.14853e-06 0)
(0.189596 1.69301e-05 0)
(0.189636 -3.28938e-06 0)
(0.193424 -5.52269e-06 0)
(0.193376 1.10502e-06 0)
(0.19342 1.5518e-05 0)
(0.193461 -6.25968e-07 0)
(0.196487 -4.32879e-06 0)
(0.196416 -1.15386e-06 0)
(0.196487 1.50709e-05 0)
(0.196537 -2.07492e-06 0)
(0.198921 -3.84045e-06 0)
(0.198838 6.32835e-07 0)
(0.198931 1.34727e-05 0)
(0.198983 -7.91027e-07 0)
(0.0423251 3.17945e-06 0)
(0.0423743 -7.64859e-06 0)
(0.0423393 -1.58336e-05 0)
(0.0423522 1.00499e-05 0)
(0.0673777 2.98521e-06 0)
(0.0672092 -8.52004e-06 0)
(0.0673762 -1.50225e-05 0)
(0.0670225 5.07921e-06 0)
(0.0901662 2.87938e-06 0)
(0.0900351 -6.33369e-06 0)
(0.0901973 -1.66964e-05 0)
(0.0899927 1.31646e-05 0)
(0.109853 5.98998e-06 0)
(0.109765 -1.106e-05 0)
(0.109903 -1.19017e-05 0)
(0.109767 8.75825e-06 0)
(0.126748 4.17627e-06 0)
(0.126699 -5.29187e-06 0)
(0.126815 -1.48376e-05 0)
(0.126732 1.33111e-05 0)
(0.141146 7.77135e-06 0)
(0.141125 -1.35676e-05 0)
(0.141206 -1.35763e-05 0)
(0.141136 8.49882e-06 0)
(0.15332 4.39085e-06 0)
(0.153327 -6.74982e-06 0)
(0.153383 -1.42753e-05 0)
(0.153316 1.1722e-05 0)
(0.163545 8.15007e-06 0)
(0.163565 -1.32124e-05 0)
(0.163597 -1.29419e-05 0)
(0.163533 7.81163e-06 0)
(0.172067 4.18761e-06 0)
(0.172097 -9.61352e-06 0)
(0.17211 -1.33885e-05 0)
(0.172048 1.12803e-05 0)
(0.179111 7.4001e-06 0)
(0.179142 -1.2368e-05 0)
(0.179148 -1.19257e-05 0)
(0.179091 7.5483e-06 0)
(0.184887 4.1669e-06 0)
(0.184926 -1.14916e-05 0)
(0.184933 -1.13754e-05 0)
(0.184877 1.07749e-05 0)
(0.189582 6.50536e-06 0)
(0.189625 -1.2634e-05 0)
(0.189636 -1.17056e-05 0)
(0.189592 8.29859e-06 0)
(0.193381 4.96851e-06 0)
(0.193432 -1.33943e-05 0)
(0.193447 -1.09484e-05 0)
(0.19341 1.12356e-05 0)
(0.196429 6.61946e-06 0)
(0.196478 -1.30576e-05 0)
(0.196494 -1.09302e-05 0)
(0.196474 9.00554e-06 0)
(0.19886 6.34759e-06 0)
(0.198911 -1.54219e-05 0)
(0.198931 -1.12264e-05 0)
(0.198918 1.1137e-05 0)
)
;

boundaryField
{
    topWall
    {
        type            calculated;
        value           nonuniform List<vector> 0();
    }
    botWall
    {
        type            calculated;
        value           nonuniform List<vector> 0();
    }
    inlet
    {
        type            cyclic;
    }
    outlet
    {
        type            cyclic;
    }
    fixWall
    {
        type            empty;
    }
    procBoundary4to3
    {
        type            processor;
        value           nonuniform List<vector> 8((0.0373315 1.96573e-05 0) (0.03724 -6.36746e-06 0) (0.0371815 -6.89337e-07 0) (0.0372238 2.0748e-06 0) (0.0372463 3.09014e-06 0) (0.0372881 -7.17592e-06 0) (0.037249 -1.67683e-05 0) (0.0372658 1.17517e-05 0));
    }
    procBoundary4to5
    {
        type            processor;
        value           nonuniform List<vector> 8((0.200859 -3.16817e-06 0) (0.200751 -6.52196e-07 0) (0.200862 1.36357e-05 0) (0.20092 -1.69832e-07 0) (0.200781 7.01309e-06 0) (0.200825 -1.39029e-05 0) (0.200837 -9.31212e-06 0) (0.200852 8.83012e-06 0));
    }
}


// ************************************************************************* //
