/*--------------------------------*- C++ -*----------------------------------*\
  =========                 |
  \\      /  F ield         | OpenFOAM: The Open Source CFD Toolbox
   \\    /   O peration     | Website:  https://openfoam.org
    \\  /    A nd           | Version:  dev
     \\/     M anipulation  |

   OpenFOAM for Windows 20.09 (v1)
   Built by CFD Support, www.cfdsupport.com (based on Symscape).
\*---------------------------------------------------------------------------*/
FoamFile
{
    version     2.0;
    format      ascii;
    class       volSymmTensorField;
    location    "4";
    object      UPrime2Mean;
}
// * * * * * * * * * * * * * * * * * * * * * * * * * * * * * * * * * * * * * //

dimensions      [0 2 -2 0 0 0 0];

internalField   nonuniform List<symmTensor> 
120
(
(4.21605e-05 8.962e-08 0 1.90504e-10 0 0)
(4.17898e-05 4.51853e-08 0 4.88567e-11 0 0)
(4.13483e-05 3.56049e-08 0 3.06593e-11 0 0)
(4.10835e-05 -2.35739e-08 0 1.35268e-11 0 0)
(6.31327e-05 6.85597e-08 0 7.44532e-11 0 0)
(7.03397e-05 4.62156e-08 0 3.03652e-11 0 0)
(6.97721e-05 4.87956e-08 0 3.41255e-11 0 0)
(7.45259e-05 -3.60486e-08 0 1.74369e-11 0 0)
(0.000109201 1.20251e-07 0 1.32419e-10 0 0)
(0.000116257 2.69494e-08 0 6.24709e-12 0 0)
(0.000114859 3.52503e-08 0 1.08183e-11 0 0)
(0.000117978 -9.89229e-09 0 8.29456e-13 0 0)
(0.000165029 8.36659e-08 0 4.24167e-11 0 0)
(0.000170821 3.83091e-08 0 8.59138e-12 0 0)
(0.000169031 6.13652e-08 0 2.22781e-11 0 0)
(0.000170358 -4.68279e-08 0 1.2872e-11 0 0)
(0.000228163 1.12704e-07 0 5.56714e-11 0 0)
(0.000232844 -3.96961e-08 0 6.76752e-12 0 0)
(0.000230658 3.12315e-08 0 4.22881e-12 0 0)
(0.000230475 3.70202e-08 0 5.94641e-12 0 0)
(0.000296677 5.13563e-08 0 8.89004e-12 0 0)
(0.000299905 5.23232e-08 0 9.1286e-12 0 0)
(0.000297901 1.16115e-07 0 4.5259e-11 0 0)
(0.000296788 -1.1302e-08 0 4.30394e-13 0 0)
(0.000368186 9.47218e-08 0 2.43687e-11 0 0)
(0.000370479 -7.27005e-08 0 1.42663e-11 0 0)
(0.000368574 6.70701e-08 0 1.22049e-11 0 0)
(0.000367191 7.99991e-08 0 1.74292e-11 0 0)
(0.00044128 1.47604e-08 0 4.93718e-13 0 0)
(0.000442691 4.87218e-08 0 5.36225e-12 0 0)
(0.000440928 1.64664e-07 0 6.14936e-11 0 0)
(0.000439671 3.91858e-08 0 3.49244e-12 0 0)
(0.000513899 7.8827e-08 0 1.20913e-11 0 0)
(0.00051472 -6.37049e-08 0 7.88451e-12 0 0)
(0.000512961 1.19106e-07 0 2.76554e-11 0 0)
(0.000512326 9.69283e-08 0 1.83381e-11 0 0)
(0.000584564 -1.00357e-08 0 1.7229e-13 0 0)
(0.000584674 4.2831e-08 0 3.13764e-12 0 0)
(0.000583292 1.93544e-07 0 6.42202e-11 0 0)
(0.000583242 7.0875e-08 0 8.61265e-12 0 0)
(0.000651661 7.125e-08 0 7.79019e-12 0 0)
(0.000651415 -5.52489e-08 0 4.68587e-12 0 0)
(0.000650381 1.61109e-07 0 3.99092e-11 0 0)
(0.00065082 8.78492e-08 0 1.18581e-11 0 0)
(0.000714417 -1.04508e-08 0 1.52878e-13 0 0)
(0.000713738 4.97604e-08 0 3.4692e-12 0 0)
(0.000713135 2.05421e-07 0 5.91722e-11 0 0)
(0.000713827 8.3053e-08 0 9.66311e-12 0 0)
(0.000771386 6.65012e-08 0 5.73306e-12 0 0)
(0.00077078 -1.35591e-08 0 2.38524e-13 0 0)
(0.00077083 1.93173e-07 0 4.84098e-11 0 0)
(0.000771747 7.4318e-08 0 7.15671e-12 0 0)
(0.000823104 1.39077e-08 0 2.34993e-13 0 0)
(0.000822253 1.27391e-08 0 1.97366e-13 0 0)
(0.000822778 1.91881e-07 0 4.47486e-11 0 0)
(0.000823918 9.16553e-08 0 1.0196e-11 0 0)
(0.000868682 4.77425e-08 0 2.62391e-12 0 0)
(0.000867721 4.26313e-08 0 2.09449e-12 0 0)
(0.00086875 2.02112e-07 0 4.70207e-11 0 0)
(0.000870024 6.88074e-08 0 5.44176e-12 0 0)
(4.11865e-05 -4.75965e-08 0 5.50041e-11 0 0)
(4.2061e-05 -7.83161e-08 0 1.45822e-10 0 0)
(4.17815e-05 -2.19161e-08 0 1.14959e-11 0 0)
(4.15631e-05 1.02323e-08 0 2.51906e-12 0 0)
(6.89779e-05 -5.5279e-08 0 4.43006e-11 0 0)
(6.40132e-05 -1.09116e-07 0 1.85999e-10 0 0)
(6.6967e-05 -3.06144e-08 0 1.39956e-11 0 0)
(6.5896e-05 -2.38479e-09 0 8.63058e-14 0 0)
(0.000111938 -3.71248e-08 0 1.23126e-11 0 0)
(0.000107691 -9.54356e-08 0 8.45747e-11 0 0)
(0.000111644 -5.87643e-08 0 3.09309e-11 0 0)
(0.000110657 2.78722e-08 0 7.02047e-12 0 0)
(0.000164906 5.71145e-08 0 1.97814e-11 0 0)
(0.000161468 -1.94209e-07 0 2.33588e-10 0 0)
(0.000165766 -6.24943e-08 0 2.35605e-11 0 0)
(0.000164627 6.18238e-08 0 2.32172e-11 0 0)
(0.000225603 4.44592e-08 0 8.7615e-12 0 0)
(0.000223598 -1.0934e-07 0 5.34673e-11 0 0)
(0.000227785 -1.28334e-07 0 7.23028e-11 0 0)
(0.000226507 3.95027e-08 0 6.88925e-12 0 0)
(0.000293113 1.33609e-07 0 6.09024e-11 0 0)
(0.000292018 -2.98323e-07 0 3.04764e-10 0 0)
(0.000295455 -1.07204e-07 0 3.88981e-11 0 0)
(0.00029402 8.7082e-08 0 2.57916e-11 0 0)
(0.000364596 1.05102e-07 0 3.02976e-11 0 0)
(0.000364477 -1.67583e-07 0 7.70532e-11 0 0)
(0.000366938 -1.83065e-07 0 9.13313e-11 0 0)
(0.000365242 3.06933e-08 0 2.57934e-12 0 0)
(0.000438347 1.87902e-07 0 8.0546e-11 0 0)
(0.000438659 -3.55919e-07 0 2.88785e-10 0 0)
(0.000439945 -1.38553e-07 0 4.36346e-11 0 0)
(0.000438317 8.98084e-08 0 1.84012e-11 0 0)
(0.0005122 1.32414e-07 0 3.42317e-11 0 0)
(0.000512339 -2.53049e-07 0 1.24983e-10 0 0)
(0.000512778 -2.07766e-07 0 8.41823e-11 0 0)
(0.000511466 3.38565e-08 0 2.24113e-12 0 0)
(0.000583902 2.13685e-07 0 7.81999e-11 0 0)
(0.000583869 -3.71807e-07 0 2.36766e-10 0 0)
(0.00058356 -1.62685e-07 0 4.53531e-11 0 0)
(0.000582796 7.91916e-08 0 1.07607e-11 0 0)
(0.000651608 1.58849e-07 0 3.87244e-11 0 0)
(0.000651488 -3.13406e-07 0 1.50768e-10 0 0)
(0.000651146 -2.07641e-07 0 6.62135e-11 0 0)
(0.000650614 3.89733e-08 0 2.33459e-12 0 0)
(0.000714379 2.11014e-07 0 6.23297e-11 0 0)
(0.000714483 -3.7924e-07 0 2.01297e-10 0 0)
(0.000713926 -1.87476e-07 0 4.92308e-11 0 0)
(0.000713596 6.86195e-08 0 6.59847e-12 0 0)
(0.000771691 1.7326e-07 0 3.89005e-11 0 0)
(0.000771906 -3.6999e-07 0 1.77344e-10 0 0)
(0.000771589 -2.13094e-07 0 5.88516e-11 0 0)
(0.000771039 6.05048e-08 0 4.74792e-12 0 0)
(0.00082337 2.23988e-07 0 6.09331e-11 0 0)
(0.000823787 -3.74147e-07 0 1.6993e-10 0 0)
(0.000823224 -1.92752e-07 0 4.51316e-11 0 0)
(0.000822653 6.16657e-08 0 4.62243e-12 0 0)
(0.000868957 1.78668e-07 0 3.67364e-11 0 0)
(0.000869419 -4.18789e-07 0 2.01726e-10 0 0)
(0.00086904 -2.25694e-07 0 5.86136e-11 0 0)
(0.000868483 7.73496e-08 0 6.88898e-12 0 0)
)
;

boundaryField
{
    topWall
    {
        type            calculated;
        value           nonuniform List<symmTensor> 0();
    }
    botWall
    {
        type            calculated;
        value           nonuniform List<symmTensor> 0();
    }
    inlet
    {
        type            cyclic;
    }
    outlet
    {
        type            cyclic;
    }
    fixWall
    {
        type            empty;
    }
    procBoundary4to3
    {
        type            processor;
        value           nonuniform List<symmTensor> 8((3.68494e-05 9.41547e-08 0 2.40577e-10 0 0) (3.63245e-05 4.61648e-08 0 5.86708e-11 0 0) (3.58398e-05 3.26295e-08 0 2.97068e-11 0 0) (3.55349e-05 -2.00211e-08 0 1.12803e-11 0 0) (3.58932e-05 -4.66307e-08 0 6.05804e-11 0 0) (3.65978e-05 -7.03876e-08 0 1.35375e-10 0 0) (3.63189e-05 -2.32746e-08 0 1.49153e-11 0 0) (3.61873e-05 1.23697e-08 0 4.22827e-12 0 0));
    }
    procBoundary4to5
    {
        type            processor;
        value           nonuniform List<symmTensor> 8((0.000908536 6.33783e-08 0 4.42119e-12 0 0) (0.0009074 -3.72021e-08 0 1.52523e-12 0 0) (0.000908719 1.81308e-07 0 3.61747e-11 0 0) (0.000910137 9.18852e-08 0 9.27651e-12 0 0) (0.000908829 2.28863e-07 0 5.7633e-11 0 0) (0.000909446 -3.75338e-07 0 1.54906e-10 0 0) (0.000908829 -1.92252e-07 0 4.06686e-11 0 0) (0.000908211 5.21548e-08 0 2.99503e-12 0 0));
    }
}


// ************************************************************************* //
