/*--------------------------------*- C++ -*----------------------------------*\
  =========                 |
  \\      /  F ield         | OpenFOAM: The Open Source CFD Toolbox
   \\    /   O peration     | Website:  https://openfoam.org
    \\  /    A nd           | Version:  dev
     \\/     M anipulation  |

   OpenFOAM for Windows 20.09 (v1)
   Built by CFD Support, www.cfdsupport.com (based on Symscape).
\*---------------------------------------------------------------------------*/
FoamFile
{
    version     2.0;
    format      ascii;
    class       surfaceScalarField;
    location    "6";
    object      alphaPhi0.water;
}
// * * * * * * * * * * * * * * * * * * * * * * * * * * * * * * * * * * * * * //

dimensions      [0 3 -1 0 0 0 0];

internalField   nonuniform List<scalar> 
217
(
1.64974e-82
3.44276e-87
1.4826e-82
3.04812e-87
1.12796e-82
-1.08242e-86
-4.54977e-88
6.83228e-83
7.62522e-85
1.88908e-89
6.83728e-85
1.77045e-89
5.15202e-85
-4.4069e-89
-1.70157e-90
2.91171e-85
3.08649e-87
6.90983e-92
2.77411e-87
6.82243e-92
2.14406e-87
-1.72315e-91
-6.16333e-93
1.21045e-87
1.22402e-89
2.5979e-94
1.08176e-89
2.67344e-94
8.66807e-90
-6.49746e-94
-2.11739e-95
4.90267e-90
4.62291e-92
9.2736e-97
4.16271e-92
1.00131e-96
3.40407e-92
-2.35079e-96
-7.39068e-98
1.89782e-92
1.66373e-94
3.08537e-99
1.53508e-94
3.5124e-99
1.2894e-94
-8.03318e-99
-2.53682e-100
7.06901e-95
5.691e-97
9.64671e-102
5.41933e-97
1.14232e-101
4.63591e-97
-2.56525e-101
-8.69725e-103
2.50709e-97
1.84603e-99
2.79092e-104
1.8817e-99
3.42402e-104
1.54782e-99
-7.57429e-104
-2.87033e-105
8.38894e-100
5.71396e-102
7.38463e-107
5.92804e-102
9.51057e-107
4.8097e-102
-2.06901e-106
-9.05587e-108
2.62329e-102
1.62695e-104
1.81994e-109
1.71407e-104
2.33686e-109
1.38448e-104
-5.16764e-109
-2.6401e-110
7.56826e-105
4.20782e-107
4.06623e-112
4.4923e-107
5.07412e-112
3.65151e-107
-1.1668e-111
-6.9894e-113
1.99874e-107
9.75544e-110
8.44756e-115
1.04972e-109
9.74207e-115
8.73553e-110
-2.37565e-114
-1.63798e-115
4.77811e-110
2.06514e-112
1.58226e-117
2.21562e-112
1.69254e-117
1.88404e-112
-4.37033e-117
-3.42336e-118
1.01757e-112
3.71953e-115
2.68935e-120
4.25366e-115
2.58193e-120
3.71769e-115
-7.26222e-120
-6.47355e-121
1.95318e-115
6.0083e-118
7.103e-118
6.57432e-118
3.41875e-118
3.57006e-82
1.10808e-84
2.89683e-82
-4.72233e-87
2.40976e-82
-1.30783e-87
-1.52484e-87
1.39342e-84
4.21389e-87
1.13696e-84
-1.51133e-89
9.65455e-85
-6.54044e-90
-1.02336e-89
5.40237e-87
1.56868e-89
4.42841e-87
-4.45191e-92
3.84516e-87
-2.81988e-92
-5.49304e-92
2.05088e-89
5.69123e-92
1.68835e-89
-1.16557e-94
1.49716e-89
-1.11706e-94
-2.59295e-94
7.56058e-92
1.98411e-94
6.24418e-92
-2.50134e-97
5.64604e-92
-3.93519e-97
-1.1028e-96
2.68141e-94
6.61375e-97
2.21252e-94
-3.31471e-100
2.02561e-94
-1.2684e-99
-4.27366e-99
9.09013e-97
2.09019e-99
7.46708e-97
4.69604e-103
6.90557e-97
-3.60594e-102
-1.50221e-101
2.91985e-99
6.20044e-102
2.3776e-99
5.56068e-105
2.21727e-99
-9.03537e-105
-4.72356e-104
8.79794e-102
1.71025e-104
7.12183e-102
2.60524e-107
6.66459e-102
-1.88701e-107
-1.32535e-106
2.46044e-104
4.33678e-107
1.97904e-104
8.86442e-110
1.85042e-104
-3.36443e-110
-3.28753e-109
6.31998e-107
9.99152e-110
5.02934e-107
2.46454e-112
4.64209e-107
-4.85494e-113
-7.15842e-112
1.47368e-109
2.08201e-112
1.16158e-109
5.58957e-115
1.05563e-109
-7.40875e-116
-1.35351e-114
3.09339e-112
3.85171e-115
2.41889e-112
1.07305e-117
2.17425e-112
-1.10553e-118
-2.21685e-117
5.79467e-115
6.21434e-118
4.51388e-115
1.75564e-120
4.00874e-115
-1.82472e-121
-3.2052e-120
9.61287e-118
7.48797e-118
6.54153e-118
)
;

boundaryField
{
    topWall
    {
        type            calculated;
        value           nonuniform List<scalar> 0();
    }
    botWall
    {
        type            calculated;
        value           nonuniform List<scalar> 0();
    }
    inlet
    {
        type            cyclic;
        value           nonuniform List<scalar> 
15
(
-2.28313e-82
-9.15463e-85
-3.66109e-87
-1.43213e-89
-5.42893e-92
-1.97718e-94
-6.84517e-97
-2.22963e-99
-6.76993e-102
-1.89555e-104
-4.82465e-107
-1.10395e-109
-2.25772e-112
-4.08926e-115
-6.66842e-118
)
;
    }
    outlet
    {
        type            cyclic;
        value           nonuniform List<scalar> 
15
(
2.28313e-82
9.15463e-85
3.66109e-87
1.43213e-89
5.42893e-92
1.97718e-94
6.84517e-97
2.22963e-99
6.76993e-102
1.89555e-104
4.82465e-107
1.10395e-109
2.25772e-112
4.08926e-115
6.66842e-118
)
;
    }
    fixWall
    {
        type            empty;
        value           nonuniform List<scalar> 0();
    }
    procBoundary6to5
    {
        type            processor;
        value           nonuniform List<scalar> 8(-1.09383e-84 -9.34754e-85 2.41465e-84 1.09768e-85 -3.79189e-82 1.41623e-84 2.36514e-85 1.07565e-85);
    }
    procBoundary6to7
    {
        type            processor;
        value           nonuniform List<scalar> 8(4.94675e-121 3.1479e-123 -7.70665e-123 -7.39144e-124 1.5231e-120 2.23669e-123 -1.77398e-124 -1.5228e-123);
    }
}


// ************************************************************************* //
