/*--------------------------------*- C++ -*----------------------------------*\
  =========                 |
  \\      /  F ield         | OpenFOAM: The Open Source CFD Toolbox
   \\    /   O peration     | Website:  https://openfoam.org
    \\  /    A nd           | Version:  dev
     \\/     M anipulation  |

   OpenFOAM for Windows 20.09 (v1)
   Built by CFD Support, www.cfdsupport.com (based on Symscape).
\*---------------------------------------------------------------------------*/
FoamFile
{
    version     2.0;
    format      ascii;
    class       volSymmTensorField;
    location    "6";
    object      devReff;
}
// * * * * * * * * * * * * * * * * * * * * * * * * * * * * * * * * * * * * * //

dimensions      [0 2 -2 0 0 0 0];

internalField   nonuniform List<symmTensor> 
120
(
(2.88605e-07 1.73782e-05 -0 -3.01101e-07 -0 1.24956e-08)
(4.64422e-07 8.9143e-06 -0 -4.16509e-07 -0 -4.79137e-08)
(2.62917e-07 1.24882e-05 -0 -2.711e-07 -0 8.18225e-09)
(1.39375e-07 2.03749e-05 -0 -7.60152e-08 -0 -6.33593e-08)
(1.43388e-07 3.85564e-05 -0 -1.31802e-07 -0 -1.15858e-08)
(4.48354e-07 2.79142e-05 -0 -4.83464e-07 -0 3.51106e-08)
(5.25082e-07 3.08446e-05 -0 -5.94768e-07 -0 6.96864e-08)
(2.53447e-07 4.02577e-05 -0 -3.01914e-07 -0 4.84663e-08)
(-1.36681e-08 6.16667e-05 -0 5.58467e-09 -0 8.08345e-09)
(2.3497e-07 5.16444e-05 -0 -2.17396e-07 -0 -1.75737e-08)
(6.52641e-07 5.40278e-05 -0 -6.3027e-07 -0 -2.2371e-08)
(2.27623e-07 6.19615e-05 -0 -1.86906e-07 -0 -4.07163e-08)
(-1.22337e-07 8.77569e-05 -0 1.19436e-07 -0 2.90059e-09)
(1.08864e-07 8.0591e-05 -0 -6.21405e-08 -0 -4.67236e-08)
(7.85913e-07 8.29523e-05 -0 -7.63983e-07 -0 -2.19302e-08)
(1.76267e-07 8.7021e-05 -0 -1.59009e-07 -0 -1.72577e-08)
(-1.98892e-07 0.000118307 -0 1.86296e-07 -0 1.25953e-08)
(9.55061e-08 0.000113261 -0 -1.01781e-07 -0 6.27515e-09)
(9.49455e-07 0.000116287 -0 -1.0012e-06 -0 5.17422e-08)
(1.79089e-07 0.000116667 -0 -2.09896e-07 -0 3.08068e-08)
(-2.53511e-07 0.000157179 -0 2.46741e-07 -0 6.76997e-09)
(5.93309e-08 0.000151762 -0 -3.36949e-08 -0 -2.56359e-08)
(9.37216e-07 0.000153473 -0 -9.45128e-07 -0 7.9117e-09)
(2.8547e-08 0.000152639 -0 -1.15325e-08 -0 -1.70145e-08)
(-2.87309e-07 0.000206258 -0 2.88943e-07 -0 -1.63441e-09)
(-5.74555e-08 0.000198199 -0 7.7202e-08 -0 -1.97464e-08)
(9.48648e-07 0.000196576 -0 -9.62802e-07 -0 1.41549e-08)
(-3.57298e-09 0.000196102 -0 6.25751e-09 -0 -2.68453e-09)
(-2.68999e-07 0.000259139 -0 2.63051e-07 -0 5.94867e-09)
(-2.50364e-07 0.000251554 -0 2.59436e-07 -0 -9.07236e-09)
(8.86907e-07 0.000248737 -0 -9.07296e-07 -0 2.03886e-08)
(-6.61872e-08 0.000248205 -0 6.80838e-08 -0 -1.89668e-09)
(-2.17161e-07 0.000318225 -0 2.17102e-07 -0 5.94817e-11)
(-3.92421e-07 0.000312733 -0 3.9685e-07 -0 -4.42874e-09)
(8.48724e-07 0.000311178 -0 -8.67909e-07 -0 1.91854e-08)
(-9.99608e-08 0.000310701 -0 1.03241e-07 -0 -3.28062e-09)
(-1.58998e-07 0.000390677 -0 1.44627e-07 -0 1.43708e-08)
(-4.92257e-07 0.000387514 -0 5.04814e-07 -0 -1.25572e-08)
(8.2542e-07 0.000386473 -0 -8.45804e-07 -0 2.03838e-08)
(-1.24917e-07 0.000385783 -0 1.22213e-07 -0 2.70353e-09)
(-5.71596e-08 0.000479062 -0 6.45578e-08 -0 -7.39822e-09)
(-5.40574e-07 0.00047726 -0 5.4964e-07 -0 -9.06627e-09)
(7.93454e-07 0.000476859 -0 -8.09234e-07 -0 1.57799e-08)
(-1.42296e-07 0.000476022 -0 1.47941e-07 -0 -5.64503e-09)
(-6.19974e-09 0.000585435 -0 1.75888e-08 -0 -1.13891e-08)
(-5.95501e-07 0.000585142 -0 6.34692e-07 -0 -3.91909e-08)
(7.74793e-07 0.000584877 -0 -7.80392e-07 -0 5.59873e-09)
(-1.83688e-07 0.000583799 -0 2.29821e-07 -0 -4.61327e-08)
(1.35224e-07 0.000712842 -0 -1.19778e-07 -0 -1.54463e-08)
(-6.00638e-07 0.000713229 -0 6.48161e-07 -0 -4.75234e-08)
(7.55427e-07 0.000713342 -0 -7.72884e-07 -0 1.74572e-08)
(-1.12129e-07 0.00071205 -0 9.83181e-08 -0 1.38107e-08)
(1.76815e-07 0.000863563 -0 -2.14799e-07 -0 3.79843e-08)
(-5.29741e-07 0.000864866 -0 5.17084e-07 -0 1.26572e-08)
(7.55912e-07 0.000865018 -0 -7.77214e-07 -0 2.13024e-08)
(-6.15298e-08 0.000863514 -0 1.96109e-08 -0 4.19189e-08)
(2.0093e-07 0.00104107 -0 -2.18912e-07 -0 1.79819e-08)
(-4.80939e-07 0.00104274 -0 4.54844e-07 -0 2.60949e-08)
(7.21746e-07 0.00104317 -0 -7.46177e-07 -0 2.4431e-08)
(-8.67899e-08 0.00104149 -0 9.73219e-08 -0 -1.05321e-08)
(-6.85845e-08 1.41661e-05 -0 7.5591e-08 -0 -7.00651e-09)
(6.59557e-07 1.30554e-05 -0 -6.47544e-07 -0 -1.20127e-08)
(-5.12522e-07 1.39205e-05 -0 5.55778e-07 -0 -4.32557e-08)
(-1.39069e-06 1.56733e-05 -0 1.39474e-06 -0 -4.05146e-09)
(-2.41299e-07 3.27821e-05 -0 2.21707e-07 -0 1.95922e-08)
(6.89606e-07 3.14703e-05 -0 -6.85731e-07 -0 -3.87481e-09)
(-4.28966e-07 3.40957e-05 -0 5.08454e-07 -0 -7.94881e-08)
(-1.34596e-06 3.67216e-05 -0 1.38022e-06 -0 -3.42569e-08)
(-3.91351e-07 5.36512e-05 -0 4.20347e-07 -0 -2.89964e-08)
(7.51698e-07 5.22567e-05 -0 -7.87236e-07 -0 3.55386e-08)
(-2.77988e-07 5.63599e-05 -0 2.6507e-07 -0 1.29178e-08)
(-1.25569e-06 5.9925e-05 -0 1.27434e-06 -0 -1.865e-08)
(-5.80635e-07 7.93139e-05 -0 5.69142e-07 -0 1.14926e-08)
(8.07303e-07 7.72937e-05 -0 -8.30412e-07 -0 2.31091e-08)
(-8.3293e-08 8.1137e-05 -0 7.61077e-08 -0 7.18532e-09)
(-1.10588e-06 8.61575e-05 -0 1.07846e-06 -0 2.74243e-08)
(-6.82291e-07 0.00011181 -0 6.70469e-07 -0 1.18224e-08)
(8.10889e-07 0.000109919 -0 -8.44824e-07 -0 3.39348e-08)
(-1.31369e-08 0.000110834 -0 3.41619e-08 -0 -2.10249e-08)
(-1.01953e-06 0.000117194 -0 1.02458e-06 -0 -5.05736e-09)
(-8.28141e-07 0.000148957 -0 8.31986e-07 -0 -3.84536e-09)
(7.60823e-07 0.000147043 -0 -7.7031e-07 -0 9.48701e-09)
(1.25023e-07 0.000146112 -0 -9.47729e-08 -0 -3.02497e-08)
(-8.91076e-07 0.000153873 -0 9.00287e-07 -0 -9.21154e-09)
(-8.82154e-07 0.000193236 -0 8.76799e-07 -0 5.3552e-09)
(7.02019e-07 0.000191729 -0 -7.22623e-07 -0 2.06038e-08)
(2.25588e-07 0.000188972 -0 -2.12484e-07 -0 -1.31036e-08)
(-6.33463e-07 0.000198533 -0 6.24109e-07 -0 9.35411e-09)
(-9.72952e-07 0.000245817 -0 9.69337e-07 -0 3.61428e-09)
(6.21272e-07 0.000244497 -0 -6.34333e-07 -0 1.30606e-08)
(3.50944e-07 0.000240419 -0 -3.16892e-07 -0 -3.4052e-08)
(-3.15277e-07 0.000249401 -0 3.27925e-07 -0 -1.26477e-08)
(-1.01381e-06 0.000309229 -0 1.01043e-06 -0 3.37672e-09)
(5.19105e-07 0.000308326 -0 -5.38e-07 -0 1.88949e-08)
(3.83406e-07 0.000303096 -0 -3.61948e-07 -0 -2.14579e-08)
(-2.40301e-08 0.000309595 -0 3.25228e-08 -0 -8.49265e-09)
(-1.05603e-06 0.000385224 -0 1.05071e-06 -0 5.32537e-09)
(4.16037e-07 0.00038445 -0 -4.29774e-07 -0 1.37371e-08)
(3.99188e-07 0.000378077 -0 -3.68684e-07 -0 -3.05038e-08)
(2.01625e-07 0.000382405 -0 -1.98229e-07 -0 -3.39568e-09)
(-1.0645e-06 0.000476511 -0 1.06221e-06 -0 2.28499e-09)
(2.78387e-07 0.00047608 -0 -2.96418e-07 -0 1.80308e-08)
(3.15914e-07 0.000468932 -0 -2.92959e-07 -0 -2.29551e-08)
(3.98236e-07 0.000471825 -0 -3.8867e-07 -0 -9.56575e-09)
(-1.08254e-06 0.000585149 -0 1.10095e-06 -0 -1.8412e-08)
(1.31164e-07 0.000584472 -0 -1.14369e-07 -0 -1.67955e-08)
(2.48679e-07 0.000577138 -0 -2.07614e-07 -0 -4.10648e-08)
(5.24575e-07 0.000579054 -0 -5.03244e-07 -0 -2.13306e-08)
(-1.01405e-06 0.000714316 -0 9.79497e-07 -0 3.45544e-08)
(4.91293e-09 0.000714039 -0 -1.82317e-08 -0 1.33187e-08)
(1.43003e-07 0.000708042 -0 -1.26041e-07 -0 -1.69628e-08)
(7.33136e-07 0.000709149 -0 -7.78812e-07 -0 4.5676e-08)
(-9.80177e-07 0.000866463 -0 9.58691e-07 -0 2.14863e-08)
(-1.62753e-08 0.000865267 -0 -3.03066e-08 -0 4.6582e-08)
(1.12016e-07 0.000862534 -0 -9.58094e-08 -0 -1.6207e-08)
(7.27355e-07 0.000863828 -0 -7.46006e-07 -0 1.8651e-08)
(-1.00673e-06 0.00104517 -0 1.01979e-06 -0 -1.30591e-08)
(-1.18059e-07 0.0010445 -0 9.52112e-08 -0 2.28479e-08)
(8.46445e-08 0.00104037 -0 -5.58845e-08 -0 -2.876e-08)
(6.70717e-07 0.00104097 -0 -6.17236e-07 -0 -5.34814e-08)
)
;

boundaryField
{
    topWall
    {
        type            calculated;
        value           nonuniform List<symmTensor> 0();
    }
    botWall
    {
        type            calculated;
        value           nonuniform List<symmTensor> 0();
    }
    inlet
    {
        type            cyclic;
    }
    outlet
    {
        type            cyclic;
    }
    fixWall
    {
        type            empty;
    }
    procBoundary6to5
    {
        type            processor;
        value           nonuniform List<symmTensor> 8((3.83741e-07 -3.06221e-06 -0 -3.83062e-07 -0 -6.78873e-10) (6.00712e-07 -9.87792e-06 -0 -6.22743e-07 -0 2.20305e-08) (1.4072e-07 -5.6815e-06 -0 -2.17003e-07 -0 7.62823e-08) (2.02855e-07 1.06573e-06 -0 -2.57615e-07 -0 5.476e-08) (2.86289e-08 -4.07481e-06 -0 -6.62902e-08 -0 3.76613e-08) (6.9729e-07 -5.46328e-06 -0 -6.94011e-07 -0 -3.2786e-09) (-5.09052e-07 -5.97163e-06 -0 5.78278e-07 -0 -6.9226e-08) (-1.45826e-06 -4.59375e-06 -0 1.48918e-06 -0 -3.09199e-08));
    }
    procBoundary6to7
    {
        type            processor;
        value           nonuniform List<symmTensor> 8((2.20806e-07 0.00124869 -0 -2.45984e-07 -0 2.51773e-08) (-4.52177e-07 0.00125041 -0 4.29694e-07 -0 2.24828e-08) (7.22024e-07 0.00125092 -0 -7.47097e-07 -0 2.50732e-08) (7.01455e-09 0.00124914 -0 -4.92352e-08 -0 4.22206e-08) (-8.94465e-07 0.00125328 -0 8.84579e-07 -0 9.88675e-09) (-1.73387e-07 0.00125115 -0 1.2238e-07 -0 5.10073e-08) (8.00043e-09 0.00125022 -0 -4.22882e-09 -0 -3.7716e-09) (7.33084e-07 0.00125238 -0 -7.31907e-07 -0 -1.17623e-09));
    }
}


// ************************************************************************* //
