/*--------------------------------*- C++ -*----------------------------------*\
  =========                 |
  \\      /  F ield         | OpenFOAM: The Open Source CFD Toolbox
   \\    /   O peration     | Website:  https://openfoam.org
    \\  /    A nd           | Version:  dev
     \\/     M anipulation  |

   OpenFOAM for Windows 20.09 (v1)
   Built by CFD Support, www.cfdsupport.com (based on Symscape).
\*---------------------------------------------------------------------------*/
FoamFile
{
    version     2.0;
    format      ascii;
    class       volScalarField;
    location    "6";
    object      epsilon;
}
// * * * * * * * * * * * * * * * * * * * * * * * * * * * * * * * * * * * * * //

dimensions      [0 2 -3 0 0 0 0];

internalField   nonuniform List<scalar> 
120
(
5.24542e-16
5.24424e-16
5.24385e-16
5.2434e-16
5.54668e-16
5.54556e-16
5.54548e-16
5.54492e-16
5.89253e-16
5.89148e-16
5.89172e-16
5.89104e-16
6.28931e-16
6.28835e-16
6.28888e-16
6.28808e-16
6.74469e-16
6.74383e-16
6.74463e-16
6.74371e-16
7.26805e-16
7.26729e-16
7.26834e-16
7.26731e-16
7.87088e-16
7.87023e-16
7.87151e-16
7.87037e-16
8.56737e-16
8.56685e-16
8.56836e-16
8.5671e-16
9.37522e-16
9.37487e-16
9.37661e-16
9.37524e-16
1.03168e-15
1.03166e-15
1.03186e-15
1.03171e-15
1.14203e-15
1.14204e-15
1.14226e-15
1.14209e-15
1.27224e-15
1.27227e-15
1.27251e-15
1.27233e-15
1.42705e-15
1.42711e-15
1.42738e-15
1.42718e-15
1.61277e-15
1.61286e-15
1.61314e-15
1.61292e-15
1.83784e-15
1.83796e-15
1.83826e-15
1.83803e-15
5.24239e-16
5.24267e-16
5.24275e-16
5.243e-16
5.54377e-16
5.54413e-16
5.54427e-16
5.54457e-16
5.88976e-16
5.89019e-16
5.8904e-16
5.89076e-16
6.28667e-16
6.28718e-16
6.28744e-16
6.28788e-16
6.74221e-16
6.74277e-16
6.74309e-16
6.74362e-16
7.26572e-16
7.26634e-16
7.26671e-16
7.26733e-16
7.86872e-16
7.86938e-16
7.86979e-16
7.87051e-16
8.56542e-16
8.56611e-16
8.56655e-16
8.56736e-16
9.37353e-16
9.37426e-16
9.37471e-16
9.37559e-16
1.03154e-15
1.03161e-15
1.03166e-15
1.03175e-15
1.14193e-15
1.142e-15
1.14205e-15
1.14215e-15
1.27218e-15
1.27225e-15
1.2723e-15
1.2724e-15
1.42703e-15
1.42711e-15
1.42717e-15
1.42726e-15
1.61279e-15
1.61286e-15
1.61293e-15
1.61302e-15
1.83791e-15
1.83798e-15
1.83805e-15
1.83814e-15
)
;

boundaryField
{
    topWall
    {
        type            epsilonWallFunction;
        value           nonuniform List<scalar> 0();
    }
    botWall
    {
        type            epsilonWallFunction;
        value           nonuniform List<scalar> 0();
    }
    inlet
    {
        type            cyclic;
    }
    outlet
    {
        type            cyclic;
    }
    fixWall
    {
        type            empty;
    }
    procBoundary6to5
    {
        type            processor;
        value           nonuniform List<scalar> 8(4.9806e-16 4.9794e-16 4.97876e-16 4.97839e-16 4.97752e-16 4.9777e-16 4.97774e-16 4.97794e-16);
    }
    procBoundary6to7
    {
        type            processor;
        value           nonuniform List<scalar> 8(2.11496e-15 2.1151e-15 2.11543e-15 2.11518e-15 2.11507e-15 2.11513e-15 2.11522e-15 2.11531e-15);
    }
}


// ************************************************************************* //
