/*--------------------------------*- C++ -*----------------------------------*\
  =========                 |
  \\      /  F ield         | OpenFOAM: The Open Source CFD Toolbox
   \\    /   O peration     | Website:  https://openfoam.org
    \\  /    A nd           | Version:  dev
     \\/     M anipulation  |

   OpenFOAM for Windows 20.09 (v1)
   Built by CFD Support, www.cfdsupport.com (based on Symscape).
\*---------------------------------------------------------------------------*/
FoamFile
{
    version     2.0;
    format      ascii;
    class       volVectorField;
    location    "6";
    object      gradp_rgh;
}
// * * * * * * * * * * * * * * * * * * * * * * * * * * * * * * * * * * * * * //

dimensions      [1 -2 -2 0 0 0 0];

internalField   nonuniform List<vector> 
120
(
(-1.26205 -0.00516526 0)
(-1.26561 -0.00598617 0)
(-1.26023 -0.000919444 0)
(-1.24867 0.00281815 0)
(-1.26203 -0.00519374 0)
(-1.26557 -0.00521743 0)
(-1.26016 0.000358724 0)
(-1.24866 0.00298521 0)
(-1.26201 -0.00526428 0)
(-1.26552 -0.0045975 0)
(-1.2601 0.00103214 0)
(-1.24866 0.00297354 0)
(-1.26199 -0.00527019 0)
(-1.26547 -0.00444464 0)
(-1.26004 0.00104485 0)
(-1.24866 0.00269732 0)
(-1.26196 -0.00521346 0)
(-1.26542 -0.0044759 0)
(-1.25998 0.00101621 0)
(-1.24866 0.0025561 0)
(-1.26195 -0.00513219 0)
(-1.26536 -0.00458146 0)
(-1.25992 0.00101876 0)
(-1.24866 0.0024226 0)
(-1.26193 -0.00509774 0)
(-1.26531 -0.00479979 0)
(-1.25986 0.000900695 0)
(-1.24866 0.0021676 0)
(-1.26193 -0.00508182 0)
(-1.26526 -0.00497692 0)
(-1.2598 0.000779083 0)
(-1.24865 0.00190831 0)
(-1.26193 -0.00505253 0)
(-1.26522 -0.00507354 0)
(-1.25975 0.000677132 0)
(-1.24865 0.00165128 0)
(-1.26193 -0.00499058 0)
(-1.26517 -0.00515841 0)
(-1.25969 0.000578429 0)
(-1.24865 0.00140903 0)
(-1.26194 -0.00494095 0)
(-1.26512 -0.00527128 0)
(-1.25964 0.000461977 0)
(-1.24864 0.00116138 0)
(-1.26195 -0.0048942 0)
(-1.26508 -0.00541294 0)
(-1.25958 0.000327893 0)
(-1.24864 0.000907181 0)
(-1.26197 -0.00465428 0)
(-1.26504 -0.00537972 0)
(-1.25953 0.000282331 0)
(-1.24863 0.00100721 0)
(-1.26199 -0.00396601 0)
(-1.265 -0.00467746 0)
(-1.25948 0.0004179 0)
(-1.24862 0.0016848 0)
(-1.26201 -0.00293484 0)
(-1.26496 -0.0031977 0)
(-1.25942 0.000705101 0)
(-1.24861 0.00251673 0)
(-1.23912 0.000532198 0)
(-1.23276 0.00066594 0)
(-1.2386 -0.00219343 0)
(-1.25295 -0.00690781 0)
(-1.23914 0.000955552 0)
(-1.2328 -0.000579607 0)
(-1.23866 -0.00387277 0)
(-1.25297 -0.00726989 0)
(-1.23918 0.00110903 0)
(-1.23284 -0.00141062 0)
(-1.23872 -0.004875 0)
(-1.25297 -0.00750423 0)
(-1.23921 0.00112206 0)
(-1.2329 -0.00181862 0)
(-1.23876 -0.00507888 0)
(-1.25297 -0.00731742 0)
(-1.23925 0.00119083 0)
(-1.23295 -0.00199245 0)
(-1.23881 -0.00499554 0)
(-1.25297 -0.00685809 0)
(-1.23929 0.0012096 0)
(-1.233 -0.00210988 0)
(-1.23885 -0.00488902 0)
(-1.25298 -0.00637194 0)
(-1.23933 0.00118299 0)
(-1.23305 -0.0022487 0)
(-1.23888 -0.00475063 0)
(-1.25298 -0.00583639 0)
(-1.23936 0.00116224 0)
(-1.2331 -0.00238908 0)
(-1.23891 -0.00462858 0)
(-1.25298 -0.00532866 0)
(-1.2394 0.00114287 0)
(-1.23315 -0.00253652 0)
(-1.23893 -0.00454468 0)
(-1.25299 -0.00490223 0)
(-1.23943 0.00113424 0)
(-1.23319 -0.00268264 0)
(-1.23894 -0.00445945 0)
(-1.25299 -0.00448053 0)
(-1.23947 0.00113107 0)
(-1.23324 -0.00282312 0)
(-1.23896 -0.00435925 0)
(-1.253 -0.00405387 0)
(-1.2395 0.00113396 0)
(-1.23328 -0.00294573 0)
(-1.23897 -0.0042189 0)
(-1.253 -0.00360507 0)
(-1.23953 0.00131397 0)
(-1.23333 -0.00281465 0)
(-1.23897 -0.00393778 0)
(-1.25301 -0.0029918 0)
(-1.23956 0.00160409 0)
(-1.23337 -0.00215719 0)
(-1.23897 -0.00345681 0)
(-1.25301 -0.00247369 0)
(-1.2396 0.00164446 0)
(-1.23341 -0.00115883 0)
(-1.23897 -0.00289716 0)
(-1.25302 -0.00259945 0)
)
;

boundaryField
{
    topWall
    {
        type            extrapolatedCalculated;
        value           nonuniform List<vector> 0();
    }
    botWall
    {
        type            extrapolatedCalculated;
        value           nonuniform List<vector> 0();
    }
    inlet
    {
        type            cyclic;
    }
    outlet
    {
        type            cyclic;
    }
    fixWall
    {
        type            empty;
    }
    procBoundary6to5
    {
        type            processor;
        value           nonuniform List<vector> 8((-1.26205 -0.00523669 0) (-1.26564 -0.00679224 0) (-1.26031 -0.00250406 0) (-1.24869 0.00243513 0) (-1.23911 -0.00012837 0) (-1.23275 0.00197276 0) (-1.23854 -0.000361599 0) (-1.25292 -0.00661927 0));
    }
    procBoundary6to7
    {
        type            processor;
        value           nonuniform List<vector> 8((-1.262 -0.00188673 0) (-1.26494 -0.00139991 0) (-1.25938 0.00103105 0) (-1.2486 0.00323596 0) (-1.23963 0.00144139 0) (-1.23345 -7.99495e-05 0) (-1.23899 -0.00230907 0) (-1.25301 -0.0032098 0));
    }
}


// ************************************************************************* //
