/*--------------------------------*- C++ -*----------------------------------*\
  =========                 |
  \\      /  F ield         | OpenFOAM: The Open Source CFD Toolbox
   \\    /   O peration     | Website:  https://openfoam.org
    \\  /    A nd           | Version:  dev
     \\/     M anipulation  |

   OpenFOAM for Windows 20.09 (v1)
   Built by CFD Support, www.cfdsupport.com (based on Symscape).
\*---------------------------------------------------------------------------*/
FoamFile
{
    version     2.0;
    format      ascii;
    class       volVectorField;
    location    "6";
    object      gradp;
}
// * * * * * * * * * * * * * * * * * * * * * * * * * * * * * * * * * * * * * //

dimensions      [1 -2 -2 0 0 0 0];

internalField   nonuniform List<vector> 
120
(
(3.73795 -9.81517 0)
(-1.26561 -9.81599 0)
(-1.26023 -9.81092 0)
(-1.24867 -9.80718 0)
(3.73797 -9.81519 0)
(-1.26557 -9.81522 0)
(-1.26016 -9.80964 0)
(-1.24866 -9.80701 0)
(3.73799 -9.81526 0)
(-1.26552 -9.8146 0)
(-1.2601 -9.80897 0)
(-1.24866 -9.80703 0)
(3.73801 -9.81527 0)
(-1.26547 -9.81444 0)
(-1.26004 -9.80896 0)
(-1.24866 -9.8073 0)
(3.73804 -9.81521 0)
(-1.26542 -9.81448 0)
(-1.25998 -9.80898 0)
(-1.24866 -9.80744 0)
(3.73805 -9.81513 0)
(-1.26536 -9.81458 0)
(-1.25992 -9.80898 0)
(-1.24866 -9.80758 0)
(3.73807 -9.8151 0)
(-1.26531 -9.8148 0)
(-1.25986 -9.8091 0)
(-1.24866 -9.80783 0)
(3.73807 -9.81508 0)
(-1.26526 -9.81498 0)
(-1.2598 -9.80922 0)
(-1.24865 -9.80809 0)
(3.73807 -9.81505 0)
(-1.26522 -9.81507 0)
(-1.25975 -9.80932 0)
(-1.24865 -9.80835 0)
(3.73807 -9.81499 0)
(-1.26517 -9.81516 0)
(-1.25969 -9.80942 0)
(-1.24865 -9.80859 0)
(3.73806 -9.81494 0)
(-1.26512 -9.81527 0)
(-1.25964 -9.80954 0)
(-1.24864 -9.80884 0)
(3.73805 -9.81489 0)
(-1.26508 -9.81541 0)
(-1.25958 -9.80967 0)
(-1.24864 -9.80909 0)
(3.73803 -9.81465 0)
(-1.26504 -9.81538 0)
(-1.25953 -9.80972 0)
(-1.24863 -9.80899 0)
(3.73801 -9.81397 0)
(-1.265 -9.81468 0)
(-1.25948 -9.80958 0)
(-1.24862 -9.80832 0)
(3.73799 -9.81293 0)
(-1.26496 -9.8132 0)
(-1.25942 -9.80929 0)
(-1.24861 -9.80748 0)
(-1.23912 -9.80947 0)
(-1.23276 -9.80933 0)
(-1.2386 -9.81219 0)
(3.74705 -9.81691 0)
(-1.23914 -9.80904 0)
(-1.2328 -9.81058 0)
(-1.23866 -9.81387 0)
(3.74703 -9.81727 0)
(-1.23918 -9.80889 0)
(-1.23284 -9.81141 0)
(-1.23872 -9.81488 0)
(3.74703 -9.8175 0)
(-1.23921 -9.80888 0)
(-1.2329 -9.81182 0)
(-1.23876 -9.81508 0)
(3.74703 -9.81732 0)
(-1.23925 -9.80881 0)
(-1.23295 -9.81199 0)
(-1.23881 -9.815 0)
(3.74703 -9.81686 0)
(-1.23929 -9.80879 0)
(-1.233 -9.81211 0)
(-1.23885 -9.81489 0)
(3.74702 -9.81637 0)
(-1.23933 -9.80882 0)
(-1.23305 -9.81225 0)
(-1.23888 -9.81475 0)
(3.74702 -9.81584 0)
(-1.23936 -9.80884 0)
(-1.2331 -9.81239 0)
(-1.23891 -9.81463 0)
(3.74702 -9.81533 0)
(-1.2394 -9.80886 0)
(-1.23315 -9.81254 0)
(-1.23893 -9.81454 0)
(3.74701 -9.8149 0)
(-1.23943 -9.80887 0)
(-1.23319 -9.81268 0)
(-1.23894 -9.81446 0)
(3.74701 -9.81448 0)
(-1.23947 -9.80887 0)
(-1.23324 -9.81282 0)
(-1.23896 -9.81436 0)
(3.747 -9.81405 0)
(-1.2395 -9.80887 0)
(-1.23328 -9.81295 0)
(-1.23897 -9.81422 0)
(3.747 -9.81361 0)
(-1.23953 -9.80869 0)
(-1.23333 -9.81281 0)
(-1.23897 -9.81394 0)
(3.74699 -9.81299 0)
(-1.23956 -9.8084 0)
(-1.23337 -9.81216 0)
(-1.23897 -9.81346 0)
(3.74699 -9.81247 0)
(-1.2396 -9.80836 0)
(-1.23341 -9.81116 0)
(-1.23897 -9.8129 0)
(3.74698 -9.8126 0)
)
;

boundaryField
{
    topWall
    {
        type            extrapolatedCalculated;
        value           nonuniform List<vector> 0();
    }
    botWall
    {
        type            extrapolatedCalculated;
        value           nonuniform List<vector> 0();
    }
    inlet
    {
        type            cyclic;
    }
    outlet
    {
        type            cyclic;
    }
    fixWall
    {
        type            empty;
    }
    procBoundary6to5
    {
        type            processor;
        value           nonuniform List<vector> 8((3.73795 -9.81524 0) (-1.26564 -9.81679 0) (-1.26031 -9.8125 0) (-1.24869 -9.80756 0) (-1.23911 -9.81013 0) (-1.23275 -9.80803 0) (-1.23854 -9.81036 0) (3.74708 -9.81662 0));
    }
    procBoundary6to7
    {
        type            processor;
        value           nonuniform List<vector> 8((3.738 -9.81189 0) (-1.26494 -9.8114 0) (-1.25938 -9.80897 0) (-1.2486 -9.80676 0) (-1.23963 -9.80856 0) (-1.23345 -9.81008 0) (-1.23899 -9.81231 0) (3.74699 -9.81321 0));
    }
}


// ************************************************************************* //
