/*--------------------------------*- C++ -*----------------------------------*\
  =========                 |
  \\      /  F ield         | OpenFOAM: The Open Source CFD Toolbox
   \\    /   O peration     | Website:  https://openfoam.org
    \\  /    A nd           | Version:  dev
     \\/     M anipulation  |

   OpenFOAM for Windows 20.09 (v1)
   Built by CFD Support, www.cfdsupport.com (based on Symscape).
\*---------------------------------------------------------------------------*/
FoamFile
{
    version     2.0;
    format      ascii;
    class       volTensorField;
    location    "6";
    object      gradU;
}
// * * * * * * * * * * * * * * * * * * * * * * * * * * * * * * * * * * * * * //

dimensions      [0 0 -1 0 0 0 0];

internalField   nonuniform List<tensor> 
120
(
(-0.00073169 0.000171284 0 -0.0922755 0.00083103 0 0 0 0)
(-0.00135769 -0.000562229 0 -0.0466836 0.000976777 0 0 0 0)
(-0.000675048 -0.000216929 0 -0.0659707 0.000740097 0 0 0 0)
(-0.000537245 0.000858689 0 -0.108846 3.3538e-05 0 0 0 0)
(-0.000410681 0.000212471 0 -0.204562 0.000318574 0 0 0 0)
(-0.00109509 -0.000559423 0 -0.147386 0.00137422 0 0 0 0)
(-0.0012068 -0.000221505 0 -0.163255 0.00176081 0 0 0 0)
(-0.0005432 0.000844236 0 -0.21421 0.000928507 0 0 0 0)
(5.76417e-05 0.00025666 0 -0.32709 6.62176e-06 0 0 0 0)
(-0.000669241 -0.000538192 0 -0.273177 0.00052953 0 0 0 0)
(-0.00178878 -0.000224358 0 -0.286123 0.00161093 0 0 0 0)
(-0.000711098 0.000820415 0 -0.329216 0.000387404 0 0 0 0)
(0.000331879 0.000278404 0 -0.46539 -0.00030882 0 0 0 0)
(-0.000412307 -0.000532685 0 -0.426599 4.08549e-05 0 0 0 0)
(-0.00214078 -0.000223874 0 -0.439423 0.00196644 0 0 0 0)
(-0.00051284 0.000797542 0 -0.462009 0.000375642 0 0 0 0)
(0.00056044 0.000303761 0 -0.627332 -0.000460308 0 0 0 0)
(-0.000236462 -0.000500271 0 -0.599785 0.000286349 0 0 0 0)
(-0.00237894 -0.000218778 0 -0.616103 0.00279029 0 0 0 0)
(-0.000392948 0.000763012 0 -0.619097 0.000637863 0 0 0 0)
(0.000689745 0.000328652 0 -0.833375 -0.000635924 0 0 0 0)
(-0.000225162 -0.000478508 0 -0.803858 2.13563e-05 0 0 0 0)
(-0.00246266 -0.000218015 0 -0.813191 0.00252555 0 0 0 0)
(-0.000120738 0.000721947 0 -0.809706 -1.45273e-05 0 0 0 0)
(0.000757038 0.000344287 0 -1.09351 -0.000770031 0 0 0 0)
(9.99291e-05 -0.000447579 0 -1.05001 -0.000256913 0 0 0 0)
(-0.00247641 -0.000219376 0 -1.04163 0.00258894 0 0 0 0)
(2.35437e-06 0.000684003 0 -1.04002 -2.36964e-05 0 0 0 0)
(0.000728613 0.000351522 0 -1.37379 -0.000681321 0 0 0 0)
(0.000639423 -0.000422525 0 -1.33282 -0.000711548 0 0 0 0)
(-0.00229627 -0.000214128 0 -1.31809 0.00245836 0 0 0 0)
(0.00017037 0.000640309 0 -1.31613 -0.000185448 0 0 0 0)
(0.000575635 0.00034747 0 -1.68694 -0.000575162 0 0 0 0)
(0.00102818 -0.000395251 0 -1.65709 -0.00106339 0 0 0 0)
(-0.00219828 -0.000210608 0 -1.64903 0.0023508 0 0 0 0)
(0.000256203 0.000600378 0 -1.64732 -0.000282284 0 0 0 0)
(0.000459428 0.00033561 0 -2.07093 -0.00034518 0 0 0 0)
(0.0012712 -0.000373759 0 -2.05345 -0.00137103 0 0 0 0)
(-0.00213335 -0.00020111 0 -2.04811 0.0022954 0 0 0 0)
(0.000338193 0.000556651 0 -2.04521 -0.0003167 0 0 0 0)
(0.000131868 0.000316014 0 -2.53934 -0.000190683 0 0 0 0)
(0.0014085 -0.000351242 0 -2.52913 -0.00148057 0 0 0 0)
(-0.00206084 -0.000193036 0 -2.52716 0.00218629 0 0 0 0)
(0.000362124 0.00051595 0 -2.52343 -0.000407002 0 0 0 0)
(-1.37517e-05 0.00029419 0 -3.1031 -7.67913e-05 0 0 0 0)
(0.00147422 -0.000334143 0 -3.10092 -0.00178579 0 0 0 0)
(-0.00203837 -0.000183217 0 -3.09967 0.00208288 0 0 0 0)
(0.000364522 0.000473399 0 -3.09461 -0.000731277 0 0 0 0)
(-0.000399276 0.000264966 0 -3.77833 0.000276478 0 0 0 0)
(0.00146575 -0.000315247 0 -3.7798 -0.00184356 0 0 0 0)
(-0.00195562 -0.00017546 0 -3.78054 0.00209441 0 0 0 0)
(0.00033374 0.000431797 0 -3.7743 -0.000223945 0 0 0 0)
(-0.000367901 0.000227049 0 -4.57711 0.000669877 0 0 0 0)
(0.00143735 -0.000303844 0 -4.58349 -0.00133673 0 0 0 0)
(-0.00194672 -0.000156223 0 -4.58444 0.00211607 0 0 0 0)
(0.000274139 0.000396757 0 -4.57702 5.91163e-05 0 0 0 0)
(-0.000484812 0.000208915 0 -5.51785 0.000627768 0 0 0 0)
(0.00134364 -0.000291144 0 -5.52622 -0.00113619 0 0 0 0)
(-0.00184788 -0.000152196 0 -5.52862 0.00204211 0 0 0 0)
(0.000202083 0.000355136 0 -5.52023 -0.000285813 0 0 0 0)
(0.000163182 -6.44929e-05 0 -0.0750157 -0.000218883 0 0 0 0)
(-0.00177966 -0.000393557 0 -0.0688002 0.00168416 0 0 0 0)
(0.00124356 0.000110139 0 -0.0738887 -0.00158744 0 0 0 0)
(0.00367459 9.70967e-05 0 -0.0831655 -0.0037068 0 0 0 0)
(0.000691362 -5.91992e-05 0 -0.173686 -0.000535604 0 0 0 0)
(-0.00183772 -0.00040614 0 -0.166386 0.00180692 0 0 0 0)
(0.000926117 6.8233e-05 0 -0.180776 -0.00155805 0 0 0 0)
(0.00347602 0.000121327 0 -0.194746 -0.00374836 0 0 0 0)
(0.00096024 -4.98527e-05 0 -0.284302 -0.00119076 0 0 0 0)
(-0.00189782 -0.000410597 0 -0.27655 0.00218035 0 0 0 0)
(0.000770899 1.75507e-05 0 -0.298725 -0.000668203 0 0 0 0)
(0.00327816 0.000128374 0 -0.317731 -0.00342643 0 0 0 0)
(0.00156914 -2.93167e-05 0 -0.420334 -0.00147777 0 0 0 0)
(-0.00207811 -0.000397431 0 -0.409259 0.00226183 0 0 0 0)
(0.000239768 -2.52134e-05 0 -0.430001 -0.000182644 0 0 0 0)
(0.00300326 0.000132574 0 -0.456767 -0.00278524 0 0 0 0)
(0.0018394 -1.84162e-05 0 -0.592577 -0.00174541 0 0 0 0)
(-0.00205893 -0.000389012 0 -0.582182 0.00232871 0 0 0 0)
(-2.09032e-05 -6.65671e-05 0 -0.587353 -0.000146245 0 0 0 0)
(0.00268834 0.000126271 0 -0.621257 -0.00272855 0 0 0 0)
(0.00218438 -1.13586e-06 0 -0.789473 -0.00221495 0 0 0 0)
(-0.00199104 -0.000370778 0 -0.778956 0.00206646 0 0 0 0)
(-0.000411472 -0.000109501 0 -0.774282 0.000170987 0 0 0 0)
(0.00233694 0.00012734 0 -0.815654 -0.00241017 0 0 0 0)
(0.0023519 1.62669e-05 0 -1.02417 -0.00230933 0 0 0 0)
(-0.00180575 -0.000349246 0 -1.01581 0.00196955 0 0 0 0)
(-0.000632532 -0.000141178 0 -1.00141 0.000528359 0 0 0 0)
(0.00170347 0.000112822 0 -1.05234 -0.0016291 0 0 0 0)
(0.0025879 3.20849e-05 0 -1.30286 -0.00255917 0 0 0 0)
(-0.00161176 -0.000323483 0 -1.29551 0.00171559 0 0 0 0)
(-0.00102024 -0.000169479 0 -1.27405 0.000749525 0 0 0 0)
(0.000801969 0.0001057 0 -1.32193 -0.000902518 0 0 0 0)
(0.00269553 4.7951e-05 0 -1.63896 -0.00266869 0 0 0 0)
(-0.00132556 -0.000294101 0 -1.63383 0.00147577 0 0 0 0)
(-0.00107289 -0.000184813 0 -1.60622 0.0009023 0 0 0 0)
(4.11742e-05 8.89749e-05 0 -1.64094 -0.000108691 0 0 0 0)
(0.0028126 6.13858e-05 0 -2.04175 -0.00277026 0 0 0 0)
(-0.00106609 -0.000263967 0 -2.03732 0.0011753 0 0 0 0)
(-0.00113868 -0.000195886 0 -2.00361 0.000896178 0 0 0 0)
(-0.000543304 8.10753e-05 0 -2.02683 0.000516308 0 0 0 0)
(0.00282697 7.28177e-05 0 -2.52558 -0.00280881 0 0 0 0)
(-0.000689945 -0.000232994 0 -2.52299 0.00083329 0 0 0 0)
(-0.000898004 -0.000195796 0 -2.48514 0.000715511 0 0 0 0)
(-0.00108068 6.82856e-05 0 -2.50074 0.00100463 0 0 0 0)
(0.00281994 8.20574e-05 0 -3.10137 -0.00296631 0 0 0 0)
(-0.000392094 -0.000205228 0 -3.0975 0.00025857 0 0 0 0)
(-0.000767821 -0.000193031 0 -3.05864 0.000441355 0 0 0 0)
(-0.00144665 6.59721e-05 0 -3.06905 0.00127707 0 0 0 0)
(0.00277881 8.93151e-05 0 -3.78596 -0.0025041 0 0 0 0)
(2.22753e-05 -0.000176199 0 -3.78423 8.36085e-05 0 0 0 0)
(-0.00042391 -0.000178821 0 -3.75244 0.000289056 0 0 0 0)
(-0.00182177 5.96498e-05 0 -3.75855 0.00218489 0 0 0 0)
(0.00265441 8.71832e-05 0 -4.59234 -0.00248359 0 0 0 0)
(0.000166572 -0.000158675 0 -4.58576 0.000203755 0 0 0 0)
(-0.000339792 -0.000158009 0 -4.57127 0.000210946 0 0 0 0)
(-0.00187807 6.57625e-05 0 -4.57836 0.00202634 0 0 0 0)
(0.00263322 9.17258e-05 0 -5.53947 -0.00273704 0 0 0 0)
(0.000373404 -0.00013129 0 -5.5357 -0.000191763 0 0 0 0)
(-0.000300522 -0.000148445 0 -5.51379 7.188e-05 0 0 0 0)
(-0.00191913 6.72987e-05 0 -5.51719 0.00149395 0 0 0 0)
)
;

boundaryField
{
    topWall
    {
        type            extrapolatedCalculated;
        value           nonuniform List<tensor> 0();
    }
    botWall
    {
        type            extrapolatedCalculated;
        value           nonuniform List<tensor> 0();
    }
    inlet
    {
        type            cyclic;
    }
    outlet
    {
        type            cyclic;
    }
    fixWall
    {
        type            empty;
    }
    procBoundary6to5
    {
        type            processor;
        value           nonuniform List<tensor> 8((-0.00101871 0.000134411 0 0.0160953 0.00101332 0 0 0 0) (-0.00153351 -0.000557908 0 0.0529109 0.00170865 0 0 0 0) (-0.000170761 -0.000205784 0 0.0303177 0.000777205 0 0 0 0) (-0.000392451 0.000860219 0 -0.0065086 0.000827794 0 0 0 0) (2.39359e-05 -8.67095e-05 0 0.0216832 0.000275472 0 0 0 0) (-0.00185651 -0.000383331 0 0.0293387 0.00183044 0 0 0 0) (0.00116554 0.000158082 0 0.0314916 -0.00171588 0 0 0 0) (0.00378246 8.1019e-05 0 0.0242658 -0.00402828 0 0 0 0));
    }
    procBoundary6to7
    {
        type            processor;
        value           nonuniform List<tensor> 8((-0.000518417 0.000183213 0 -6.61825 0.000718576 0 0 0 0) (0.00125785 -0.000280272 0 -6.6269 -0.00107911 0 0 0 0) (-0.00184692 -0.00014205 0 -6.62972 0.00204625 0 0 0 0) (9.32961e-05 0.000317105 0 -6.62077 0.000242358 0 0 0 0) (0.00239653 8.87507e-05 0 -6.64248 -0.00231793 0 0 0 0) (0.000594645 -0.00011186 0 -6.63099 -0.000189136 0 0 0 0) (-3.11959e-05 -0.000129914 0 -6.62603 1.21163e-06 0 0 0 0) (-0.00194579 7.50273e-05 0 -6.63769 0.00193644 0 0 0 0));
    }
}


// ************************************************************************* //
