/*--------------------------------*- C++ -*----------------------------------*\
  =========                 |
  \\      /  F ield         | OpenFOAM: The Open Source CFD Toolbox
   \\    /   O peration     | Website:  https://openfoam.org
    \\  /    A nd           | Version:  dev
     \\/     M anipulation  |

   OpenFOAM for Windows 20.09 (v1)
   Built by CFD Support, www.cfdsupport.com (based on Symscape).
\*---------------------------------------------------------------------------*/
FoamFile
{
    version     2.0;
    format      ascii;
    class       volScalarField;
    location    "6";
    object      nut;
}
// * * * * * * * * * * * * * * * * * * * * * * * * * * * * * * * * * * * * * //

dimensions      [0 2 -1 0 0 0 0];

internalField   nonuniform List<scalar> 
120
(
8.45946e-18
8.46136e-18
8.46199e-18
8.46272e-18
8e-18
8.00161e-18
8.00173e-18
8.00253e-18
7.53045e-18
7.53179e-18
7.53149e-18
7.53236e-18
7.05538e-18
7.05645e-18
7.05586e-18
7.05676e-18
6.57902e-18
6.57985e-18
6.57908e-18
6.57997e-18
6.10527e-18
6.10591e-18
6.10503e-18
6.1059e-18
5.63767e-18
5.63814e-18
5.63722e-18
5.63804e-18
5.17935e-18
5.17967e-18
5.17875e-18
5.17951e-18
4.73305e-18
4.73323e-18
4.73235e-18
4.73305e-18
4.3011e-18
4.30117e-18
4.30035e-18
4.30097e-18
3.88548e-18
3.88547e-18
3.88471e-18
3.88527e-18
3.48782e-18
3.48774e-18
3.48707e-18
3.48756e-18
3.10944e-18
3.10932e-18
3.10874e-18
3.10917e-18
2.75138e-18
2.75123e-18
2.75075e-18
2.75112e-18
2.41443e-18
2.41427e-18
2.41388e-18
2.41419e-18
8.46435e-18
8.4639e-18
8.46377e-18
8.46337e-18
8.0042e-18
8.00368e-18
8.00347e-18
8.00304e-18
7.534e-18
7.53345e-18
7.53318e-18
7.53272e-18
7.05833e-18
7.05777e-18
7.05747e-18
7.05698e-18
6.58144e-18
6.58089e-18
6.58057e-18
6.58006e-18
6.10723e-18
6.10671e-18
6.1064e-18
6.10588e-18
5.63922e-18
5.63874e-18
5.63845e-18
5.63793e-18
5.18053e-18
5.18011e-18
5.17985e-18
5.17936e-18
4.73391e-18
4.73354e-18
4.73331e-18
4.73287e-18
4.30168e-18
4.30137e-18
4.30117e-18
4.30079e-18
3.88583e-18
3.88558e-18
3.88541e-18
3.88509e-18
3.488e-18
3.48779e-18
3.48764e-18
3.48739e-18
3.10949e-18
3.10933e-18
3.1092e-18
3.109e-18
2.75135e-18
2.75123e-18
2.75111e-18
2.75095e-18
2.41435e-18
2.41425e-18
2.41415e-18
2.41404e-18
)
;

boundaryField
{
    topWall
    {
        type            nutkWallFunction;
        Cmu             0.09;
        kappa           0.41;
        E               9.8;
        value           nonuniform List<scalar> 0();
    }
    botWall
    {
        type            nutkWallFunction;
        Cmu             0.09;
        kappa           0.41;
        E               9.8;
        value           nonuniform List<scalar> 0();
    }
    inlet
    {
        type            cyclic;
    }
    outlet
    {
        type            cyclic;
    }
    fixWall
    {
        type            empty;
    }
    procBoundary6to5
    {
        type            processor;
        value           nonuniform List<scalar> 8(8.90925e-18 8.9114e-18 8.91254e-18 8.9132e-18 8.91477e-18 8.91445e-18 8.91437e-18 8.91401e-18);
    }
    procBoundary6to7
    {
        type            processor;
        value           nonuniform List<scalar> 8(2.09808e-18 2.09794e-18 2.09761e-18 2.09785e-18 2.09796e-18 2.09791e-18 2.09781e-18 2.09773e-18);
    }
}


// ************************************************************************* //
