/*--------------------------------*- C++ -*----------------------------------*\
  =========                 |
  \\      /  F ield         | OpenFOAM: The Open Source CFD Toolbox
   \\    /   O peration     | Website:  https://openfoam.org
    \\  /    A nd           | Version:  dev
     \\/     M anipulation  |

   OpenFOAM for Windows 20.09 (v1)
   Built by CFD Support, www.cfdsupport.com (based on Symscape).
\*---------------------------------------------------------------------------*/
FoamFile
{
    version     2.0;
    format      ascii;
    class       volScalarField;
    location    "6";
    object      omega;
}
// * * * * * * * * * * * * * * * * * * * * * * * * * * * * * * * * * * * * * //

dimensions      [0 0 -1 0 0 0 0];

internalField   nonuniform List<scalar> 
120
(
26.2481
26.2422
26.2402
26.238
27.7556
27.75
27.7496
27.7468
29.4862
29.481
29.4822
29.4788
31.4717
31.4669
31.4695
31.4655
33.7504
33.7461
33.7501
33.7455
36.3693
36.3655
36.3708
36.3656
39.3859
39.3826
39.389
39.3833
42.8711
42.8685
42.8761
42.8698
46.9136
46.9118
46.9205
46.9137
51.625
51.6242
51.6341
51.6266
57.1473
57.1474
57.1586
57.1504
63.6629
63.6643
63.6766
63.6676
71.4098
71.4127
71.4259
71.4161
80.7028
80.7073
80.7214
80.7108
91.9655
91.9717
91.9864
91.9749
26.2329
26.2343
26.2347
26.2359
27.741
27.7428
27.7435
27.745
29.4723
29.4745
29.4755
29.4774
31.4585
31.461
31.4624
31.4646
33.738
33.7408
33.7424
33.7451
36.3577
36.3608
36.3626
36.3657
39.3751
39.3784
39.3804
39.384
42.8613
42.8648
42.867
42.8711
46.9051
46.9088
46.9111
46.9154
51.6181
51.6218
51.6242
51.6288
57.1421
57.1458
57.1483
57.153
63.6597
63.6634
63.6661
63.6708
71.4087
71.4124
71.4154
71.42
80.704
80.7075
80.711
80.7155
91.9689
91.9723
91.9762
91.9805
)
;

boundaryField
{
    topWall
    {
        beta1           0.075;
        blended         0;
        type            omegaWallFunction;
        value           nonuniform List<scalar> 0();
    }
    botWall
    {
        beta1           0.075;
        blended         0;
        type            omegaWallFunction;
        value           nonuniform List<scalar> 0();
    }
    inlet
    {
        type            cyclic;
    }
    outlet
    {
        type            cyclic;
    }
    fixWall
    {
        type            empty;
    }
    procBoundary6to5
    {
        type            processor;
        value           nonuniform List<scalar> 8(24.9229 24.9169 24.9137 24.9119 24.9075 24.9084 24.9086 24.9096);
    }
    procBoundary6to7
    {
        type            processor;
        value           nonuniform List<scalar> 8(105.832 105.839 105.856 105.844 105.838 105.841 105.846 105.85);
    }
}


// ************************************************************************* //
