/*--------------------------------*- C++ -*----------------------------------*\
  =========                 |
  \\      /  F ield         | OpenFOAM: The Open Source CFD Toolbox
   \\    /   O peration     | Website:  https://openfoam.org
    \\  /    A nd           | Version:  dev
     \\/     M anipulation  |

   OpenFOAM for Windows 20.09 (v1)
   Built by CFD Support, www.cfdsupport.com (based on Symscape).
\*---------------------------------------------------------------------------*/
FoamFile
{
    version     2.0;
    format      ascii;
    class       volScalarField;
    location    "6";
    object      p;
}
// * * * * * * * * * * * * * * * * * * * * * * * * * * * * * * * * * * * * * //

dimensions      [1 -1 -2 0 0 0 0];

internalField   nonuniform List<scalar> 
120
(
-5.13757
-5.20079
-5.26413
-5.32682
-5.14575
-5.20897
-5.2723
-5.33499
-5.15393
-5.21715
-5.28048
-5.34316
-5.1621
-5.22533
-5.28865
-5.35134
-5.17028
-5.23351
-5.29683
-5.35951
-5.17846
-5.24169
-5.305
-5.36768
-5.18664
-5.24987
-5.31317
-5.37585
-5.19482
-5.25805
-5.32135
-5.38403
-5.203
-5.26623
-5.32952
-5.3922
-5.21118
-5.27441
-5.3377
-5.40037
-5.21936
-5.28259
-5.34587
-5.40855
-5.22754
-5.29076
-5.35405
-5.41672
-5.23572
-5.29894
-5.36222
-5.4249
-5.2439
-5.30712
-5.3704
-5.43307
-5.25207
-5.3153
-5.37857
-5.44124
-5.389
-5.45073
-5.51227
-5.57459
-5.39717
-5.4589
-5.52045
-5.58277
-5.40534
-5.46708
-5.52863
-5.59095
-5.41352
-5.47526
-5.53681
-5.59913
-5.42169
-5.48343
-5.54499
-5.60731
-5.42987
-5.49161
-5.55317
-5.61549
-5.43804
-5.49979
-5.56134
-5.62368
-5.44621
-5.50796
-5.56952
-5.63185
-5.45439
-5.51614
-5.5777
-5.64003
-5.46256
-5.52432
-5.58588
-5.64821
-5.47074
-5.5325
-5.59406
-5.65639
-5.47891
-5.54067
-5.60224
-5.66457
-5.48708
-5.54885
-5.61042
-5.67275
-5.49526
-5.55703
-5.61859
-5.68092
-5.50343
-5.5652
-5.62677
-5.6891
)
;

boundaryField
{
    topWall
    {
        type            calculated;
        value           nonuniform List<scalar> 0();
    }
    botWall
    {
        type            calculated;
        value           nonuniform List<scalar> 0();
    }
    inlet
    {
        type            cyclic;
    }
    outlet
    {
        type            cyclic;
    }
    fixWall
    {
        type            empty;
    }
    procBoundary6to5
    {
        type            processor;
        value           nonuniform List<scalar> 8(-5.12939 -5.19261 -5.25595 -5.31865 -5.38082 -5.44256 -5.5041 -5.56641);
    }
    procBoundary6to7
    {
        type            processor;
        value           nonuniform List<scalar> 8(-5.26025 -5.32348 -5.38674 -5.44942 -5.51161 -5.57338 -5.63495 -5.69728);
    }
}


// ************************************************************************* //
