/*--------------------------------*- C++ -*----------------------------------*\
  =========                 |
  \\      /  F ield         | OpenFOAM: The Open Source CFD Toolbox
   \\    /   O peration     | Website:  https://openfoam.org
    \\  /    A nd           | Version:  dev
     \\/     M anipulation  |

   OpenFOAM for Windows 20.09 (v1)
   Built by CFD Support, www.cfdsupport.com (based on Symscape).
\*---------------------------------------------------------------------------*/
FoamFile
{
    version     2.0;
    format      ascii;
    class       volScalarField;
    location    "6";
    object      p_rgh;
}
// * * * * * * * * * * * * * * * * * * * * * * * * * * * * * * * * * * * * * //

dimensions      [1 -1 -2 0 0 0 0];

internalField   nonuniform List<scalar> 
120
(
-4.39773
-4.46096
-4.52429
-4.58698
-4.39773
-4.46096
-4.52429
-4.58698
-4.39774
-4.46097
-4.52429
-4.58698
-4.39774
-4.46097
-4.52429
-4.58697
-4.39775
-4.46097
-4.52429
-4.58697
-4.39775
-4.46098
-4.52429
-4.58697
-4.39776
-4.46098
-4.52429
-4.58697
-4.39776
-4.46099
-4.52429
-4.58697
-4.39776
-4.46099
-4.52429
-4.58696
-4.39777
-4.46099
-4.52428
-4.58696
-4.39777
-4.461
-4.52428
-4.58696
-4.39778
-4.461
-4.52428
-4.58696
-4.39778
-4.46101
-4.52428
-4.58696
-4.39778
-4.46101
-4.52428
-4.58696
-4.39779
-4.46101
-4.52428
-4.58696
-4.64916
-4.71089
-4.77243
-4.83475
-4.64916
-4.71089
-4.77244
-4.83476
-4.64916
-4.71089
-4.77244
-4.83476
-4.64916
-4.71089
-4.77244
-4.83477
-4.64915
-4.7109
-4.77245
-4.83478
-4.64915
-4.7109
-4.77245
-4.83478
-4.64915
-4.7109
-4.77246
-4.83479
-4.64915
-4.7109
-4.77246
-4.83479
-4.64915
-4.7109
-4.77246
-4.8348
-4.64915
-4.71091
-4.77247
-4.8348
-4.64915
-4.71091
-4.77247
-4.8348
-4.64915
-4.71091
-4.77248
-4.83481
-4.64915
-4.71091
-4.77248
-4.83481
-4.64915
-4.71092
-4.77248
-4.83481
-4.64914
-4.71092
-4.77249
-4.83481
)
;

boundaryField
{
    topWall
    {
        type            zeroGradient;
    }
    botWall
    {
        type            zeroGradient;
    }
    inlet
    {
        type            fixedJump;
        patchType       cyclic;
        jump            uniform -0.5;
        value           nonuniform List<scalar> 
15
(
-4.36624
-4.36625
-4.36625
-4.36626
-4.36626
-4.36627
-4.36627
-4.36628
-4.36628
-4.36628
-4.36629
-4.36629
-4.36629
-4.3663
-4.3663
)
;
    }
    outlet
    {
        type            fixedJump;
        patchType       cyclic;
        value           nonuniform List<scalar> 
15
(
-4.86624
-4.86625
-4.86625
-4.86626
-4.86626
-4.86627
-4.86627
-4.86628
-4.86628
-4.86628
-4.86629
-4.86629
-4.86629
-4.8663
-4.8663
)
;
    }
    fixWall
    {
        type            empty;
    }
    procBoundary6to5
    {
        type            processor;
        value           nonuniform List<scalar> 8(-4.39772 -4.46095 -4.52429 -4.58698 -4.64916 -4.71089 -4.77243 -4.83475);
    }
    procBoundary6to7
    {
        type            processor;
        value           nonuniform List<scalar> 8(-4.39779 -4.46102 -4.52428 -4.58695 -4.64914 -4.71092 -4.77249 -4.83482);
    }
}


// ************************************************************************* //
