/*--------------------------------*- C++ -*----------------------------------*\
  =========                 |
  \\      /  F ield         | OpenFOAM: The Open Source CFD Toolbox
   \\    /   O peration     | Website:  https://openfoam.org
    \\  /    A nd           | Version:  dev
     \\/     M anipulation  |

   OpenFOAM for Windows 20.09 (v1)
   Built by CFD Support, www.cfdsupport.com (based on Symscape).
\*---------------------------------------------------------------------------*/
FoamFile
{
    version     2.0;
    format      ascii;
    class       surfaceScalarField;
    location    "6";
    object      phi;
}
// * * * * * * * * * * * * * * * * * * * * * * * * * * * * * * * * * * * * * //

dimensions      [0 3 -1 0 0 0 0];

internalField   nonuniform List<scalar> 
217
(
2.6082e-07
4.70566e-10
2.60768e-07
8.69658e-10
2.60733e-07
-2.33519e-09
-2.26882e-10
2.60711e-07
2.60734e-07
4.89514e-10
2.60693e-07
9.10886e-10
2.60636e-07
-2.27833e-09
-2.04818e-10
2.60614e-07
2.60575e-07
4.88868e-10
2.60552e-07
9.3444e-10
2.60471e-07
-2.1972e-09
-1.75808e-10
2.60442e-07
2.60318e-07
4.76721e-10
2.60305e-07
9.47379e-10
2.60209e-07
-2.10146e-09
-1.55087e-10
2.60188e-07
2.59956e-07
4.5498e-10
2.5995e-07
9.53083e-10
2.59845e-07
-1.99587e-09
-1.39358e-10
2.59829e-07
2.59466e-07
4.2777e-10
2.5946e-07
9.58428e-10
2.59351e-07
-1.88689e-09
-1.34947e-10
2.59347e-07
2.58819e-07
3.977e-10
2.58827e-07
9.50323e-10
2.58718e-07
-1.77741e-09
-1.35655e-10
2.58718e-07
2.57977e-07
3.68781e-10
2.58008e-07
9.19825e-10
2.57906e-07
-1.67552e-09
-1.43347e-10
2.57913e-07
2.56939e-07
3.46197e-10
2.56986e-07
8.73231e-10
2.56888e-07
-1.5778e-09
-1.54589e-10
2.569e-07
2.55655e-07
3.28423e-10
2.55712e-07
8.16613e-10
2.55617e-07
-1.48287e-09
-1.69214e-10
2.55631e-07
2.54075e-07
3.24272e-10
2.54138e-07
7.54377e-10
2.54046e-07
-1.39105e-09
-1.84794e-10
2.54061e-07
2.52135e-07
3.26169e-10
2.522e-07
6.89505e-10
2.52109e-07
-1.30027e-09
-2.00424e-10
2.52125e-07
2.49767e-07
3.44141e-10
2.49832e-07
6.25091e-10
2.49744e-07
-1.21303e-09
-2.14715e-10
2.49759e-07
2.46887e-07
3.60771e-10
2.4695e-07
5.61959e-10
2.46863e-07
-1.12626e-09
-2.26475e-10
2.46875e-07
2.43406e-07
2.43465e-07
2.43382e-07
2.43391e-07
2.60716e-07
1.924e-09
2.60637e-07
-5.34375e-10
2.60697e-07
-6.5595e-11
-9.63108e-11
2.60642e-07
1.89655e-09
2.6056e-07
-4.52341e-10
2.60607e-07
-1.12424e-10
-2.43175e-10
2.6048e-07
1.85794e-09
2.60396e-07
-3.67834e-10
2.60436e-07
-1.52792e-10
-3.81729e-10
2.60252e-07
1.79399e-09
2.6016e-07
-2.75828e-10
2.60179e-07
-1.7105e-10
-5.08766e-10
2.59904e-07
1.71878e-09
2.59813e-07
-1.84617e-10
2.5982e-07
-1.78458e-10
-6.22632e-10
2.59436e-07
1.62918e-09
2.59348e-07
-9.62269e-11
2.59339e-07
-1.69597e-10
-7.21807e-10
2.58815e-07
1.53259e-09
2.58734e-07
-1.55429e-11
2.58716e-07
-1.51527e-10
-7.94562e-10
2.5802e-07
1.42614e-09
2.57947e-07
5.70789e-11
2.57913e-07
-1.17325e-10
-8.29715e-10
2.57011e-07
1.31517e-09
2.5695e-07
1.17802e-10
2.56913e-07
-8.09213e-11
-8.3317e-10
2.55747e-07
1.19928e-09
2.55697e-07
1.67746e-10
2.55658e-07
-4.17655e-11
-8.12285e-10
2.54178e-07
1.08274e-09
2.54144e-07
2.02057e-10
2.54115e-07
-1.26237e-11
-7.69032e-10
2.52241e-07
9.6643e-10
2.52219e-07
2.24005e-10
2.52196e-07
1.11109e-11
-7.10565e-10
2.49873e-07
8.51757e-10
2.49869e-07
2.28771e-10
2.49859e-07
2.04991e-11
-6.36534e-10
2.46984e-07
7.42197e-10
2.46986e-07
2.27545e-10
2.4698e-07
2.64431e-11
-5.60196e-10
2.435e-07
2.43509e-07
2.43505e-07
)
;

boundaryField
{
    topWall
    {
        type            calculated;
        value           nonuniform List<scalar> 0();
    }
    botWall
    {
        type            calculated;
        value           nonuniform List<scalar> 0();
    }
    inlet
    {
        type            cyclic;
        value           nonuniform List<scalar> 
15
(
-2.60852e-07
-2.60753e-07
-2.60575e-07
-2.60306e-07
-2.59934e-07
-2.59438e-07
-2.58789e-07
-2.57948e-07
-2.56917e-07
-2.55637e-07
-2.54071e-07
-2.52137e-07
-2.49785e-07
-2.46903e-07
-2.43427e-07
)
;
    }
    outlet
    {
        type            cyclic;
        value           nonuniform List<scalar> 
15
(
2.60852e-07
2.60753e-07
2.60575e-07
2.60306e-07
2.59934e-07
2.59438e-07
2.58789e-07
2.57948e-07
2.56917e-07
2.55637e-07
2.54071e-07
2.52137e-07
2.49785e-07
2.46903e-07
2.43427e-07
)
;
    }
    fixWall
    {
        type            empty;
        value           nonuniform List<scalar> 0();
    }
    procBoundary6to5
    {
        type            processor;
        value           nonuniform List<scalar> 8(-4.38735e-10 -8.1781e-10 2.36927e-09 2.46561e-10 -1.92935e-09 6.13813e-10 4.98635e-12 -5.84616e-11);
    }
    procBoundary6to7
    {
        type            processor;
        value           nonuniform List<scalar> 8(3.83532e-10 5.01644e-10 -1.04466e-09 -2.36018e-10 6.34557e-10 2.17341e-10 3.00076e-11 -4.82684e-10);
    }
}


// ************************************************************************* //
