/*--------------------------------*- C++ -*----------------------------------*\
  =========                 |
  \\      /  F ield         | OpenFOAM: The Open Source CFD Toolbox
   \\    /   O peration     | Website:  https://openfoam.org
    \\  /    A nd           | Version:  dev
     \\/     M anipulation  |

   OpenFOAM for Windows 20.09 (v1)
   Built by CFD Support, www.cfdsupport.com (based on Symscape).
\*---------------------------------------------------------------------------*/
FoamFile
{
    version     2.0;
    format      ascii;
    class       volSymmTensorField;
    location    "6";
    object      R;
}
// * * * * * * * * * * * * * * * * * * * * * * * * * * * * * * * * * * * * * //

dimensions      [0 2 -2 0 0 0 0];

internalField   nonuniform List<symmTensor> 
120
(
(1.48043e-16 7.79152e-19 -0 1.48016e-16 -0 1.4803e-16)
(1.48051e-16 3.99764e-19 -0 1.48011e-16 -0 1.48028e-16)
(1.48042e-16 5.6008e-19 -0 1.48018e-16 -0 1.4803e-16)
(1.48036e-16 9.13865e-19 -0 1.48026e-16 -0 1.48027e-16)
(1.48036e-16 1.63479e-18 -0 1.48024e-16 -0 1.48029e-16)
(1.48049e-16 1.1838e-18 -0 1.48009e-16 -0 1.48031e-16)
(1.48052e-16 1.30809e-18 -0 1.48005e-16 -0 1.48033e-16)
(1.4804e-16 1.70747e-18 -0 1.48017e-16 -0 1.48032e-16)
(1.48029e-16 2.46121e-18 -0 1.4803e-16 -0 1.4803e-16)
(1.48039e-16 2.06157e-18 -0 1.48021e-16 -0 1.48029e-16)
(1.48056e-16 2.15662e-18 -0 1.48005e-16 -0 1.48029e-16)
(1.48039e-16 2.47359e-18 -0 1.48022e-16 -0 1.48028e-16)
(1.48025e-16 3.28154e-18 -0 1.48034e-16 -0 1.4803e-16)
(1.48034e-16 3.01403e-18 -0 1.48027e-16 -0 1.48028e-16)
(1.48059e-16 3.10209e-18 -0 1.48001e-16 -0 1.48029e-16)
(1.48036e-16 3.25466e-18 -0 1.48024e-16 -0 1.48029e-16)
(1.48023e-16 4.12523e-18 -0 1.48036e-16 -0 1.4803e-16)
(1.48033e-16 3.94979e-18 -0 1.48026e-16 -0 1.4803e-16)
(1.48063e-16 4.05483e-18 -0 1.47995e-16 -0 1.48032e-16)
(1.48036e-16 4.06862e-18 -0 1.48022e-16 -0 1.48031e-16)
(1.48022e-16 5.08597e-18 -0 1.48038e-16 -0 1.4803e-16)
(1.48032e-16 4.91121e-18 -0 1.48029e-16 -0 1.48029e-16)
(1.4806e-16 4.96589e-18 -0 1.47999e-16 -0 1.4803e-16)
(1.48031e-16 4.93957e-18 -0 1.48029e-16 -0 1.48029e-16)
(1.48021e-16 6.16291e-18 -0 1.48038e-16 -0 1.4803e-16)
(1.48028e-16 5.9226e-18 -0 1.48032e-16 -0 1.48029e-16)
(1.48058e-16 5.87316e-18 -0 1.48001e-16 -0 1.4803e-16)
(1.4803e-16 5.85983e-18 -0 1.4803e-16 -0 1.4803e-16)
(1.48022e-16 7.11352e-18 -0 1.48037e-16 -0 1.4803e-16)
(1.48023e-16 6.90573e-18 -0 1.48037e-16 -0 1.48029e-16)
(1.48054e-16 6.82719e-18 -0 1.48005e-16 -0 1.4803e-16)
(1.48028e-16 6.81359e-18 -0 1.48032e-16 -0 1.4803e-16)
(1.48024e-16 7.98273e-18 -0 1.48035e-16 -0 1.4803e-16)
(1.4802e-16 7.84527e-18 -0 1.4804e-16 -0 1.4803e-16)
(1.48051e-16 7.80481e-18 -0 1.48008e-16 -0 1.4803e-16)
(1.48027e-16 7.79398e-18 -0 1.48032e-16 -0 1.4803e-16)
(1.48026e-16 8.90582e-18 -0 1.48033e-16 -0 1.4803e-16)
(1.48019e-16 8.83386e-18 -0 1.48041e-16 -0 1.48029e-16)
(1.48049e-16 8.80844e-18 -0 1.4801e-16 -0 1.4803e-16)
(1.48027e-16 8.79398e-18 -0 1.48033e-16 -0 1.4803e-16)
(1.48029e-16 9.86534e-18 -0 1.48031e-16 -0 1.4803e-16)
(1.48019e-16 9.82822e-18 -0 1.48041e-16 -0 1.4803e-16)
(1.48046e-16 9.81804e-18 -0 1.48013e-16 -0 1.4803e-16)
(1.48027e-16 9.8022e-18 -0 1.48033e-16 -0 1.4803e-16)
(1.4803e-16 1.0822e-17 -0 1.4803e-16 -0 1.4803e-16)
(1.48019e-16 1.08164e-17 -0 1.48041e-16 -0 1.48029e-16)
(1.48044e-16 1.08094e-17 -0 1.48015e-16 -0 1.4803e-16)
(1.48026e-16 1.0791e-17 -0 1.48034e-16 -0 1.48029e-16)
(1.48032e-16 1.17477e-17 -0 1.48028e-16 -0 1.48029e-16)
(1.4802e-16 1.17536e-17 -0 1.4804e-16 -0 1.48029e-16)
(1.48042e-16 1.17533e-17 -0 1.48017e-16 -0 1.4803e-16)
(1.48028e-16 1.17336e-17 -0 1.48031e-16 -0 1.4803e-16)
(1.48032e-16 1.25928e-17 -0 1.48027e-16 -0 1.4803e-16)
(1.48022e-16 1.26111e-17 -0 1.48037e-16 -0 1.4803e-16)
(1.48041e-16 1.26111e-17 -0 1.48018e-16 -0 1.4803e-16)
(1.48029e-16 1.25908e-17 -0 1.4803e-16 -0 1.4803e-16)
(1.48032e-16 1.3322e-17 -0 1.48027e-16 -0 1.4803e-16)
(1.48024e-16 1.33425e-17 -0 1.48036e-16 -0 1.4803e-16)
(1.48039e-16 1.33458e-17 -0 1.4802e-16 -0 1.4803e-16)
(1.48029e-16 1.3326e-17 -0 1.48031e-16 -0 1.4803e-16)
(1.48027e-16 6.35505e-19 -0 1.48033e-16 -0 1.48029e-16)
(1.48059e-16 5.85649e-19 -0 1.48001e-16 -0 1.48029e-16)
(1.48007e-16 6.24445e-19 -0 1.48055e-16 -0 1.48028e-16)
(1.47967e-16 7.03039e-19 -0 1.48092e-16 -0 1.4803e-16)
(1.4802e-16 1.39069e-18 -0 1.48039e-16 -0 1.48031e-16)
(1.48059e-16 1.33495e-18 -0 1.48001e-16 -0 1.4803e-16)
(1.48012e-16 1.44629e-18 -0 1.48051e-16 -0 1.48026e-16)
(1.47973e-16 1.55759e-18 -0 1.48088e-16 -0 1.48028e-16)
(1.48014e-16 2.1423e-18 -0 1.48047e-16 -0 1.48029e-16)
(1.4806e-16 2.08647e-18 -0 1.47998e-16 -0 1.48031e-16)
(1.48019e-16 2.25022e-18 -0 1.4804e-16 -0 1.4803e-16)
(1.4798e-16 2.39241e-18 -0 1.48081e-16 -0 1.48029e-16)
(1.48008e-16 2.96707e-18 -0 1.48051e-16 -0 1.4803e-16)
(1.4806e-16 2.89126e-18 -0 1.47999e-16 -0 1.48031e-16)
(1.48027e-16 3.03489e-18 -0 1.48033e-16 -0 1.4803e-16)
(1.47988e-16 3.22246e-18 -0 1.4807e-16 -0 1.48031e-16)
(1.48006e-16 3.90013e-18 -0 1.48053e-16 -0 1.4803e-16)
(1.48058e-16 3.83384e-18 -0 1.48e-16 -0 1.48031e-16)
(1.48029e-16 3.86556e-18 -0 1.48031e-16 -0 1.48029e-16)
(1.47994e-16 4.08708e-18 -0 1.48065e-16 -0 1.4803e-16)
(1.48003e-16 4.8215e-18 -0 1.48057e-16 -0 1.4803e-16)
(1.48054e-16 4.75912e-18 -0 1.48005e-16 -0 1.4803e-16)
(1.48034e-16 4.72875e-18 -0 1.48027e-16 -0 1.48029e-16)
(1.48001e-16 4.97951e-18 -0 1.48059e-16 -0 1.48029e-16)
(1.48003e-16 5.77542e-18 -0 1.48056e-16 -0 1.4803e-16)
(1.48051e-16 5.72987e-18 -0 1.48008e-16 -0 1.4803e-16)
(1.48036e-16 5.64721e-18 -0 1.48023e-16 -0 1.48029e-16)
(1.48011e-16 5.93238e-18 -0 1.48048e-16 -0 1.4803e-16)
(1.48003e-16 6.74936e-18 -0 1.48056e-16 -0 1.4803e-16)
(1.48047e-16 6.71256e-18 -0 1.48012e-16 -0 1.4803e-16)
(1.48039e-16 6.60027e-18 -0 1.48021e-16 -0 1.48029e-16)
(1.48021e-16 6.84621e-18 -0 1.48039e-16 -0 1.48029e-16)
(1.48004e-16 7.75848e-18 -0 1.48055e-16 -0 1.4803e-16)
(1.48043e-16 7.73521e-18 -0 1.48016e-16 -0 1.4803e-16)
(1.48039e-16 7.60363e-18 -0 1.48021e-16 -0 1.48029e-16)
(1.48029e-16 7.76594e-18 -0 1.48031e-16 -0 1.4803e-16)
(1.48006e-16 8.7827e-18 -0 1.48054e-16 -0 1.4803e-16)
(1.48039e-16 8.7644e-18 -0 1.4802e-16 -0 1.4803e-16)
(1.48039e-16 8.61873e-18 -0 1.48021e-16 -0 1.48029e-16)
(1.48034e-16 8.7166e-18 -0 1.48025e-16 -0 1.4803e-16)
(1.48008e-16 9.8137e-18 -0 1.48052e-16 -0 1.4803e-16)
(1.48035e-16 9.80418e-18 -0 1.48024e-16 -0 1.4803e-16)
(1.48036e-16 9.65655e-18 -0 1.48024e-16 -0 1.48029e-16)
(1.48038e-16 9.71533e-18 -0 1.48022e-16 -0 1.4803e-16)
(1.4801e-16 1.08173e-17 -0 1.4805e-16 -0 1.48029e-16)
(1.48032e-16 1.08041e-17 -0 1.48028e-16 -0 1.48029e-16)
(1.48034e-16 1.06681e-17 -0 1.48026e-16 -0 1.48029e-16)
(1.48039e-16 1.07027e-17 -0 1.4802e-16 -0 1.48029e-16)
(1.48013e-16 1.17721e-17 -0 1.48046e-16 -0 1.4803e-16)
(1.4803e-16 1.1767e-17 -0 1.48029e-16 -0 1.4803e-16)
(1.48032e-16 1.16676e-17 -0 1.48028e-16 -0 1.48029e-16)
(1.48042e-16 1.16851e-17 -0 1.48017e-16 -0 1.4803e-16)
(1.48015e-16 1.26349e-17 -0 1.48044e-16 -0 1.4803e-16)
(1.48029e-16 1.26169e-17 -0 1.48029e-16 -0 1.4803e-16)
(1.48031e-16 1.25765e-17 -0 1.48028e-16 -0 1.4803e-16)
(1.4804e-16 1.25947e-17 -0 1.48019e-16 -0 1.4803e-16)
(1.48017e-16 1.3374e-17 -0 1.48043e-16 -0 1.4803e-16)
(1.48028e-16 1.33649e-17 -0 1.48031e-16 -0 1.4803e-16)
(1.48031e-16 1.33115e-17 -0 1.48029e-16 -0 1.48029e-16)
(1.48038e-16 1.33186e-17 -0 1.48022e-16 -0 1.48029e-16)
)
;

boundaryField
{
    topWall
    {
        type            kqRWallFunction;
        value           nonuniform List<symmTensor> 0();
    }
    botWall
    {
        type            kqRWallFunction;
        value           nonuniform List<symmTensor> 0();
    }
    inlet
    {
        type            cyclic;
    }
    outlet
    {
        type            cyclic;
    }
    fixWall
    {
        type            empty;
    }
    procBoundary6to5
    {
        type            processor;
        value           nonuniform List<symmTensor> 8((1.48048e-16 -1.44594e-19 -0 1.48012e-16 -0 1.4803e-16) (1.48058e-16 -4.66538e-19 -0 1.48e-16 -0 1.48031e-16) (1.48036e-16 -2.68374e-19 -0 1.48019e-16 -0 1.48033e-16) (1.48039e-16 5.03451e-20 -0 1.48018e-16 -0 1.48032e-16) (1.48031e-16 -1.92528e-19 -0 1.48027e-16 -0 1.48032e-16) (1.48063e-16 -2.58121e-19 -0 1.47997e-16 -0 1.4803e-16) (1.48006e-16 -2.82137e-19 -0 1.48057e-16 -0 1.48026e-16) (1.47961e-16 -2.17028e-19 -0 1.481e-16 -0 1.48028e-16));
    }
    procBoundary6to7
    {
        type            processor;
        value           nonuniform List<symmTensor> 8((1.48032e-16 1.38852e-17 -0 1.48027e-16 -0 1.4803e-16) (1.48025e-16 1.39034e-17 -0 1.48035e-16 -0 1.4803e-16) (1.48038e-16 1.39069e-17 -0 1.48021e-16 -0 1.4803e-16) (1.4803e-16 1.38887e-17 -0 1.48029e-16 -0 1.4803e-16) (1.4802e-16 1.39355e-17 -0 1.4804e-16 -0 1.4803e-16) (1.48028e-16 1.39114e-17 -0 1.48031e-16 -0 1.4803e-16) (1.4803e-16 1.39005e-17 -0 1.4803e-16 -0 1.4803e-16) (1.48038e-16 1.39239e-17 -0 1.48022e-16 -0 1.4803e-16));
    }
}


// ************************************************************************* //
