/*--------------------------------*- C++ -*----------------------------------*\
  =========                 |
  \\      /  F ield         | OpenFOAM: The Open Source CFD Toolbox
   \\    /   O peration     | Website:  https://openfoam.org
    \\  /    A nd           | Version:  dev
     \\/     M anipulation  |

   OpenFOAM for Windows 20.09 (v1)
   Built by CFD Support, www.cfdsupport.com (based on Symscape).
\*---------------------------------------------------------------------------*/
FoamFile
{
    version     2.0;
    format      ascii;
    class       volVectorField;
    location    "6";
    object      U;
}
// * * * * * * * * * * * * * * * * * * * * * * * * * * * * * * * * * * * * * //

dimensions      [0 1 -1 0 0 0 0];

internalField   nonuniform List<vector> 
120
(
(0.313064 9.1335e-06 0)
(0.3129 1.68379e-05 0)
(0.312928 -4.70894e-05 0)
(0.312833 -4.855e-06 0)
(0.312942 9.83467e-06 0)
(0.312818 1.7759e-05 0)
(0.312833 -4.61077e-05 0)
(0.312697 -4.39146e-06 0)
(0.312723 9.66446e-06 0)
(0.312655 1.91283e-05 0)
(0.312656 -4.41547e-05 0)
(0.312476 -3.30749e-06 0)
(0.312397 9.84571e-06 0)
(0.312363 1.86416e-05 0)
(0.312356 -4.34228e-05 0)
(0.312149 -3.74579e-06 0)
(0.311947 9.14976e-06 0)
(0.311944 1.91964e-05 0)
(0.311924 -4.08773e-05 0)
(0.311706 -2.68142e-06 0)
(0.311351 9.07853e-06 0)
(0.311363 1.91188e-05 0)
(0.311329 -3.87723e-05 0)
(0.311117 -2.68268e-06 0)
(0.310558 8.08988e-06 0)
(0.310604 1.9232e-05 0)
(0.310568 -3.66681e-05 0)
(0.310356 -2.70563e-06 0)
(0.309529 7.79514e-06 0)
(0.309613 1.86906e-05 0)
(0.309593 -3.44574e-05 0)
(0.309383 -2.72218e-06 0)
(0.308269 6.95435e-06 0)
(0.308383 1.80461e-05 0)
(0.308372 -3.25708e-05 0)
(0.308163 -3.01471e-06 0)
(0.306717 6.83654e-06 0)
(0.306851 1.69183e-05 0)
(0.306844 -3.05394e-05 0)
(0.306638 -3.19265e-06 0)
(0.304817 6.37905e-06 0)
(0.30496 1.5761e-05 0)
(0.304958 -2.87451e-05 0)
(0.304754 -3.54255e-06 0)
(0.302485 6.51873e-06 0)
(0.302636 1.44507e-05 0)
(0.302632 -2.68956e-05 0)
(0.302432 -3.87098e-06 0)
(0.299645 6.25107e-06 0)
(0.299792 1.27847e-05 0)
(0.299792 -2.52737e-05 0)
(0.299596 -4.76134e-06 0)
(0.296188 6.97953e-06 0)
(0.296336 1.13781e-05 0)
(0.296332 -2.34049e-05 0)
(0.296142 -4.24423e-06 0)
(0.292017 7.36753e-06 0)
(0.292153 1.05568e-05 0)
(0.292151 -2.17469e-05 0)
(0.291968 -4.66282e-06 0)
(0.312875 3.87795e-05 0)
(0.312849 -1.13043e-05 0)
(0.312697 -5.76172e-07 0)
(0.312974 -2.90426e-07 0)
(0.312778 3.8316e-05 0)
(0.312766 -1.03114e-05 0)
(0.312594 -2.29801e-06 0)
(0.312859 -3.48807e-06 0)
(0.312585 3.78868e-05 0)
(0.312572 -8.29276e-06 0)
(0.312395 -3.17292e-06 0)
(0.312649 -6.53769e-06 0)
(0.312304 3.63314e-05 0)
(0.312305 -6.67745e-06 0)
(0.312097 -3.41168e-06 0)
(0.312329 -9.19879e-06 0)
(0.311885 3.54239e-05 0)
(0.31189 -4.52304e-06 0)
(0.311679 -3.47733e-06 0)
(0.311888 -1.11798e-05 0)
(0.311317 3.34224e-05 0)
(0.311335 -2.79627e-06 0)
(0.311118 -3.65542e-06 0)
(0.311294 -1.37464e-05 0)
(0.310569 3.17323e-05 0)
(0.310592 -1.07894e-06 0)
(0.310388 -3.19235e-06 0)
(0.310528 -1.51967e-05 0)
(0.30961 2.95735e-05 0)
(0.309642 4.86316e-07 0)
(0.309449 -2.77483e-06 0)
(0.30954 -1.64615e-05 0)
(0.308397 2.7467e-05 0)
(0.308432 1.78038e-06 0)
(0.308265 -1.94314e-06 0)
(0.308325 -1.67009e-05 0)
(0.306878 2.51257e-05 0)
(0.306919 2.94593e-06 0)
(0.306772 -1.27099e-06 0)
(0.306805 -1.66427e-05 0)
(0.304994 2.28499e-05 0)
(0.305037 3.73922e-06 0)
(0.304925 -4.4951e-07 0)
(0.304947 -1.58404e-05 0)
(0.302669 2.04443e-05 0)
(0.302714 4.33475e-06 0)
(0.30263 -7.84746e-08 0)
(0.302637 -1.49683e-05 0)
(0.299825 1.7906e-05 0)
(0.299874 4.17017e-06 0)
(0.299828 2.86083e-07 0)
(0.299832 -1.37119e-05 0)
(0.296359 1.62708e-05 0)
(0.296407 4.4741e-06 0)
(0.296376 4.03285e-07 0)
(0.296373 -1.13268e-05 0)
(0.292172 1.37667e-05 0)
(0.292231 4.50976e-06 0)
(0.292209 6.3766e-07 0)
(0.292201 -1.03347e-05 0)
)
;

boundaryField
{
    topWall
    {
        type            noSlip;
    }
    botWall
    {
        type            noSlip;
    }
    inlet
    {
        type            cyclic;
    }
    outlet
    {
        type            cyclic;
    }
    fixWall
    {
        type            empty;
    }
    procBoundary6to5
    {
        type            processor;
        value           nonuniform List<vector> 8((0.313096 8.44962e-06 0) (0.312896 1.61311e-05 0) (0.312943 -4.73412e-05 0) (0.312879 -4.44736e-06 0) (0.312903 3.86808e-05 0) (0.312881 -1.31183e-05 0) (0.312718 3.47722e-07 0) (0.312998 2.68993e-06 0));
    }
    procBoundary6to7
    {
        type            processor;
        value           nonuniform List<vector> 8((0.286991 8.02581e-06 0) (0.287126 9.48444e-06 0) (0.287117 -2.00014e-05 0) (0.286941 -4.72058e-06 0) (0.287127 1.17091e-05 0) (0.287181 4.15449e-06 0) (0.287186 5.23085e-07 0) (0.287178 -8.8369e-06 0));
    }
}


// ************************************************************************* //
