/*--------------------------------*- C++ -*----------------------------------*\
  =========                 |
  \\      /  F ield         | OpenFOAM: The Open Source CFD Toolbox
   \\    /   O peration     | Website:  https://openfoam.org
    \\  /    A nd           | Version:  dev
     \\/     M anipulation  |

   OpenFOAM for Windows 20.09 (v1)
   Built by CFD Support, www.cfdsupport.com (based on Symscape).
\*---------------------------------------------------------------------------*/
FoamFile
{
    version     2.0;
    format      ascii;
    class       volVectorField;
    location    "6";
    object      UMean;
}
// * * * * * * * * * * * * * * * * * * * * * * * * * * * * * * * * * * * * * //

dimensions      [0 1 -1 0 0 0 0];

internalField   nonuniform List<vector> 
120
(
(0.233059 1.20452e-05 0)
(0.232929 9.09211e-06 0)
(0.233002 -2.02425e-05 0)
(0.233005 8.09977e-07 0)
(0.233003 1.10727e-05 0)
(0.232901 8.18969e-06 0)
(0.232958 -2.13355e-05 0)
(0.232934 3.60396e-07 0)
(0.232907 1.23128e-05 0)
(0.232848 1.01011e-05 0)
(0.232886 -2.05508e-05 0)
(0.232839 7.30634e-07 0)
(0.23276 1.16862e-05 0)
(0.232739 9.26022e-06 0)
(0.232761 -2.10173e-05 0)
(0.232682 2.73941e-07 0)
(0.232563 1.16008e-05 0)
(0.232589 9.21528e-06 0)
(0.232595 -1.97456e-05 0)
(0.23249 3.01096e-07 0)
(0.232303 1.08917e-05 0)
(0.232358 9.55258e-06 0)
(0.232356 -1.88839e-05 0)
(0.232233 3.60902e-07 0)
(0.231967 1.06044e-05 0)
(0.232048 8.55402e-06 0)
(0.232041 -1.78907e-05 0)
(0.231906 1.98691e-07 0)
(0.231525 9.58009e-06 0)
(0.231627 8.2799e-06 0)
(0.231622 -1.64957e-05 0)
(0.231479 2.28447e-07 0)
(0.230968 9.24949e-06 0)
(0.231083 7.26975e-06 0)
(0.231079 -1.54125e-05 0)
(0.230933 8.13207e-08 0)
(0.230256 8.56709e-06 0)
(0.230381 6.53946e-06 0)
(0.230377 -1.39469e-05 0)
(0.230228 4.99331e-08 0)
(0.229354 8.38828e-06 0)
(0.229478 5.512e-06 0)
(0.229475 -1.28447e-05 0)
(0.229329 -6.94256e-08 0)
(0.228205 8.08498e-06 0)
(0.22833 4.70164e-06 0)
(0.228325 -1.14322e-05 0)
(0.228182 -1.57246e-07 0)
(0.226756 8.01192e-06 0)
(0.226867 3.65362e-06 0)
(0.226864 -1.04518e-05 0)
(0.226734 -3.74863e-07 0)
(0.224926 8.11984e-06 0)
(0.225034 2.89879e-06 0)
(0.225029 -9.14414e-06 0)
(0.224906 -2.79394e-07 0)
(0.222642 8.00391e-06 0)
(0.222735 2.17641e-06 0)
(0.222731 -8.24064e-06 0)
(0.22262 -5.51723e-07 0)
(0.233011 2.24388e-05 0)
(0.232993 -6.22262e-06 0)
(0.232862 -8.04555e-06 0)
(0.233009 -6.07711e-06 0)
(0.232964 2.09634e-05 0)
(0.232962 -5.49759e-06 0)
(0.23283 -1.00926e-05 0)
(0.23296 -1.01363e-05 0)
(0.232887 2.24565e-05 0)
(0.232876 -3.49872e-06 0)
(0.232753 -7.10838e-06 0)
(0.232869 -8.84887e-06 0)
(0.232765 2.0312e-05 0)
(0.232769 -3.13726e-06 0)
(0.23264 -9.61583e-06 0)
(0.232735 -1.20991e-05 0)
(0.232596 2.05306e-05 0)
(0.2326 -1.72599e-06 0)
(0.232472 -7.16832e-06 0)
(0.232546 -1.19332e-05 0)
(0.23236 1.90959e-05 0)
(0.232373 -3.90317e-07 0)
(0.232247 -7.25687e-06 0)
(0.232302 -1.28304e-05 0)
(0.232044 1.79154e-05 0)
(0.232058 -1.43476e-08 0)
(0.231943 -6.67061e-06 0)
(0.231981 -1.28654e-05 0)
(0.231628 1.65334e-05 0)
(0.231647 1.11436e-06 0)
(0.231543 -6.01348e-06 0)
(0.231565 -1.30312e-05 0)
(0.231085 1.50638e-05 0)
(0.231106 1.52473e-06 0)
(0.231021 -5.33908e-06 0)
(0.231032 -1.25152e-05 0)
(0.230384 1.36272e-05 0)
(0.230407 2.14222e-06 0)
(0.230343 -4.83132e-06 0)
(0.230346 -1.19912e-05 0)
(0.229484 1.20087e-05 0)
(0.229508 2.24182e-06 0)
(0.229465 -4.42232e-06 0)
(0.229465 -1.09912e-05 0)
(0.228334 1.06491e-05 0)
(0.228359 2.5407e-06 0)
(0.228329 -4.01742e-06 0)
(0.228323 -9.9769e-06 0)
(0.22688 9.04806e-06 0)
(0.226907 2.31068e-06 0)
(0.226887 -3.86906e-06 0)
(0.226881 -8.98842e-06 0)
(0.22504 7.896e-06 0)
(0.225069 2.4697e-06 0)
(0.225051 -3.55263e-06 0)
(0.225039 -7.49597e-06 0)
(0.222746 6.28851e-06 0)
(0.222774 2.29719e-06 0)
(0.222756 -3.45529e-06 0)
(0.222747 -6.64433e-06 0)
)
;

boundaryField
{
    topWall
    {
        type            calculated;
        value           nonuniform List<vector> 0();
    }
    botWall
    {
        type            calculated;
        value           nonuniform List<vector> 0();
    }
    inlet
    {
        type            cyclic;
    }
    outlet
    {
        type            cyclic;
    }
    fixWall
    {
        type            empty;
    }
    procBoundary6to5
    {
        type            processor;
        value           nonuniform List<vector> 8((0.233079 1.0459e-05 0) (0.232919 8.18426e-06 0) (0.233011 -1.93167e-05 0) (0.233023 7.73358e-07 0) (0.233023 2.21801e-05 0) (0.233019 -6.99451e-06 0) (0.232869 -6.83426e-06 0) (0.233025 -5.6138e-06 0));
    }
    procBoundary6to7
    {
        type            processor;
        value           nonuniform List<vector> 8((0.219789 7.89889e-06 0) (0.219881 1.65479e-06 0) (0.219874 -7.28431e-06 0) (0.219771 -5.57818e-07 0) (0.219875 5.02538e-06 0) (0.219902 2.0962e-06 0) (0.219898 -3.40379e-06 0) (0.219884 -5.55358e-06 0));
    }
}


// ************************************************************************* //
