/*--------------------------------*- C++ -*----------------------------------*\
  =========                 |
  \\      /  F ield         | OpenFOAM: The Open Source CFD Toolbox
   \\    /   O peration     | Website:  https://openfoam.org
    \\  /    A nd           | Version:  dev
     \\/     M anipulation  |

   OpenFOAM for Windows 20.09 (v1)
   Built by CFD Support, www.cfdsupport.com (based on Symscape).
\*---------------------------------------------------------------------------*/
FoamFile
{
    version     2.0;
    format      ascii;
    class       volSymmTensorField;
    location    "6";
    object      UPrime2Mean;
}
// * * * * * * * * * * * * * * * * * * * * * * * * * * * * * * * * * * * * * //

dimensions      [0 2 -2 0 0 0 0];

internalField   nonuniform List<symmTensor> 
120
(
(0.0028954 6.28192e-08 0 2.6329e-11 0 0)
(0.00289136 2.44133e-07 0 2.17559e-11 0 0)
(0.00289138 -7.61477e-07 0 2.39336e-10 0 0)
(0.00288811 -1.70254e-07 0 1.10946e-11 0 0)
(0.00289111 7.83561e-08 0 1.55165e-11 0 0)
(0.00288813 2.79963e-07 0 3.09808e-11 0 0)
(0.00288825 -7.40426e-07 0 2.111e-10 0 0)
(0.00288369 -1.33365e-07 0 7.46726e-12 0 0)
(0.00288339 5.5581e-08 0 2.13058e-11 0 0)
(0.00288159 2.47965e-07 0 2.67269e-11 0 0)
(0.00288143 -7.25619e-07 0 1.96979e-10 0 0)
(0.0028756 -1.24348e-07 0 5.78312e-12 0 0)
(0.00287195 8.71572e-08 0 2.35371e-11 0 0)
(0.00287069 2.84129e-07 0 3.0718e-11 0 0)
(0.00287043 -6.91103e-07 0 1.78492e-10 0 0)
(0.00286372 -1.11288e-07 0 5.32152e-12 0 0)
(0.00285584 4.64504e-08 0 1.68691e-11 0 0)
(0.00285495 2.68942e-07 0 3.2551e-11 0 0)
(0.00285418 -6.6601e-07 0 1.63296e-10 0 0)
(0.0028474 -8.46249e-08 0 2.96765e-12 0 0)
(0.0028344 7.89141e-08 0 2.069e-11 0 0)
(0.0028337 2.6067e-07 0 3.00304e-11 0 0)
(0.00283251 -6.31478e-07 0 1.46741e-10 0 0)
(0.00282608 -7.69e-08 0 3.01337e-12 0 0)
(0.00280598 3.47209e-08 0 1.43333e-11 0 0)
(0.00280621 2.83677e-07 0 3.72199e-11 0 0)
(0.00280493 -5.86237e-07 0 1.289e-10 0 0)
(0.00279869 -6.72498e-08 0 2.80082e-12 0 0)
(0.00276941 5.05713e-08 0 1.26449e-11 0 0)
(0.00277091 2.66033e-07 0 3.52428e-11 0 0)
(0.00277029 -5.5877e-07 0 1.18372e-10 0 0)
(0.00276426 -5.62059e-08 0 3.26446e-12 0 0)
(0.00272559 2.52936e-08 0 1.05072e-11 0 0)
(0.00272815 2.61775e-07 0 3.78599e-11 0 0)
(0.00272783 -5.2028e-07 0 1.05824e-10 0 0)
(0.00272184 -5.18183e-08 0 3.97481e-12 0 0)
(0.00267291 2.6015e-08 0 7.14562e-12 0 0)
(0.00267609 2.42809e-07 0 3.53212e-11 0 0)
(0.00267597 -4.93678e-07 0 9.80116e-11 0 0)
(0.00267017 -4.41512e-08 0 5.13498e-12 0 0)
(0.00261032 1.6899e-08 0 7.08659e-12 0 0)
(0.00261397 2.2362e-07 0 3.5173e-11 0 0)
(0.00261397 -4.55558e-07 0 8.78051e-11 0 0)
(0.00260818 -4.03075e-08 0 6.57464e-12 0 0)
(0.00253616 1.17837e-08 0 4.11299e-12 0 0)
(0.00253997 2.00746e-07 0 3.2524e-11 0 0)
(0.00253996 -4.32942e-07 0 8.24731e-11 0 0)
(0.0025344 -3.74589e-08 0 8.15484e-12 0 0)
(0.00244947 1.32536e-08 0 5.19431e-12 0 0)
(0.00245327 1.7124e-07 0 2.99346e-11 0 0)
(0.00245333 -3.9425e-07 0 7.39561e-11 0 0)
(0.00244785 -4.45073e-08 0 1.11446e-11 0 0)
(0.00234879 1.51947e-08 0 2.90468e-12 0 0)
(0.00235247 1.51377e-07 0 2.62941e-11 0 0)
(0.00235241 -3.69313e-07 0 6.82628e-11 0 0)
(0.00234723 -3.07816e-08 0 1.04542e-11 0 0)
(0.00223369 2.25046e-08 0 2.16258e-12 0 0)
(0.00223701 1.35218e-07 0 2.71709e-11 0 0)
(0.00223701 -3.34338e-07 0 6.06064e-11 0 0)
(0.00223197 -2.93538e-08 0 1.1496e-11 0 0)
(0.00288875 5.44318e-07 0 1.04488e-10 0 0)
(0.00288774 -2.6598e-07 0 3.0457e-11 0 0)
(0.00288437 1.66665e-07 0 1.90502e-11 0 0)
(0.00289239 1.15216e-07 0 1.24123e-11 0 0)
(0.00288487 6.0966e-07 0 1.29111e-10 0 0)
(0.00288425 -2.41652e-07 0 2.42874e-11 0 0)
(0.00288037 1.53933e-07 0 2.26151e-11 0 0)
(0.00288826 1.01143e-07 0 2.06701e-11 0 0)
(0.00287732 5.51264e-07 0 1.05646e-10 0 0)
(0.00287667 -2.19275e-07 0 1.86044e-11 0 0)
(0.00287273 1.02859e-07 0 5.03652e-12 0 0)
(0.00288069 1.57761e-08 0 4.14132e-12 0 0)
(0.00286672 5.6895e-07 0 1.12981e-10 0 0)
(0.00286653 -1.97542e-07 0 1.79484e-11 0 0)
(0.00286136 1.13257e-07 0 1.52473e-11 0 0)
(0.00286921 -9.65128e-10 0 9.87354e-12 0 0)
(0.00285099 5.5267e-07 0 1.07397e-10 0 0)
(0.00285094 -1.59174e-07 0 1.19383e-11 0 0)
(0.00284564 8.25077e-08 0 4.62435e-12 0 0)
(0.00285306 -4.75872e-08 0 5.75499e-12 0 0)
(0.00283008 5.26878e-07 0 9.82486e-11 0 0)
(0.0028305 -1.40726e-07 0 9.64253e-12 0 0)
(0.00282488 7.1326e-08 0 4.7677e-12 0 0)
(0.00283134 -9.65178e-08 0 6.91073e-12 0 0)
(0.00280297 5.08431e-07 0 9.24324e-11 0 0)
(0.00280352 -1.13489e-07 0 9.69889e-12 0 0)
(0.00279831 7.0237e-08 0 4.36114e-12 0 0)
(0.00280361 -1.2867e-07 0 7.75849e-12 0 0)
(0.00276888 4.81878e-07 0 8.4184e-11 0 0)
(0.00276978 -9.14212e-08 0 7.32454e-12 0 0)
(0.00276476 6.35339e-08 0 3.84237e-12 0 0)
(0.00276829 -1.57724e-07 0 1.01515e-11 0 0)
(0.00272673 4.57255e-07 0 7.70355e-11 0 0)
(0.00272768 -7.26374e-08 0 7.99815e-12 0 0)
(0.00272331 6.98876e-08 0 4.05194e-12 0 0)
(0.00272577 -1.68887e-07 0 1.08758e-11 0 0)
(0.0026753 4.24915e-07 0 6.7966e-11 0 0)
(0.00267648 -5.44188e-08 0 7.37144e-12 0 0)
(0.00267233 6.98312e-08 0 4.57038e-12 0 0)
(0.0026738 -1.77116e-07 0 1.19244e-11 0 0)
(0.00261345 3.97107e-07 0 6.07868e-11 0 0)
(0.00261458 -4.11231e-08 0 8.7132e-12 0 0)
(0.00261135 7.97408e-08 0 5.54484e-12 0 0)
(0.00261243 -1.71229e-07 0 1.12339e-11 0 0)
(0.00253972 3.60594e-07 0 5.18375e-11 0 0)
(0.00254096 -3.00706e-08 0 8.30068e-12 0 0)
(0.00253852 7.60972e-08 0 5.53249e-12 0 0)
(0.00253911 -1.67144e-07 0 1.10137e-11 0 0)
(0.00245321 3.27074e-07 0 4.44369e-11 0 0)
(0.00245437 -3.18567e-08 0 9.1028e-12 0 0)
(0.00245304 8.03143e-08 0 6.0723e-12 0 0)
(0.00245366 -1.51899e-07 0 9.45105e-12 0 0)
(0.00235253 2.9978e-07 0 3.87574e-11 0 0)
(0.00235355 -2.55426e-08 0 8.72896e-12 0 0)
(0.00235281 6.97609e-08 0 5.77863e-12 0 0)
(0.00235338 -1.18405e-07 0 6.02127e-12 0 0)
(0.00223729 2.66717e-07 0 3.24881e-11 0 0)
(0.00223875 -1.85579e-08 0 8.59629e-12 0 0)
(0.00223804 7.20809e-08 0 6.06411e-12 0 0)
(0.00223843 -1.09453e-07 0 5.44597e-12 0 0)
)
;

boundaryField
{
    topWall
    {
        type            calculated;
        value           nonuniform List<symmTensor> 0();
    }
    botWall
    {
        type            calculated;
        value           nonuniform List<symmTensor> 0();
    }
    inlet
    {
        type            cyclic;
    }
    outlet
    {
        type            cyclic;
    }
    fixWall
    {
        type            empty;
    }
    procBoundary6to5
    {
        type            processor;
        value           nonuniform List<symmTensor> 8((0.00289625 6.43718e-08 0 1.80159e-11 0 0) (0.00289163 2.06814e-07 0 2.05318e-11 0 0) (0.0028917 -7.96073e-07 0 2.60982e-10 0 0) (0.00288921 -1.54921e-07 0 9.32159e-12 0 0) (0.00289023 5.76588e-07 0 1.15394e-10 0 0) (0.00288925 -2.7925e-07 0 2.99197e-11 0 0) (0.00288522 1.76122e-07 0 1.69011e-11 0 0) (0.00289305 1.76527e-07 0 2.4323e-11 0 0));
    }
    procBoundary6to7
    {
        type            processor;
        value           nonuniform List<symmTensor> 8((0.00210339 3.5872e-08 0 1.73023e-12 0 0) (0.00210621 1.19553e-07 0 2.41205e-11 0 0) (0.00210601 -2.99573e-07 0 5.33099e-11 0 0) (0.00210146 -2.8145e-08 0 1.18416e-11 0 0) (0.00210678 2.28711e-07 0 2.52386e-11 0 0) (0.00210847 -2.05896e-08 0 8.13749e-12 0 0) (0.00210825 6.47416e-08 0 5.71754e-12 0 0) (0.00210841 -9.02259e-08 0 4.0366e-12 0 0));
    }
}


// ************************************************************************* //
