/*--------------------------------*- C++ -*----------------------------------*\
  =========                 |
  \\      /  F ield         | OpenFOAM: The Open Source CFD Toolbox
   \\    /   O peration     | Website:  https://openfoam.org
    \\  /    A nd           | Version:  dev
     \\/     M anipulation  |

   OpenFOAM for Windows 20.09 (v1)
   Built by CFD Support, www.cfdsupport.com (based on Symscape).
\*---------------------------------------------------------------------------*/
FoamFile
{
    version     2.0;
    format      ascii;
    class       surfaceScalarField;
    location    "6";
    object      alphaPhi0.water;
}
// * * * * * * * * * * * * * * * * * * * * * * * * * * * * * * * * * * * * * //

dimensions      [0 3 -1 0 0 0 0];

internalField   nonuniform List<scalar> 
217
(
1.73445e-09
4.50046e-11
1.75708e-09
-2.32412e-11
1.76347e-09
-6.43634e-12
-1.02078e-11
1.77368e-09
4.93278e-09
5.6396e-11
4.92344e-09
-1.38973e-11
4.93624e-09
-1.92306e-11
-2.31319e-11
4.94916e-09
7.77039e-09
6.05767e-11
7.75573e-09
7.72179e-13
7.76896e-09
-3.24459e-11
-3.23633e-11
7.77819e-09
1.02865e-08
6.20101e-11
1.02695e-08
1.77856e-11
1.02838e-08
-4.67184e-11
-3.73027e-11
1.02888e-08
1.25104e-08
5.76903e-11
1.24911e-08
3.70958e-11
1.25059e-08
-6.15522e-11
-3.81124e-11
1.25067e-08
1.44638e-08
5.02658e-11
1.44446e-08
5.63143e-11
1.44599e-08
-7.68444e-11
-3.53954e-11
1.44572e-08
1.61723e-08
4.10141e-11
1.61539e-08
7.47322e-11
1.61697e-08
-9.26497e-11
-3.00286e-11
1.61644e-08
1.76586e-08
3.04157e-11
1.76419e-08
9.1478e-11
1.76581e-08
-1.08938e-10
-2.28894e-11
1.7651e-08
1.89449e-08
1.94662e-11
1.89302e-08
1.0618e-10
1.89474e-08
-1.26133e-10
-1.51854e-11
1.89397e-08
2.00523e-08
8.22102e-12
2.004e-08
1.18403e-10
2.00578e-08
-1.4391e-10
-7.93856e-12
2.00506e-08
2.09999e-08
-2.01257e-12
2.09903e-08
1.2795e-10
2.10096e-08
-1.63148e-10
-2.53269e-12
2.10042e-08
2.18072e-08
-1.10322e-11
2.18001e-08
1.35047e-10
2.18202e-08
-1.83322e-10
3.24747e-13
2.18173e-08
2.24893e-08
-1.70075e-11
2.24861e-08
1.38232e-10
2.25074e-08
-2.04668e-10
-9.07114e-13
2.25086e-08
2.30642e-08
-1.98124e-11
2.30621e-08
1.40299e-10
2.30854e-08
-2.28031e-10
-6.2243e-12
2.30908e-08
2.35442e-08
2.35434e-08
2.35701e-08
2.35809e-08
1.7633e-09
1.03764e-11
1.76885e-09
-5.55183e-12
1.76977e-09
-9.12586e-13
-9.87366e-12
4.92634e-09
3.31933e-11
4.93646e-09
-1.56717e-11
4.94073e-09
-5.17719e-12
-1.33451e-11
7.7461e-09
6.52902e-11
7.75876e-09
-2.83399e-11
7.765e-09
-1.14313e-11
-2.29324e-11
1.02489e-08
1.0511e-10
1.0263e-08
-4.24345e-11
1.02719e-08
-2.03438e-11
-3.89903e-11
1.24612e-08
1.50709e-10
1.24753e-08
-5.65559e-11
1.24865e-08
-3.1625e-11
-5.85402e-11
1.44066e-08
2.01264e-10
1.44206e-08
-7.05216e-11
1.44341e-08
-4.50731e-11
-8.09022e-11
1.611e-08
2.55617e-10
1.61238e-08
-8.43021e-11
1.61392e-08
-6.04882e-11
-1.04784e-10
1.7594e-08
3.12662e-10
1.76075e-08
-9.78506e-11
1.76244e-08
-7.73493e-11
-1.28407e-10
1.8881e-08
3.71297e-10
1.88946e-08
-1.11452e-10
1.89124e-08
-9.5098e-11
-1.49939e-10
1.99914e-08
4.3047e-10
2.0005e-08
-1.25039e-10
2.00229e-08
-1.13016e-10
-1.68038e-10
2.09451e-08
4.89496e-10
2.09593e-08
-1.39243e-10
2.09764e-08
-1.30125e-10
-1.81214e-10
2.17599e-08
5.46904e-10
2.17736e-08
-1.52933e-10
2.17908e-08
-1.47251e-10
-1.88551e-10
2.24535e-08
6.02022e-10
2.24667e-08
-1.66095e-10
2.24838e-08
-1.64402e-10
-1.87978e-10
2.30398e-08
6.52996e-10
2.30529e-08
-1.79173e-10
2.30689e-08
-1.80414e-10
-1.80439e-10
2.35343e-08
2.35474e-08
2.35627e-08
)
;

boundaryField
{
    topWall
    {
        type            calculated;
        value           nonuniform List<scalar> 0();
    }
    botWall
    {
        type            calculated;
        value           uniform 0;
    }
    inlet
    {
        type            cyclic;
        value           nonuniform List<scalar> 
15
(
-2.35475e-08
-2.30614e-08
-2.24833e-08
-2.17981e-08
-2.09896e-08
-2.0041e-08
-1.89339e-08
-1.7648e-08
-1.61631e-08
-1.44564e-08
-1.25061e-08
-1.0288e-08
-7.77458e-09
-4.94419e-09
-1.77964e-09
)
;
    }
    outlet
    {
        type            cyclic;
        value           nonuniform List<scalar> 
15
(
2.35475e-08
2.30614e-08
2.24833e-08
2.17981e-08
2.09896e-08
2.0041e-08
1.89339e-08
1.7648e-08
1.61631e-08
1.44564e-08
1.25061e-08
1.0288e-08
7.77458e-09
4.94419e-09
1.77964e-09
)
;
    }
    fixWall
    {
        type            empty;
        value           nonuniform List<scalar> 0();
    }
    procBoundary0to1
    {
        type            processor;
        value           nonuniform List<scalar> 8(-1.59986e-11 1.40881e-10 -2.54462e-10 -1.66245e-11 6.99793e-10 -1.92219e-10 -1.95862e-10 -1.64576e-10);
    }
}


// ************************************************************************* //
