/*--------------------------------*- C++ -*----------------------------------*\
  =========                 |
  \\      /  F ield         | OpenFOAM: The Open Source CFD Toolbox
   \\    /   O peration     | Website:  https://openfoam.org
    \\  /    A nd           | Version:  dev
     \\/     M anipulation  |

   OpenFOAM for Windows 20.09 (v1)
   Built by CFD Support, www.cfdsupport.com (based on Symscape).
\*---------------------------------------------------------------------------*/
FoamFile
{
    version     2.0;
    format      ascii;
    class       volSymmTensorField;
    location    "6";
    object      devReff;
}
// * * * * * * * * * * * * * * * * * * * * * * * * * * * * * * * * * * * * * //

dimensions      [0 2 -2 0 0 0 0];

internalField   nonuniform List<symmTensor> 
120
(
(-3.42329e-07 -0.00092058 -0 7.52258e-07 -0 -4.0993e-07)
(-3.01031e-08 -0.000917793 -0 4.96923e-08 -0 -1.95892e-08)
(-6.95917e-08 -0.000918218 -0 4.47688e-08 -0 2.48229e-08)
(-4.96818e-08 -0.00092408 -0 6.88632e-08 -0 -1.91813e-08)
(2.76535e-07 -0.000828361 -0 -5.15584e-07 -0 2.39049e-07)
(1.05269e-07 -0.000826259 -0 -1.21272e-07 -0 1.60028e-08)
(-1.03536e-07 -0.00082329 -0 9.15245e-08 -0 1.20114e-08)
(-8.70364e-08 -0.000827599 -0 1.08515e-07 -0 -2.14784e-08)
(-1.72877e-07 -0.000737833 -0 3.65848e-07 -0 -1.92971e-07)
(1.93701e-07 -0.000736293 -0 -2.28872e-07 -0 3.51709e-08)
(-1.27786e-07 -0.000734591 -0 1.16632e-07 -0 1.11542e-08)
(-9.6207e-08 -0.000737318 -0 1.22021e-07 -0 -2.58141e-08)
(2.23639e-07 -0.00065405 -0 -4.57859e-07 -0 2.3422e-07)
(2.36548e-07 -0.000653459 -0 -2.75833e-07 -0 3.92855e-08)
(-1.36986e-07 -0.00065247 -0 1.24169e-07 -0 1.28169e-08)
(-7.56342e-08 -0.000653864 -0 1.02003e-07 -0 -2.63688e-08)
(-1.44056e-07 -0.000577038 -0 2.40396e-07 -0 -9.63402e-08)
(2.45829e-07 -0.000577002 -0 -2.80626e-07 -0 3.47965e-08)
(-1.41036e-07 -0.00057655 -0 1.29744e-07 -0 1.12921e-08)
(-4.51179e-08 -0.000577175 -0 7.10493e-08 -0 -2.59313e-08)
(-1.31029e-07 -0.000506669 -0 1.88203e-07 -0 -5.7174e-08)
(2.47398e-07 -0.00050688 -0 -2.81555e-07 -0 3.41571e-08)
(-1.42219e-07 -0.000506841 -0 1.29115e-07 -0 1.31039e-08)
(-1.67919e-08 -0.000507079 -0 4.23042e-08 -0 -2.55123e-08)
(-1.59495e-07 -0.000442659 -0 2.28784e-07 -0 -6.92896e-08)
(2.37226e-07 -0.000443083 -0 -2.69545e-07 -0 3.23194e-08)
(-1.46783e-07 -0.000443312 -0 1.34786e-07 -0 1.19968e-08)
(5.53756e-09 -0.000443378 -0 1.9983e-08 -0 -2.55206e-08)
(-1.56911e-07 -0.000384768 -0 2.16535e-07 -0 -5.96241e-08)
(2.2204e-07 -0.000385453 -0 -2.5308e-07 -0 3.104e-08)
(-1.50699e-07 -0.00038577 -0 1.36588e-07 -0 1.41106e-08)
(1.88898e-08 -0.00038577 -0 6.74655e-09 -0 -2.56364e-08)
(-1.42725e-07 -0.000332687 -0 1.84232e-07 -0 -4.1507e-08)
(2.0045e-07 -0.000333547 -0 -2.29972e-07 -0 2.95216e-08)
(-1.57047e-07 -0.000333957 -0 1.45046e-07 -0 1.20017e-08)
(2.47492e-08 -0.000333995 -0 3.65785e-10 -0 -2.5115e-08)
(-1.65998e-07 -0.000286158 -0 2.37919e-07 -0 -7.19206e-08)
(1.73211e-07 -0.000287165 -0 -1.98465e-07 -0 2.52541e-08)
(-1.63897e-07 -0.000287559 -0 1.48498e-07 -0 1.53988e-08)
(1.84084e-08 -0.000287654 -0 7.46791e-09 -0 -2.58763e-08)
(-1.17262e-07 -0.000244834 -0 1.47929e-07 -0 -3.06676e-08)
(1.54931e-07 -0.000245817 -0 -1.86372e-07 -0 3.14405e-08)
(-1.73638e-07 -0.000246274 -0 1.62355e-07 -0 1.12831e-08)
(5.25636e-09 -0.000246473 -0 1.96038e-08 -0 -2.48601e-08)
(-1.26021e-07 -0.000208356 -0 1.91445e-07 -0 -6.54244e-08)
(1.31715e-07 -0.000209297 -0 -1.64306e-07 -0 3.25907e-08)
(-1.85278e-07 -0.00020976 -0 1.69991e-07 -0 1.52874e-08)
(-3.25138e-08 -0.000209972 -0 6.96934e-08 -0 -3.71797e-08)
(-6.33814e-08 -0.000176404 -0 9.00014e-08 -0 -2.66201e-08)
(1.08243e-07 -0.000177022 -0 -1.40681e-07 -0 3.24376e-08)
(-1.93232e-07 -0.000177542 -0 1.79647e-07 -0 1.35851e-08)
(-5.6445e-08 -0.000177896 -0 8.6679e-08 -0 -3.0234e-08)
(-5.17154e-08 -0.00014872 -0 1.14209e-07 -0 -6.24936e-08)
(8.21721e-08 -0.000148778 -0 -1.04078e-07 -0 2.19059e-08)
(-2.14906e-07 -0.000149267 -0 2.00863e-07 -0 1.40434e-08)
(-8.18867e-08 -0.000149767 -0 9.31357e-08 -0 -1.12491e-08)
(2.80936e-08 -0.000124873 -0 2.10534e-09 -0 -3.0199e-08)
(6.14323e-08 -0.000124259 -0 -6.62526e-08 -0 4.82024e-09)
(-2.24043e-07 -0.000124728 -0 2.09066e-07 -0 1.49768e-08)
(-1.39039e-07 -0.000125425 -0 1.59251e-07 -0 -2.02117e-08)
(5.9672e-08 -0.000921099 -0 -7.66224e-08 -0 1.69503e-08)
(-1.57279e-08 -0.000919387 -0 2.76461e-08 -0 -1.19183e-08)
(-6.23146e-09 -0.000922067 -0 -3.44551e-09 -0 9.67697e-09)
(3.64108e-08 -0.000920921 -0 -2.79976e-08 -0 -8.41323e-09)
(1.31082e-07 -0.000824488 -0 -1.48483e-07 -0 1.74011e-08)
(-4.20173e-08 -0.000823436 -0 5.55932e-08 -0 -1.35759e-08)
(-3.006e-08 -0.000825934 -0 2.44999e-08 -0 5.56009e-09)
(3.08541e-08 -0.000824839 -0 -5.69749e-08 -0 2.61208e-08)
(2.03584e-07 -0.000734104 -0 -2.2575e-07 -0 2.21659e-08)
(-6.8503e-08 -0.000733345 -0 8.49783e-08 -0 -1.64753e-08)
(-5.60026e-08 -0.000735283 -0 4.94328e-08 -0 6.56982e-09)
(-6.77772e-09 -0.00073484 -0 -2.25542e-08 -0 2.93319e-08)
(2.67322e-07 -0.000650938 -0 -2.88674e-07 -0 2.13519e-08)
(-8.31665e-08 -0.000650276 -0 9.86278e-08 -0 -1.54613e-08)
(-7.88369e-08 -0.000651578 -0 7.20876e-08 -0 6.74925e-09)
(-4.83372e-08 -0.000651422 -0 1.63829e-08 -0 3.19544e-08)
(3.23168e-07 -0.000574817 -0 -3.45545e-07 -0 2.2377e-08)
(-9.00367e-08 -0.000574176 -0 1.06768e-07 -0 -1.6731e-08)
(-9.36134e-08 -0.000575069 -0 8.64796e-08 -0 7.13374e-09)
(-8.99904e-08 -0.000575105 -0 6.144e-08 -0 2.85504e-08)
(3.66189e-07 -0.000505342 -0 -3.86817e-07 -0 2.06278e-08)
(-9.1423e-08 -0.000504689 -0 1.06791e-07 -0 -1.53682e-08)
(-1.09393e-07 -0.000505412 -0 1.02403e-07 -0 6.99059e-09)
(-1.17243e-07 -0.000505599 -0 8.85793e-08 -0 2.86636e-08)
(4.01734e-07 -0.000442247 -0 -4.23499e-07 -0 2.17651e-08)
(-9.17895e-08 -0.000441592 -0 1.07987e-07 -0 -1.61971e-08)
(-1.23649e-07 -0.000442232 -0 1.16314e-07 -0 7.33493e-09)
(-1.33519e-07 -0.000442379 -0 1.06667e-07 -0 2.68528e-08)
(4.25219e-07 -0.000385216 -0 -4.45998e-07 -0 2.07792e-08)
(-9.07987e-08 -0.000384576 -0 1.06129e-07 -0 -1.53302e-08)
(-1.33652e-07 -0.000385175 -0 1.2496e-07 -0 8.69168e-09)
(-1.35119e-07 -0.000385113 -0 1.10181e-07 -0 2.49383e-08)
(4.39934e-07 -0.000333976 -0 -4.60901e-07 -0 2.09663e-08)
(-9.01036e-08 -0.000333361 -0 1.06076e-07 -0 -1.59726e-08)
(-1.42131e-07 -0.000333943 -0 1.35561e-07 -0 6.56956e-09)
(-1.22568e-07 -0.00033364 -0 9.8473e-08 -0 2.40946e-08)
(4.4656e-07 -0.000288163 -0 -4.6849e-07 -0 2.193e-08)
(-9.06728e-08 -0.000287589 -0 1.07088e-07 -0 -1.64149e-08)
(-1.38896e-07 -0.000288143 -0 1.26536e-07 -0 1.23601e-08)
(-9.75862e-08 -0.000287593 -0 7.71887e-08 -0 2.03976e-08)
(4.39549e-07 -0.000247475 -0 -4.59108e-07 -0 1.95588e-08)
(-8.77353e-08 -0.000246899 -0 1.02147e-07 -0 -1.44115e-08)
(-1.437e-07 -0.000247444 -0 1.38925e-07 -0 4.77478e-09)
(-5.63416e-08 -0.000246815 -0 3.23997e-08 -0 2.39419e-08)
(4.31734e-07 -0.000211463 -0 -4.54363e-07 -0 2.26288e-08)
(-9.33695e-08 -0.00021094 -0 1.13673e-07 -0 -2.03034e-08)
(-1.29692e-07 -0.000211435 -0 1.1144e-07 -0 1.82519e-08)
(3.93162e-09 -0.000210781 -0 -3.85872e-08 -0 3.46555e-08)
(4.08109e-07 -0.000179815 -0 -4.29988e-07 -0 2.18794e-08)
(-8.53742e-08 -0.000179461 -0 9.85631e-08 -0 -1.31889e-08)
(-1.25022e-07 -0.000179791 -0 1.07392e-07 -0 1.76293e-08)
(6.96287e-08 -0.000179155 -0 -1.16666e-07 -0 4.70377e-08)
(3.76246e-07 -0.000152061 -0 -3.97182e-07 -0 2.09369e-08)
(-8.42835e-08 -0.000151953 -0 9.6557e-08 -0 -1.22736e-08)
(-1.41719e-07 -0.000152072 -0 1.463e-07 -0 -4.58158e-09)
(8.77188e-08 -0.000151618 -0 -9.30564e-08 -0 5.33757e-09)
(3.26492e-07 -0.000128049 -0 -3.41415e-07 -0 1.49227e-08)
(-8.7281e-08 -0.000128083 -0 1.02282e-07 -0 -1.50012e-08)
(-1.2103e-07 -0.000127994 -0 1.11218e-07 -0 9.81219e-09)
(1.12691e-07 -0.000127885 -0 -9.08874e-08 -0 -2.1804e-08)
)
;

boundaryField
{
    topWall
    {
        type            calculated;
        value           nonuniform List<symmTensor> 0();
    }
    botWall
    {
        type            calculated;
        value           nonuniform List<symmTensor> 8((-1.93511e-06 -0.000965805 -0 3.93782e-06 -0 -2.00271e-06) (-7.03239e-08 -0.000962373 -0 1.30134e-07 -0 -5.981e-08) (-5.19084e-08 -0.000967068 -0 9.40232e-09 -0 4.25061e-08) (-4.20975e-08 -0.00097369 -0 5.36946e-08 -0 -1.1597e-08) (4.59684e-08 -0.000970727 -0 -4.9215e-08 -0 3.24664e-09) (-1.07824e-08 -0.000968564 -0 1.77552e-08 -0 -6.97279e-09) (-1.01134e-09 -0.000971184 -0 -1.38858e-08 -0 1.48971e-08) (1.13924e-08 -0.00097046 -0 2.20393e-08 -0 -3.34317e-08));
    }
    inlet
    {
        type            cyclic;
    }
    outlet
    {
        type            cyclic;
    }
    fixWall
    {
        type            empty;
    }
    procBoundary0to1
    {
        type            processor;
        value           nonuniform List<symmTensor> 8((8.83423e-08 -0.000103757 -0 -4.4763e-08 -0 -4.35793e-08) (7.07948e-08 -0.000103725 -0 -7.75089e-08 -0 6.71411e-09) (-2.56125e-07 -0.000103929 -0 2.45347e-07 -0 1.07782e-08) (-1.84915e-07 -0.000104501 -0 1.89057e-07 -0 -4.14207e-09) (2.76875e-07 -0.000107058 -0 -2.89e-07 -0 1.21253e-08) (-7.62837e-08 -0.0001072 -0 8.26777e-08 -0 -6.39396e-09) (-1.25089e-07 -0.000107104 -0 1.20411e-07 -0 4.67839e-09) (1.71323e-07 -0.000106442 -0 -1.56063e-07 -0 -1.52598e-08));
    }
}


// ************************************************************************* //
