/*--------------------------------*- C++ -*----------------------------------*\
  =========                 |
  \\      /  F ield         | OpenFOAM: The Open Source CFD Toolbox
   \\    /   O peration     | Website:  https://openfoam.org
    \\  /    A nd           | Version:  dev
     \\/     M anipulation  |

   OpenFOAM for Windows 20.09 (v1)
   Built by CFD Support, www.cfdsupport.com (based on Symscape).
\*---------------------------------------------------------------------------*/
FoamFile
{
    version     2.0;
    format      ascii;
    class       volScalarField;
    location    "6";
    object      epsilon;
}
// * * * * * * * * * * * * * * * * * * * * * * * * * * * * * * * * * * * * * //

dimensions      [0 2 -3 0 0 0 0];

internalField   nonuniform List<scalar> 
120
(
1.73748e-12
1.73748e-12
1.73748e-12
1.73748e-12
2.99637e-13
2.99637e-13
2.99637e-13
2.99637e-13
1.01968e-13
1.01968e-13
1.01968e-13
1.01968e-13
4.7919e-14
4.79193e-14
4.79191e-14
4.79191e-14
2.70281e-14
2.70283e-14
2.70281e-14
2.70281e-14
1.71876e-14
1.71878e-14
1.71876e-14
1.71876e-14
1.18446e-14
1.18447e-14
1.18446e-14
1.18446e-14
8.63994e-15
8.64008e-15
8.63992e-15
8.63999e-15
6.5734e-15
6.57352e-15
6.57337e-15
6.57346e-15
5.16568e-15
5.16578e-15
5.16564e-15
5.16575e-15
4.1648e-15
4.16488e-15
4.16476e-15
4.16489e-15
3.42839e-15
3.42844e-15
3.42835e-15
3.42849e-15
2.87119e-15
2.87121e-15
2.87114e-15
2.8713e-15
2.43966e-15
2.43965e-15
2.43961e-15
2.43977e-15
2.09887e-15
2.09882e-15
2.09881e-15
2.09899e-15
1.73748e-12
1.73748e-12
1.73748e-12
1.73748e-12
2.99637e-13
2.99637e-13
2.99637e-13
2.99637e-13
1.01968e-13
1.01968e-13
1.01968e-13
1.01968e-13
4.79193e-14
4.79191e-14
4.79192e-14
4.79192e-14
2.70283e-14
2.70281e-14
2.70282e-14
2.70282e-14
1.71878e-14
1.71876e-14
1.71876e-14
1.71877e-14
1.18448e-14
1.18446e-14
1.18446e-14
1.18446e-14
8.6402e-15
8.63993e-15
8.63994e-15
8.63994e-15
6.57366e-15
6.57339e-15
6.57338e-15
6.57338e-15
5.16594e-15
5.16566e-15
5.16564e-15
5.16564e-15
4.16506e-15
4.16479e-15
4.16476e-15
4.16476e-15
3.42864e-15
3.42838e-15
3.42833e-15
3.42834e-15
2.87142e-15
2.87117e-15
2.87111e-15
2.87112e-15
2.43988e-15
2.43964e-15
2.43957e-15
2.43959e-15
2.09906e-15
2.09884e-15
2.09876e-15
2.09879e-15
)
;

boundaryField
{
    topWall
    {
        type            epsilonWallFunction;
        value           nonuniform List<scalar> 0();
    }
    botWall
    {
        type            epsilonWallFunction;
        value           nonuniform List<scalar> 8(1.73748e-12 1.73748e-12 1.73748e-12 1.73748e-12 1.73748e-12 1.73748e-12 1.73748e-12 1.73748e-12);
    }
    inlet
    {
        type            cyclic;
    }
    outlet
    {
        type            cyclic;
    }
    fixWall
    {
        type            empty;
    }
    procBoundary0to1
    {
        type            processor;
        value           nonuniform List<scalar> 8(1.82515e-15 1.82508e-15 1.82508e-15 1.82526e-15 1.82533e-15 1.82511e-15 1.82503e-15 1.82507e-15);
    }
}


// ************************************************************************* //
