/*--------------------------------*- C++ -*----------------------------------*\
  =========                 |
  \\      /  F ield         | OpenFOAM: The Open Source CFD Toolbox
   \\    /   O peration     | Website:  https://openfoam.org
    \\  /    A nd           | Version:  dev
     \\/     M anipulation  |

   OpenFOAM for Windows 20.09 (v1)
   Built by CFD Support, www.cfdsupport.com (based on Symscape).
\*---------------------------------------------------------------------------*/
FoamFile
{
    version     2.0;
    format      ascii;
    class       volVectorField;
    location    "6";
    object      gradp;
}
// * * * * * * * * * * * * * * * * * * * * * * * * * * * * * * * * * * * * * //

dimensions      [1 -2 -2 0 0 0 0];

internalField   nonuniform List<vector> 
120
(
(3.74221 -107.76 0)
(-1.50491 -98.7499 0)
(-1.27608 -98.1402 0)
(-1.25386 -98.1131 0)
(3.73161 -107.85 0)
(-1.34487 -98.7504 0)
(-1.26548 -98.1408 0)
(-1.254 -98.1139 0)
(3.73173 -98.2327 0)
(-1.3431 -98.0805 0)
(-1.26547 -98.1014 0)
(-1.25397 -98.1084 0)
(3.73215 -98.3263 0)
(-1.34268 -98.103 0)
(-1.26595 -98.1018 0)
(-1.25415 -98.1085 0)
(3.7319 -98.4115 0)
(-1.33936 -98.1301 0)
(-1.26556 -98.1024 0)
(-1.25446 -98.102 0)
(3.73189 -98.32 0)
(-1.33753 -98.1129 0)
(-1.26548 -98.1029 0)
(-1.25443 -98.1022 0)
(3.73196 -98.3153 0)
(-1.33574 -98.1149 0)
(-1.26538 -98.1033 0)
(-1.2544 -98.1025 0)
(3.73193 -98.3111 0)
(-1.33399 -98.1169 0)
(-1.26527 -98.1036 0)
(-1.25437 -98.1029 0)
(3.7319 -98.3067 0)
(-1.33228 -98.1189 0)
(-1.26515 -98.1041 0)
(-1.25433 -98.1032 0)
(3.73185 -98.3028 0)
(-1.33061 -98.1208 0)
(-1.26501 -98.1047 0)
(-1.25428 -98.1036 0)
(3.73178 -98.2884 0)
(-1.32898 -98.1154 0)
(-1.26486 -98.1053 0)
(-1.2542 -98.1039 0)
(3.73187 -98.2846 0)
(-1.32756 -98.1164 0)
(-1.26482 -98.0804 0)
(-1.25425 -98.1042 0)
(3.73173 -98.2716 0)
(-1.32558 -98.1 0)
(-1.26466 -98.0677 0)
(-1.25412 -98.1037 0)
(3.73211 -98.2691 0)
(-1.32416 -98.1041 0)
(-1.26488 -98.0924 0)
(-1.25361 -98.101 0)
(3.73086 -97.5555 0)
(-1.32263 -97.4432 0)
(-1.26461 -97.8812 0)
(-1.24529 -97.7979 0)
(-1.24871 -98.1484 0)
(-1.22881 -98.0979 0)
(-1.21742 -98.1508 0)
(3.98758 -98.1128 0)
(-1.24846 -98.1476 0)
(-1.22885 -98.1013 0)
(-1.21766 -98.1507 0)
(3.82771 -98.1218 0)
(-1.2485 -98.1108 0)
(-1.22886 -98.104 0)
(-1.21776 -98.1106 0)
(3.82593 -98.1132 0)
(-1.24839 -98.1311 0)
(-1.22884 -98.106 0)
(-1.21782 -98.1111 0)
(3.82567 -98.1132 0)
(-1.24846 -98.1191 0)
(-1.22853 -98.1064 0)
(-1.21788 -98.1107 0)
(3.82235 -98.1142 0)
(-1.24846 -98.0995 0)
(-1.2287 -98.102 0)
(-1.21795 -98.111 0)
(3.82066 -98.1163 0)
(-1.24846 -98.0993 0)
(-1.22872 -98.1022 0)
(-1.21812 -98.1017 0)
(3.81886 -98.1174 0)
(-1.24845 -98.0992 0)
(-1.22874 -98.1025 0)
(-1.2182 -98.1018 0)
(3.8171 -98.1132 0)
(-1.24845 -98.0988 0)
(-1.22877 -98.1025 0)
(-1.21829 -98.1019 0)
(3.81538 -98.1142 0)
(-1.24844 -98.097 0)
(-1.2288 -98.0993 0)
(-1.2184 -98.094 0)
(3.81369 -98.1136 0)
(-1.24838 -98.1036 0)
(-1.22872 -98.1095 0)
(-1.21853 -98.1026 0)
(3.8119 -98.1166 0)
(-1.24854 -98.0758 0)
(-1.22878 -98.1135 0)
(-1.21852 -98.0919 0)
(3.81059 -98.1136 0)
(-1.24853 -98.0296 0)
(-1.22899 -98.1042 0)
(-1.21854 -98.0599 0)
(3.80869 -98.1141 0)
(-1.24854 -97.5623 0)
(-1.22928 -98.1039 0)
(-1.21868 -98.0824 0)
(3.80706 -98.0521 0)
(-1.24858 -97.8877 0)
(-1.23765 -97.7315 0)
(-1.21767 -97.7809 0)
(3.80557 -97.7247 0)
)
;

boundaryField
{
    topWall
    {
        type            extrapolatedCalculated;
        value           nonuniform List<vector> 0();
    }
    botWall
    {
        type            extrapolatedCalculated;
        value           nonuniform List<vector> 8((3.74221 -98.1335 0) (-1.50491 -98.1023 0) (-1.27608 -98.1002 0) (-1.25386 -98.1 0) (-1.24871 -98.0999 0) (-1.22881 -98.1 0) (-1.21742 -98.1003 0) (3.98758 -98.1001 0));
    }
    inlet
    {
        type            cyclic;
    }
    outlet
    {
        type            cyclic;
    }
    fixWall
    {
        type            empty;
    }
    procBoundary0to1
    {
        type            processor;
        value           nonuniform List<vector> 8((3.7368 -98.7565 0) (-1.32959 -98.4295 0) (-1.2708 -98.3652 0) (-1.25372 -98.2336 0) (-1.24744 -98.3849 0) (-1.2275 -98.1021 0) (-1.21857 -98.2686 0) (3.81082 -98.0555 0));
    }
}


// ************************************************************************* //
