/*--------------------------------*- C++ -*----------------------------------*\
  =========                 |
  \\      /  F ield         | OpenFOAM: The Open Source CFD Toolbox
   \\    /   O peration     | Website:  https://openfoam.org
    \\  /    A nd           | Version:  dev
     \\/     M anipulation  |

   OpenFOAM for Windows 20.09 (v1)
   Built by CFD Support, www.cfdsupport.com (based on Symscape).
\*---------------------------------------------------------------------------*/
FoamFile
{
    version     2.0;
    format      ascii;
    class       volTensorField;
    location    "6";
    object      gradU;
}
// * * * * * * * * * * * * * * * * * * * * * * * * * * * * * * * * * * * * * //

dimensions      [0 0 -1 0 0 0 0];

internalField   nonuniform List<tensor> 
120
(
(-0.000179143 -1.48481e-06 0 4.87907 -0.0030798 0 0 0 0)
(2.78619e-05 6.59589e-05 0 4.86424 -0.000183596 0 0 0 0)
(0.000250199 1.37637e-06 0 4.86655 -5.28567e-05 0 0 0 0)
(8.08263e-05 2.13743e-07 0 4.89762 -0.000233318 0 0 0 0)
(-9.93394e-05 -2.4401e-06 0 4.39032 0.00199978 0 0 0 0)
(-0.000236555 -1.55099e-05 0 4.37919 0.000363777 0 0 0 0)
(0.0003062 -2.20507e-06 0 4.36344 -0.00021071 0 0 0 0)
(0.000173729 4.8e-06 0 4.38627 -0.000344482 0 0 0 0)
(-5.325e-05 9.08086e-07 0 3.91051 -0.00148087 0 0 0 0)
(-0.000420105 2.91175e-05 0 3.90233 0.000699713 0 0 0 0)
(0.000368191 -1.04279e-05 0 3.89334 -0.000279515 0 0 0 0)
(0.000186541 1.10521e-05 0 3.90777 -0.000391763 0 0 0 0)
(2.80383e-05 6.93015e-06 0 3.46646 0.00183401 0 0 0 0)
(-0.000522745 4.51266e-06 0 3.46333 0.000835064 0 0 0 0)
(0.000396979 -2.03963e-05 0 3.45811 -0.000295084 0 0 0 0)
(0.000130553 2.04082e-05 0 3.46546 -0.000340185 0 0 0 0)
(0.000126446 1.41381e-05 0 3.05829 -0.00089235 0 0 0 0)
(-0.000559237 -6.36739e-06 0 3.05812 0.000835869 0 0 0 0)
(0.00040367 -3.00154e-05 0 3.05575 -0.000313898 0 0 0 0)
(5.08444e-05 2.9663e-05 0 3.059 -0.000256999 0 0 0 0)
(0.000195716 2.23139e-05 0 2.68532 -0.000650249 0 0 0 0)
(-0.000565089 1.41535e-05 0 2.68645 0.000836638 0 0 0 0)
(0.000411605 -3.86108e-05 0 2.6863 -0.000307429 0 0 0 0)
(-2.31089e-05 4.18897e-05 0 2.68748 -0.000179714 0 0 0 0)
(0.000239043 3.07283e-05 0 2.34606 -0.000789895 0 0 0 0)
(-0.000543002 -6.53709e-07 0 2.34834 0.000799942 0 0 0 0)
(0.000420767 -4.69546e-05 0 2.3496 -0.000325392 0 0 0 0)
(-8.23041e-05 5.27823e-05 0 2.34985 -0.000120585 0 0 0 0)
(0.00025781 3.91714e-05 0 2.03923 -0.000731822 0 0 0 0)
(-0.000506149 2.18952e-05 0 2.04288 0.000752917 0 0 0 0)
(0.000436744 -5.39529e-05 0 2.04463 -0.000324565 0 0 0 0)
(-0.000117994 6.69787e-05 0 2.04451 -8.58147e-05 0 0 0 0)
(0.000268228 4.70418e-05 0 1.76319 -0.000598209 0 0 0 0)
(-0.000452961 6.1339e-06 0 1.76779 0.000687658 0 0 0 0)
(0.00044798 -6.09335e-05 0 1.77004 -0.000352567 0 0 0 0)
(-0.00013214 7.88077e-05 0 1.7701 -6.75241e-05 0 0 0 0)
(0.000249306 5.39174e-05 0 1.51658 -0.000821075 0 0 0 0)
(-0.000392086 2.59893e-05 0 1.52195 0.000592856 0 0 0 0)
(0.000475134 -6.65393e-05 0 1.52413 -0.000352713 0 0 0 0)
(-0.000117354 9.41373e-05 0 1.52447 -8.83621e-05 0 0 0 0)
(0.000229474 5.9431e-05 0 1.29756 -0.000473281 0 0 0 0)
(-0.000327251 1.39399e-05 0 1.30282 0.000577203 0 0 0 0)
(0.000490041 -7.22871e-05 0 1.30532 -0.00040034 0 0 0 0)
(-7.98087e-05 0.000106346 0 1.3062 -0.000117829 0 0 0 0)
(0.00016058 6.3911e-05 0 1.10422 -0.000680704 0 0 0 0)
(-0.000262679 2.7205e-05 0 1.10925 0.000521775 0 0 0 0)
(0.000531499 -7.81231e-05 0 1.11181 -0.000409964 0 0 0 0)
(-1.23646e-05 0.000121951 0 1.11273 -0.000283214 0 0 0 0)
(9.74174e-05 6.48924e-05 0 0.934877 -0.000309047 0 0 0 0)
(-0.000200884 1.84523e-05 0 0.9382 0.000458763 0 0 0 0)
(0.000548066 -8.57036e-05 0 0.941056 -0.000440064 0 0 0 0)
(6.9459e-05 0.000134246 0 0.942713 -0.00030982 0 0 0 0)
(-2.85623e-05 6.43268e-05 0 0.788153 -0.000468262 0 0 0 0)
(-0.000159706 2.50213e-05 0 0.788496 0.000333857 0 0 0 0)
(0.000606717 -9.09329e-05 0 0.791205 -0.000495072 0 0 0 0)
(0.00018719 0.000149243 0 0.793616 -0.00027662 0 0 0 0)
(-0.000154475 6.61109e-05 0 0.661761 -8.56064e-05 0 0 0 0)
(-0.000150022 1.80054e-05 0 0.658556 0.000188343 0 0 0 0)
(0.000633402 -9.58782e-05 0 0.661155 -0.000514337 0 0 0 0)
(0.000314894 0.000160964 0 0.664591 -0.000475577 0 0 0 0)
(-0.000113213 4.4789e-07 0 4.88183 0.000247968 0 0 0 0)
(1.00955e-05 -2.61453e-07 0 4.87275 -0.000104846 0 0 0 0)
(4.21574e-05 -3.39454e-07 0 4.88695 3.47746e-05 0 0 0 0)
(-0.000118784 -6.59112e-05 0 4.88095 5.18985e-05 0 0 0 0)
(-0.000301254 1.69332e-06 0 4.36978 0.000439593 0 0 0 0)
(7.53696e-05 -3.29177e-06 0 4.36422 -0.000183298 0 0 0 0)
(9.43933e-05 2.95186e-06 0 4.37745 -5.01906e-05 0 0 0 0)
(-1.25434e-05 1.40017e-05 0 4.37163 0.000220203 0 0 0 0)
(-0.000480758 3.13429e-06 0 3.89075 0.000656977 0 0 0 0)
(0.000137873 -8.42451e-06 0 3.88674 -0.000268852 0 0 0 0)
(0.000165817 6.38557e-06 0 3.89699 -0.000113587 0 0 0 0)
(9.56904e-05 -3.17451e-05 0 3.89468 0.000137498 0 0 0 0)
(-0.00065182 3.74183e-06 0 3.44997 0.000821568 0 0 0 0)
(0.000179419 -1.61345e-05 0 3.44648 -0.000302336 0 0 0 0)
(0.000226803 9.72436e-06 0 3.45335 -0.000173147 0 0 0 0)
(0.000212773 -8.78636e-06 0 3.45255 4.12645e-05 0 0 0 0)
(-0.000797096 3.76511e-06 0 3.04653 0.000974993 0 0 0 0)
(0.00019426 -2.50031e-05 0 3.04316 -0.000327272 0 0 0 0)
(0.00026698 1.21122e-05 0 3.04785 -0.000210267 0 0 0 0)
(0.000314133 1.70748e-06 0 3.04806 -8.71577e-05 0 0 0 0)
(-0.000915738 2.57061e-06 0 2.67831 0.00107973 0 0 0 0)
(0.000201545 -3.58888e-05 0 2.67489 -0.000323722 0 0 0 0)
(0.000308418 1.37263e-05 0 2.67867 -0.000252842 0 0 0 0)
(0.000386652 -2.01544e-05 0 2.6797 -0.000158776 0 0 0 0)
(-0.00100692 1.36497e-06 0 2.34391 0.00117995 0 0 0 0)
(0.00020032 -4.72126e-05 0 2.34049 -0.000329086 0 0 0 0)
(0.000347107 1.48613e-05 0 2.34381 -0.000288794 0 0 0 0)
(0.000424987 -4.91597e-06 0 2.34461 -0.000211507 0 0 0 0)
(-0.00107177 -9.04418e-07 0 2.04164 0.00123696 0 0 0 0)
(0.000199992 -6.03679e-05 0 2.03831 -0.000321867 0 0 0 0)
(0.000377211 1.56859e-05 0 2.04141 -0.000308112 0 0 0 0)
(0.000424152 -2.85061e-05 0 2.04113 -0.000225892 0 0 0 0)
(-0.00111027 -2.56923e-06 0 1.77007 0.00127695 0 0 0 0)
(0.000196447 -7.29638e-05 0 1.76689 -0.000323429 0 0 0 0)
(0.000394057 1.64609e-05 0 1.76988 -0.000341829 0 0 0 0)
(0.000388655 -1.19778e-05 0 1.7683 -0.000197103 0 0 0 0)
(-0.00112527 -5.16951e-06 0 1.52727 0.00129961 0 0 0 0)
(0.000196783 -8.73475e-05 0 1.52431 -0.000327282 0 0 0 0)
(0.00040083 1.77914e-05 0 1.52714 -0.000302567 0 0 0 0)
(0.000312657 -3.27791e-05 0 1.52427 -0.000150496 0 0 0 0)
(-0.00111297 -6.55122e-06 0 1.31162 0.00126847 0 0 0 0)
(0.000194308 -9.96668e-05 0 1.30867 -0.000308879 0 0 0 0)
(0.000393459 1.94073e-05 0 1.31143 -0.000355499 0 0 0 0)
(0.000212751 -2.06196e-05 0 1.30814 -2.2413e-05 0 0 0 0)
(-0.00108413 -8.35368e-06 0 1.12076 0.00126403 0 0 0 0)
(0.000193625 -0.000114414 0 1.1181 -0.000355038 0 0 0 0)
(0.00039205 2.25658e-05 0 1.12058 -0.000246947 0 0 0 0)
(8.14183e-05 -3.47421e-05 0 1.11717 0.000194093 0 0 0 0)
(-0.00102351 -7.74829e-06 0 0.953029 0.00119745 0 0 0 0)
(0.000191291 -0.00012485 0 0.951267 -0.000296143 0 0 0 0)
(0.000378025 2.85595e-05 0 0.952861 -0.000237872 0 0 0 0)
(-5.98659e-05 -2.78489e-05 0 0.949549 0.000433816 0 0 0 0)
(-0.000941568 -8.12572e-06 0 0.805931 0.00110802 0 0 0 0)
(0.000190826 -0.000138336 0 0.805487 -0.000288401 0 0 0 0)
(0.000363413 3.47318e-05 0 0.805946 -0.000399837 0 0 0 0)
(-0.00021831 -3.59284e-05 0 0.80361 0.000260744 0 0 0 0)
(-0.000825659 -7.94464e-06 0 0.678666 0.000944295 0 0 0 0)
(0.000191541 -0.000149981 0 0.67899 -0.000310801 0 0 0 0)
(0.000346733 3.77119e-05 0 0.678329 -0.000268726 0 0 0 0)
(-0.000356413 -2.89893e-05 0 0.677818 0.000183071 0 0 0 0)
)
;

boundaryField
{
    topWall
    {
        type            extrapolatedCalculated;
        value           nonuniform List<tensor> 0();
    }
    botWall
    {
        type            extrapolatedCalculated;
        value           nonuniform List<tensor> 8((-0.000179143 -1.48481e-06 0 5.11877 -0.0157424 0 0 0 0) (2.78619e-05 6.59589e-05 0 5.10051 -0.000503351 0 0 0 0) (0.000250199 1.37637e-06 0 5.12546 8.77251e-05 0 0 0 0) (8.08263e-05 2.13743e-07 0 5.16056 -0.000173023 0 0 0 0) (-0.000113213 4.4789e-07 0 5.14485 0.000139023 0 0 0 0) (1.00955e-05 -2.61453e-07 0 5.13339 -6.55291e-05 0 0 0 0) (4.21574e-05 -3.39454e-07 0 5.14728 7.62746e-05 0 0 0 0) (-0.000118784 -6.59112e-05 0 5.1435 -0.000146998 0 0 0 0));
    }
    inlet
    {
        type            cyclic;
    }
    outlet
    {
        type            cyclic;
    }
    fixWall
    {
        type            empty;
    }
    procBoundary0to1
    {
        type            processor;
        value           nonuniform List<tensor> 8((-0.000349592 6.44147e-05 0 0.549847 3.13663e-06 0 0 0 0) (-0.000169814 1.78758e-05 0 0.549724 0.000223191 0 0 0 0) (0.000707295 -0.000101998 0 0.550927 -0.000621608 0 0 0 0) (0.000479049 0.000173553 0 0.553683 -0.000511979 0 0 0 0) (-0.000701587 -5.37946e-06 0 0.567412 0.000797983 0 0 0 0) (0.000185208 -0.000158553 0 0.568318 -0.00023604 0 0 0 0) (0.000343885 4.2963e-05 0 0.567607 -0.000306691 0 0 0 0) (-0.000494443 -3.28764e-05 0 0.564178 0.000373127 0 0 0 0));
    }
}


// ************************************************************************* //
