/*--------------------------------*- C++ -*----------------------------------*\
  =========                 |
  \\      /  F ield         | OpenFOAM: The Open Source CFD Toolbox
   \\    /   O peration     | Website:  https://openfoam.org
    \\  /    A nd           | Version:  dev
     \\/     M anipulation  |

   OpenFOAM for Windows 20.09 (v1)
   Built by CFD Support, www.cfdsupport.com (based on Symscape).
\*---------------------------------------------------------------------------*/
FoamFile
{
    version     2.0;
    format      ascii;
    class       volVectorField;
    location    "6";
    object      gradp_rgh;
}
// * * * * * * * * * * * * * * * * * * * * * * * * * * * * * * * * * * * * * //

dimensions      [1 -2 -2 0 0 0 0];

internalField   nonuniform List<vector> 
120
(
(-1.25778 -9.65132 0)
(-1.50505 -0.649337 0)
(-1.27609 -0.0401125 0)
(-1.25386 -0.0130321 0)
(-1.26839 -9.75807 0)
(-1.34487 -0.651025 0)
(-1.26548 -0.0407471 0)
(-1.254 -0.0138559 0)
(-1.26827 -0.133266 0)
(-1.3431 0.0194094 0)
(-1.26547 -0.00143223 0)
(-1.25397 -0.00840454 0)
(-1.26785 -0.226488 0)
(-1.34267 -0.00304746 0)
(-1.26595 -0.00185564 0)
(-1.25415 -0.00851359 0)
(-1.2681 -0.311281 0)
(-1.33935 -0.0300534 0)
(-1.26556 -0.00241698 0)
(-1.25445 -0.00200892 0)
(-1.26811 -0.219875 0)
(-1.33752 -0.0128072 0)
(-1.26548 -0.00299813 0)
(-1.25443 -0.00233494 0)
(-1.26804 -0.215075 0)
(-1.33574 -0.0147688 0)
(-1.26538 -0.00339913 0)
(-1.2544 -0.00266408 0)
(-1.26807 -0.210984 0)
(-1.33399 -0.0168251 0)
(-1.26528 -0.00371911 0)
(-1.25437 -0.00300178 0)
(-1.2681 -0.206635 0)
(-1.33228 -0.0188533 0)
(-1.26515 -0.00422598 0)
(-1.25433 -0.00335352 0)
(-1.26814 -0.202689 0)
(-1.33062 -0.0207275 0)
(-1.26502 -0.00485107 0)
(-1.25428 -0.00374002 0)
(-1.26821 -0.188248 0)
(-1.32899 -0.0152498 0)
(-1.26487 -0.00550359 0)
(-1.2542 -0.00411108 0)
(-1.26811 -0.184517 0)
(-1.32757 -0.0163892 0)
(-1.26483 0.0191714 0)
(-1.25425 -0.0045459 0)
(-1.26826 -0.171872 0)
(-1.32559 -0.000339116 0)
(-1.26467 0.0317856 0)
(-1.25411 -0.0038041 0)
(-1.26789 -0.163738 0)
(-1.32418 -0.000837362 0)
(-1.26489 0.0117118 0)
(-1.25359 -0.00218165 0)
(-1.26906 0.560479 0)
(-1.32267 0.669982 0)
(-1.2647 0.226349 0)
(-1.24544 0.296676 0)
(-1.24871 -0.0484169 0)
(-1.22881 0.00210346 0)
(-1.21742 -0.0506275 0)
(-1.01228 -0.0127906 0)
(-1.24846 -0.0473423 0)
(-1.22885 -0.00124698 0)
(-1.21766 -0.0508102 0)
(-1.17229 -0.0218987 0)
(-1.2485 -0.0106322 0)
(-1.22887 -0.00391914 0)
(-1.21776 -0.0107192 0)
(-1.17407 -0.0132778 0)
(-1.24839 -0.031073 0)
(-1.22885 -0.00598606 0)
(-1.21782 -0.0110527 0)
(-1.17434 -0.0131975 0)
(-1.24846 -0.0192038 0)
(-1.22853 -0.00641408 0)
(-1.21788 -0.0106721 0)
(-1.17766 -0.0142136 0)
(-1.24846 0.000321413 0)
(-1.22871 -0.00212735 0)
(-1.21795 -0.0111351 0)
(-1.17935 -0.0163528 0)
(-1.24846 0.00036704 0)
(-1.22872 -0.00243467 0)
(-1.21812 -0.00204184 0)
(-1.18114 -0.0175587 0)
(-1.24846 0.000482784 0)
(-1.22875 -0.00273106 0)
(-1.2182 -0.00223047 0)
(-1.1829 -0.0134149 0)
(-1.24845 0.000852045 0)
(-1.22877 -0.00273421 0)
(-1.21829 -0.00236376 0)
(-1.18462 -0.0144434 0)
(-1.24845 0.00273053 0)
(-1.2288 0.000511677 0)
(-1.2184 0.00560618 0)
(-1.1863 -0.0138044 0)
(-1.24838 -0.00364835 0)
(-1.22872 -0.00951512 0)
(-1.21853 -0.00276848 0)
(-1.18809 -0.016716 0)
(-1.24854 0.0245374 0)
(-1.22878 -0.0131094 0)
(-1.21852 0.00819621 0)
(-1.18939 -0.0136253 0)
(-1.24852 0.0711497 0)
(-1.22899 -0.00353033 0)
(-1.21854 0.0404678 0)
(-1.1913 -0.0138172 0)
(-1.24853 0.531891 0)
(-1.2293 -0.00377213 0)
(-1.21869 0.0164976 0)
(-1.19293 0.0471777 0)
(-1.24855 0.209454 0)
(-1.23758 0.37343 0)
(-1.21769 0.313106 0)
(-1.19431 0.378856 0)
)
;

boundaryField
{
    topWall
    {
        type            extrapolatedCalculated;
        value           nonuniform List<vector> 0();
    }
    botWall
    {
        type            extrapolatedCalculated;
        value           nonuniform List<vector> 8((-1.25778 0 0) (-1.50505 0 0) (-1.27609 0 0) (-1.25386 0 0) (-1.24871 0 0) (-1.22881 0 0) (-1.21742 0 0) (-1.01228 0 0));
    }
    inlet
    {
        type            cyclic;
    }
    outlet
    {
        type            cyclic;
    }
    fixWall
    {
        type            empty;
    }
    procBoundary0to1
    {
        type            processor;
        value           nonuniform List<vector> 8((-1.26304 -0.662519 0) (-1.32975 -0.333209 0) (-1.27111 -0.268456 0) (-1.25388 -0.13182 0) (-1.24725 -0.278941 0) (-1.22757 -0.00212307 0) (-1.2186 -0.166655 0) (-1.18881 0.0457942 0));
    }
}


// ************************************************************************* //
