/*--------------------------------*- C++ -*----------------------------------*\
  =========                 |
  \\      /  F ield         | OpenFOAM: The Open Source CFD Toolbox
   \\    /   O peration     | Website:  https://openfoam.org
    \\  /    A nd           | Version:  dev
     \\/     M anipulation  |

   OpenFOAM for Windows 20.09 (v1)
   Built by CFD Support, www.cfdsupport.com (based on Symscape).
\*---------------------------------------------------------------------------*/
FoamFile
{
    version     2.0;
    format      ascii;
    class       volScalarField;
    location    "6";
    object      nut;
}
// * * * * * * * * * * * * * * * * * * * * * * * * * * * * * * * * * * * * * //

dimensions      [0 2 -1 0 0 0 0];

internalField   nonuniform List<scalar> 
120
(
2.5539e-21
2.5539e-21
2.5539e-21
2.5539e-21
1.48091e-20
1.48091e-20
1.48091e-20
1.48091e-20
4.35171e-20
4.3517e-20
4.35171e-20
4.35171e-20
9.26008e-20
9.26003e-20
9.26007e-20
9.26007e-20
1.64175e-19
1.64174e-19
1.64175e-19
1.64175e-19
2.58171e-19
2.58169e-19
2.58171e-19
2.58171e-19
3.74631e-19
3.74626e-19
3.74631e-19
3.7463e-19
5.13585e-19
5.13576e-19
5.13586e-19
5.13582e-19
6.75045e-19
6.75032e-19
6.75048e-19
6.75039e-19
8.59005e-19
8.58989e-19
8.59012e-19
8.58992e-19
1.06544e-18
1.06542e-18
1.06545e-18
1.06542e-18
1.29429e-18
1.29427e-18
1.29431e-18
1.29425e-18
1.54547e-18
1.54546e-18
1.5455e-18
1.54541e-18
1.81884e-18
1.81884e-18
1.81888e-18
1.81875e-18
2.11416e-18
2.11421e-18
2.11422e-18
2.11404e-18
2.5539e-21
2.5539e-21
2.5539e-21
2.5539e-21
1.48091e-20
1.48091e-20
1.48091e-20
1.48091e-20
4.3517e-20
4.35171e-20
4.35171e-20
4.3517e-20
9.26003e-20
9.26006e-20
9.26006e-20
9.26004e-20
1.64174e-19
1.64175e-19
1.64175e-19
1.64174e-19
2.58168e-19
2.58171e-19
2.58171e-19
2.5817e-19
3.74623e-19
3.74631e-19
3.7463e-19
3.7463e-19
5.1357e-19
5.13585e-19
5.13585e-19
5.13585e-19
6.75018e-19
6.75046e-19
6.75047e-19
6.75047e-19
8.58962e-19
8.59007e-19
8.5901e-19
8.59011e-19
1.06537e-18
1.06544e-18
1.06545e-18
1.06545e-18
1.2942e-18
1.2943e-18
1.29431e-18
1.29431e-18
1.54535e-18
1.54548e-18
1.54551e-18
1.54551e-18
1.81867e-18
1.81885e-18
1.8189e-18
1.81889e-18
2.11396e-18
2.11419e-18
2.11427e-18
2.11424e-18
)
;

boundaryField
{
    topWall
    {
        type            nutkWallFunction;
        Cmu             0.09;
        kappa           0.41;
        E               9.8;
        value           nonuniform List<scalar> 0();
    }
    botWall
    {
        type            nutkWallFunction;
        Cmu             0.09;
        kappa           0.41;
        E               9.8;
        value           uniform 0;
    }
    inlet
    {
        type            cyclic;
    }
    outlet
    {
        type            cyclic;
    }
    fixWall
    {
        type            empty;
    }
    procBoundary0to1
    {
        type            processor;
        value           nonuniform List<scalar> 8(2.43123e-18 2.43131e-18 2.43131e-18 2.43108e-18 2.43099e-18 2.43128e-18 2.43139e-18 2.43133e-18);
    }
}


// ************************************************************************* //
