/*--------------------------------*- C++ -*----------------------------------*\
  =========                 |
  \\      /  F ield         | OpenFOAM: The Open Source CFD Toolbox
   \\    /   O peration     | Website:  https://openfoam.org
    \\  /    A nd           | Version:  dev
     \\/     M anipulation  |

   OpenFOAM for Windows 20.09 (v1)
   Built by CFD Support, www.cfdsupport.com (based on Symscape).
\*---------------------------------------------------------------------------*/
FoamFile
{
    version     2.0;
    format      ascii;
    class       volScalarField;
    location    "6";
    object      omega;
}
// * * * * * * * * * * * * * * * * * * * * * * * * * * * * * * * * * * * * * //

dimensions      [0 0 -1 0 0 0 0];

internalField   nonuniform List<scalar> 
120
(
86943.4
86943.4
86943.4
86943.4
14993.8
14993.8
14993.8
14993.8
5102.46
5102.48
5102.47
5102.47
2397.87
2397.88
2397.87
2397.87
1352.48
1352.5
1352.49
1352.49
860.067
860.076
860.067
860.068
592.703
592.711
592.702
592.704
432.343
432.35
432.341
432.345
328.933
328.939
328.931
328.936
258.49
258.495
258.488
258.494
208.407
208.411
208.405
208.411
171.557
171.559
171.554
171.562
143.674
143.675
143.672
143.68
122.081
122.08
122.078
122.086
105.027
105.025
105.024
105.033
86943.4
86943.4
86943.4
86943.4
14993.8
14993.8
14993.8
14993.8
5102.48
5102.47
5102.47
5102.48
2397.88
2397.87
2397.88
2397.88
1352.5
1352.49
1352.49
1352.49
860.079
860.068
860.069
860.071
592.715
592.702
592.703
592.704
432.355
432.342
432.343
432.343
328.946
328.932
328.932
328.932
258.503
258.49
258.489
258.489
208.42
208.406
208.404
208.404
171.569
171.556
171.554
171.554
143.686
143.673
143.67
143.671
122.092
122.079
122.076
122.077
105.037
105.026
105.022
105.023
)
;

boundaryField
{
    topWall
    {
        beta1           0.075;
        blended         0;
        type            omegaWallFunction;
        value           nonuniform List<scalar> 0();
    }
    botWall
    {
        beta1           0.075;
        blended         0;
        type            omegaWallFunction;
        value           nonuniform List<scalar> 8(86943.4 86943.4 86943.4 86943.4 86943.4 86943.4 86943.4 86943.4);
    }
    inlet
    {
        type            cyclic;
    }
    outlet
    {
        type            cyclic;
    }
    fixWall
    {
        type            empty;
    }
    procBoundary0to1
    {
        type            processor;
        value           nonuniform List<scalar> 8(91.3302 91.327 91.3271 91.3359 91.3393 91.3285 91.3243 91.3264);
    }
}


// ************************************************************************* //
