/*--------------------------------*- C++ -*----------------------------------*\
  =========                 |
  \\      /  F ield         | OpenFOAM: The Open Source CFD Toolbox
   \\    /   O peration     | Website:  https://openfoam.org
    \\  /    A nd           | Version:  dev
     \\/     M anipulation  |

   OpenFOAM for Windows 20.09 (v1)
   Built by CFD Support, www.cfdsupport.com (based on Symscape).
\*---------------------------------------------------------------------------*/
FoamFile
{
    version     2.0;
    format      ascii;
    class       volScalarField;
    location    "6";
    object      p;
}
// * * * * * * * * * * * * * * * * * * * * * * * * * * * * * * * * * * * * * //

dimensions      [1 -1 -2 0 0 0 0];

internalField   nonuniform List<scalar> 
120
(
0
-0.0844726
-0.150491
-0.21208
-0.0978216
-0.167304
-0.232308
-0.293852
-0.179749
-0.249057
-0.314059
-0.375604
-0.261543
-0.330771
-0.395811
-0.457366
-0.343626
-0.412562
-0.477562
-0.539118
-0.425562
-0.494322
-0.559314
-0.62087
-0.507493
-0.576083
-0.641067
-0.702622
-0.589421
-0.657846
-0.72282
-0.784374
-0.671345
-0.739611
-0.804573
-0.866126
-0.753265
-0.821378
-0.886327
-0.947879
-0.835183
-0.903146
-0.968081
-1.02963
-0.917079
-0.984904
-1.04984
-1.11139
-0.99899
-1.06667
-1.13155
-1.19314
-1.08087
-1.1484
-1.21328
-1.27489
-1.16277
-1.23018
-1.29504
-1.35664
-0.275877
-0.336952
-0.398758
-0.458693
-0.357708
-0.418698
-0.480592
-0.540465
-0.439456
-0.500454
-0.562343
-0.62223
-0.521226
-0.582205
-0.64411
-0.703987
-0.603008
-0.663964
-0.725861
-0.785752
-0.684758
-0.745716
-0.807628
-0.86751
-0.766507
-0.827467
-0.889379
-0.949279
-0.848257
-0.909219
-0.971131
-1.03104
-0.930006
-0.990971
-1.05288
-1.1128
-1.01175
-1.07272
-1.13463
-1.19456
-1.0935
-1.15447
-1.21637
-1.27632
-1.17526
-1.23624
-1.29814
-1.35809
-1.25696
-1.31799
-1.37986
-1.43985
-1.33864
-1.39975
-1.46157
-1.52161
-1.41956
-1.4815
-1.54333
-1.60327
)
;

boundaryField
{
    topWall
    {
        type            calculated;
        value           nonuniform List<scalar> 0();
    }
    botWall
    {
        type            calculated;
        value           nonuniform List<scalar> 8(0.040889 -0.0435967 -0.109616 -0.171205 -0.235002 -0.296077 -0.357883 -0.417818);
    }
    inlet
    {
        type            cyclic;
    }
    outlet
    {
        type            cyclic;
    }
    fixWall
    {
        type            empty;
    }
    procBoundary0to1
    {
        type            processor;
        value           nonuniform List<scalar> 8(-1.24346 -1.31081 -1.37642 -1.43789 -1.50179 -1.56263 -1.62454 -1.68449);
    }
}


// ************************************************************************* //
