/*--------------------------------*- C++ -*----------------------------------*\
  =========                 |
  \\      /  F ield         | OpenFOAM: The Open Source CFD Toolbox
   \\    /   O peration     | Website:  https://openfoam.org
    \\  /    A nd           | Version:  dev
     \\/     M anipulation  |

   OpenFOAM for Windows 20.09 (v1)
   Built by CFD Support, www.cfdsupport.com (based on Symscape).
\*---------------------------------------------------------------------------*/
FoamFile
{
    version     2.0;
    format      ascii;
    class       volScalarField;
    location    "6";
    object      p_rgh;
}
// * * * * * * * * * * * * * * * * * * * * * * * * * * * * * * * * * * * * * //

dimensions      [1 -1 -2 0 0 0 0];

internalField   nonuniform List<scalar> 
120
(
0.040889
-0.0435967
-0.109616
-0.171205
0.0248034
-0.0446789
-0.109683
-0.171227
0.0246255
-0.0446817
-0.109684
-0.171229
0.0245813
-0.0446466
-0.109685
-0.171241
0.024248
-0.0446868
-0.109687
-0.171243
0.0240625
-0.0446967
-0.109689
-0.171245
0.0238816
-0.0447082
-0.109692
-0.171247
0.0237041
-0.0447213
-0.109695
-0.171249
0.0235299
-0.0447362
-0.109698
-0.171252
0.0233597
-0.0447527
-0.109702
-0.171255
0.0231921
-0.0447707
-0.109707
-0.171258
0.0230459
-0.0447781
-0.109711
-0.171261
0.0228846
-0.0447981
-0.109675
-0.171265
0.0227595
-0.0447787
-0.109658
-0.171268
0.0226117
-0.0447995
-0.109655
-0.171269
-0.235002
-0.296077
-0.357883
-0.417818
-0.235083
-0.296073
-0.357967
-0.41784
-0.235081
-0.296079
-0.357968
-0.417855
-0.2351
-0.29608
-0.357985
-0.417862
-0.235133
-0.296089
-0.357986
-0.417877
-0.235132
-0.29609
-0.358003
-0.417885
-0.235132
-0.296092
-0.358005
-0.417904
-0.235132
-0.296095
-0.358006
-0.417915
-0.235131
-0.296097
-0.358008
-0.417926
-0.23513
-0.296099
-0.35801
-0.417939
-0.235127
-0.296096
-0.357999
-0.417949
-0.235136
-0.296115
-0.358015
-0.417967
-0.235086
-0.296118
-0.357985
-0.417972
-0.235018
-0.296121
-0.357947
-0.41799
-0.234199
-0.296124
-0.357958
-0.417893
)
;

boundaryField
{
    topWall
    {
        type            zeroGradient;
    }
    botWall
    {
        type            zeroGradient;
    }
    inlet
    {
        type            fixedJump;
        patchType       cyclic;
        jump            uniform -0.5;
        value           nonuniform List<scalar> 
15
(
0.0523591
0.0523849
0.0524562
0.0525396
0.0526214
0.0527104
0.0528018
0.0528947
0.0529888
0.0530885
0.0531856
0.0533598
0.0533854
0.0534819
0.0615353
)
;
    }
    outlet
    {
        type            fixedJump;
        patchType       cyclic;
        value           nonuniform List<scalar> 
15
(
-0.447641
-0.447615
-0.447544
-0.44746
-0.447379
-0.44729
-0.447198
-0.447105
-0.447011
-0.446911
-0.446814
-0.44664
-0.446615
-0.446518
-0.438465
)
;
    }
    fixWall
    {
        type            empty;
    }
    procBoundary0to1
    {
        type            processor;
        value           nonuniform List<scalar> 8(0.0236936 -0.043662 -0.109281 -0.170773 -0.234669 -0.295498 -0.357426 -0.417358);
    }
}


// ************************************************************************* //
