/*--------------------------------*- C++ -*----------------------------------*\
  =========                 |
  \\      /  F ield         | OpenFOAM: The Open Source CFD Toolbox
   \\    /   O peration     | Website:  https://openfoam.org
    \\  /    A nd           | Version:  dev
     \\/     M anipulation  |

   OpenFOAM for Windows 20.09 (v1)
   Built by CFD Support, www.cfdsupport.com (based on Symscape).
\*---------------------------------------------------------------------------*/
FoamFile
{
    version     2.0;
    format      ascii;
    class       surfaceScalarField;
    location    "6";
    object      phi;
}
// * * * * * * * * * * * * * * * * * * * * * * * * * * * * * * * * * * * * * //

dimensions      [0 3 -1 0 0 0 0];

internalField   nonuniform List<scalar> 
217
(
1.76619e-09
1.9296e-11
1.78138e-09
-1.51901e-11
1.78329e-09
-1.91021e-12
-8.54841e-12
1.79183e-09
5.00452e-09
-3.90288e-14
4.98135e-09
7.97689e-12
4.99049e-09
-1.10473e-11
-2.41976e-11
5.00614e-09
7.87625e-09
-2.06034e-11
7.84594e-09
3.82933e-11
7.85748e-09
-2.25809e-11
-4.05909e-11
7.87387e-09
1.04286e-08
-4.23082e-11
1.03954e-08
7.15135e-11
1.04079e-08
-3.51202e-11
-5.46629e-11
1.0422e-08
1.26878e-08
-6.885e-11
1.26528e-08
1.0659e-10
1.26656e-08
-4.7922e-11
-6.52683e-11
1.26762e-08
1.46761e-08
-9.74825e-11
1.46413e-08
1.41387e-10
1.46543e-08
-6.09416e-11
-7.27802e-11
1.46618e-08
1.64174e-08
-1.27087e-10
1.63841e-08
1.7474e-10
1.63974e-08
-7.42385e-11
-7.78112e-11
1.64024e-08
1.79353e-08
-1.56746e-10
1.79039e-08
2.06086e-10
1.79178e-08
-8.8104e-11
-8.13382e-11
1.79213e-08
1.92515e-08
-1.86132e-10
1.92228e-08
2.34762e-10
1.92371e-08
-1.02347e-10
-8.4257e-11
1.924e-08
2.03867e-08
-2.14049e-10
2.0361e-08
2.60469e-10
2.03763e-08
-1.17638e-10
-8.77734e-11
2.03798e-08
2.1361e-08
-2.4056e-10
2.13383e-08
2.83122e-10
2.13542e-08
-1.33455e-10
-9.2911e-11
2.13593e-08
2.21919e-08
-2.6347e-10
2.21722e-08
3.02894e-10
2.21899e-08
-1.51203e-10
-1.007e-10
2.21977e-08
2.28972e-08
-2.82953e-10
2.28813e-08
3.18788e-10
2.28988e-08
-1.68726e-10
-1.12091e-10
2.29102e-08
2.3492e-08
-2.96891e-10
2.34775e-08
3.33338e-10
2.34982e-08
-1.8946e-10
-1.27738e-10
2.35139e-08
2.39917e-08
2.3978e-08
2.4e-08
2.40203e-08
1.78244e-09
9.39403e-12
1.78645e-09
-4.01102e-12
1.78486e-09
1.59529e-12
-6.36561e-13
4.98676e-09
2.87817e-11
4.9949e-09
-1.21506e-11
4.997e-09
-5.03009e-13
1.11771e-11
7.84672e-09
5.59409e-11
7.85764e-09
-2.30729e-11
7.86263e-09
-5.48532e-12
1.81263e-11
1.03874e-08
9.05145e-11
1.04004e-08
-3.60203e-11
1.04075e-08
-1.25978e-11
1.8744e-11
1.26359e-08
1.30766e-10
1.26493e-08
-4.93475e-11
1.26581e-08
-2.14401e-11
1.55649e-11
1.46166e-08
1.75967e-10
1.46303e-08
-6.30045e-11
1.46407e-08
-3.18841e-11
8.84647e-12
1.63534e-08
2.24954e-10
1.6367e-08
-7.65844e-11
1.6379e-08
-4.38474e-11
-2.2714e-14
1.78697e-08
2.76627e-10
1.78832e-08
-9.01363e-11
1.78963e-08
-5.69679e-11
-9.34256e-12
1.91867e-08
3.29888e-10
1.92001e-08
-1.03524e-10
1.92138e-08
-7.06982e-11
-1.76515e-11
2.03259e-08
3.8376e-10
2.03393e-08
-1.16913e-10
2.03532e-08
-8.46159e-11
-2.32456e-11
2.13058e-08
4.37295e-10
2.13194e-08
-1.30593e-10
2.13325e-08
-9.76485e-11
-2.53009e-11
2.21456e-08
4.8942e-10
2.21588e-08
-1.43778e-10
2.21721e-08
-1.10998e-10
-2.22542e-11
2.28609e-08
5.38788e-10
2.28734e-08
-1.56366e-10
2.28867e-08
-1.24291e-10
-1.3265e-11
2.34683e-08
5.84308e-10
2.34808e-08
-1.68832e-10
2.34932e-08
-1.36721e-10
1.86657e-12
2.39803e-08
2.39926e-08
2.4004e-08
)
;

boundaryField
{
    topWall
    {
        type            calculated;
        value           nonuniform List<scalar> 0();
    }
    botWall
    {
        type            calculated;
        value           uniform 0;
    }
    inlet
    {
        type            cyclic;
        value           nonuniform List<scalar> 
15
(
-2.39839e-08
-2.34781e-08
-2.28777e-08
-2.2169e-08
-2.13345e-08
-2.03588e-08
-1.92221e-08
-1.79056e-08
-1.63878e-08
-1.46474e-08
-1.26613e-08
-1.04069e-08
-7.85569e-09
-4.98519e-09
-1.78549e-09
)
;
    }
    outlet
    {
        type            cyclic;
        value           nonuniform List<scalar> 
15
(
2.39839e-08
2.34781e-08
2.28777e-08
2.2169e-08
2.13345e-08
2.03588e-08
1.92221e-08
1.79056e-08
1.63878e-08
1.46474e-08
1.26613e-08
1.04069e-08
7.85569e-09
4.98519e-09
1.78549e-09
)
;
    }
    fixWall
    {
        type            empty;
        value           nonuniform List<scalar> 0();
    }
    procBoundary0to1
    {
        type            processor;
        value           nonuniform List<scalar> 8(-3.04718e-10 3.46759e-10 -2.11987e-10 -1.48409e-10 6.24144e-10 -1.82152e-10 -1.48056e-10 2.15079e-11);
    }
}


// ************************************************************************* //
