/*--------------------------------*- C++ -*----------------------------------*\
  =========                 |
  \\      /  F ield         | OpenFOAM: The Open Source CFD Toolbox
   \\    /   O peration     | Website:  https://openfoam.org
    \\  /    A nd           | Version:  dev
     \\/     M anipulation  |

   OpenFOAM for Windows 20.09 (v1)
   Built by CFD Support, www.cfdsupport.com (based on Symscape).
\*---------------------------------------------------------------------------*/
FoamFile
{
    version     2.0;
    format      ascii;
    class       volSymmTensorField;
    location    "6";
    object      R;
}
// * * * * * * * * * * * * * * * * * * * * * * * * * * * * * * * * * * * * * //

dimensions      [0 2 -2 0 0 0 0];

internalField   nonuniform List<symmTensor> 
120
(
(1.4803e-16 -1.24607e-20 -0 1.4803e-16 -0 1.4803e-16)
(1.4803e-16 -1.24229e-20 -0 1.4803e-16 -0 1.4803e-16)
(1.4803e-16 -1.24287e-20 -0 1.4803e-16 -0 1.4803e-16)
(1.4803e-16 -1.2508e-20 -0 1.4803e-16 -0 1.4803e-16)
(1.4803e-16 -6.50165e-20 -0 1.4803e-16 -0 1.4803e-16)
(1.4803e-16 -6.48514e-20 -0 1.4803e-16 -0 1.4803e-16)
(1.4803e-16 -6.46184e-20 -0 1.4803e-16 -0 1.4803e-16)
(1.4803e-16 -6.49566e-20 -0 1.4803e-16 -0 1.4803e-16)
(1.4803e-16 -1.70174e-19 -0 1.4803e-16 -0 1.4803e-16)
(1.4803e-16 -1.69819e-19 -0 1.4803e-16 -0 1.4803e-16)
(1.4803e-16 -1.69426e-19 -0 1.4803e-16 -0 1.4803e-16)
(1.4803e-16 -1.70055e-19 -0 1.4803e-16 -0 1.4803e-16)
(1.4803e-16 -3.20998e-19 -0 1.4803e-16 -0 1.4803e-16)
(1.4803e-16 -3.20706e-19 -0 1.4803e-16 -0 1.4803e-16)
(1.4803e-16 -3.20222e-19 -0 1.4803e-16 -0 1.4803e-16)
(1.4803e-16 -3.20906e-19 -0 1.4803e-16 -0 1.4803e-16)
(1.4803e-16 -5.02098e-19 -0 1.4803e-16 -0 1.4803e-16)
(1.4803e-16 -5.02062e-19 -0 1.48029e-16 -0 1.4803e-16)
(1.4803e-16 -5.01672e-19 -0 1.4803e-16 -0 1.4803e-16)
(1.4803e-16 -5.02216e-19 -0 1.4803e-16 -0 1.4803e-16)
(1.4803e-16 -6.93279e-19 -0 1.4803e-16 -0 1.4803e-16)
(1.4803e-16 -6.93561e-19 -0 1.48029e-16 -0 1.4803e-16)
(1.4803e-16 -6.93515e-19 -0 1.4803e-16 -0 1.4803e-16)
(1.4803e-16 -6.9384e-19 -0 1.4803e-16 -0 1.4803e-16)
(1.48029e-16 -8.78919e-19 -0 1.4803e-16 -0 1.4803e-16)
(1.4803e-16 -8.79748e-19 -0 1.48029e-16 -0 1.4803e-16)
(1.48029e-16 -8.80215e-19 -0 1.4803e-16 -0 1.4803e-16)
(1.4803e-16 -8.80343e-19 -0 1.4803e-16 -0 1.4803e-16)
(1.48029e-16 -1.04734e-18 -0 1.4803e-16 -0 1.4803e-16)
(1.4803e-16 -1.04919e-18 -0 1.48029e-16 -0 1.4803e-16)
(1.48029e-16 -1.05007e-18 -0 1.4803e-16 -0 1.4803e-16)
(1.4803e-16 -1.05006e-18 -0 1.4803e-16 -0 1.4803e-16)
(1.48029e-16 -1.19027e-18 -0 1.4803e-16 -0 1.4803e-16)
(1.4803e-16 -1.19332e-18 -0 1.48029e-16 -0 1.4803e-16)
(1.48029e-16 -1.19482e-18 -0 1.4803e-16 -0 1.4803e-16)
(1.4803e-16 -1.19494e-18 -0 1.4803e-16 -0 1.4803e-16)
(1.48029e-16 -1.3028e-18 -0 1.48031e-16 -0 1.48029e-16)
(1.48031e-16 -1.30736e-18 -0 1.48029e-16 -0 1.4803e-16)
(1.48029e-16 -1.30919e-18 -0 1.4803e-16 -0 1.4803e-16)
(1.4803e-16 -1.30959e-18 -0 1.4803e-16 -0 1.4803e-16)
(1.48029e-16 -1.38253e-18 -0 1.48031e-16 -0 1.4803e-16)
(1.48031e-16 -1.38806e-18 -0 1.48029e-16 -0 1.4803e-16)
(1.48029e-16 -1.39068e-18 -0 1.48031e-16 -0 1.4803e-16)
(1.4803e-16 -1.39176e-18 -0 1.4803e-16 -0 1.4803e-16)
(1.48029e-16 -1.42927e-18 -0 1.48031e-16 -0 1.48029e-16)
(1.48031e-16 -1.43571e-18 -0 1.48029e-16 -0 1.4803e-16)
(1.48028e-16 -1.43892e-18 -0 1.48031e-16 -0 1.4803e-16)
(1.4803e-16 -1.44031e-18 -0 1.4803e-16 -0 1.48029e-16)
(1.48029e-16 -1.44493e-18 -0 1.4803e-16 -0 1.4803e-16)
(1.48031e-16 -1.44998e-18 -0 1.48029e-16 -0 1.4803e-16)
(1.48028e-16 -1.45427e-18 -0 1.48031e-16 -0 1.4803e-16)
(1.48029e-16 -1.45709e-18 -0 1.4803e-16 -0 1.48029e-16)
(1.48029e-16 -1.43364e-18 -0 1.48031e-16 -0 1.48029e-16)
(1.48031e-16 -1.4342e-18 -0 1.48029e-16 -0 1.4803e-16)
(1.48028e-16 -1.43894e-18 -0 1.48032e-16 -0 1.4803e-16)
(1.48029e-16 -1.44366e-18 -0 1.48031e-16 -0 1.4803e-16)
(1.4803e-16 -1.39921e-18 -0 1.4803e-16 -0 1.48029e-16)
(1.4803e-16 -1.39236e-18 -0 1.48029e-16 -0 1.4803e-16)
(1.48027e-16 -1.39762e-18 -0 1.48032e-16 -0 1.4803e-16)
(1.48028e-16 -1.40531e-18 -0 1.48032e-16 -0 1.4803e-16)
(1.4803e-16 -1.24677e-20 -0 1.4803e-16 -0 1.4803e-16)
(1.4803e-16 -1.24445e-20 -0 1.4803e-16 -0 1.4803e-16)
(1.4803e-16 -1.24808e-20 -0 1.4803e-16 -0 1.4803e-16)
(1.4803e-16 -1.24653e-20 -0 1.4803e-16 -0 1.4803e-16)
(1.4803e-16 -6.47124e-20 -0 1.4803e-16 -0 1.4803e-16)
(1.4803e-16 -6.46299e-20 -0 1.4803e-16 -0 1.4803e-16)
(1.4803e-16 -6.4826e-20 -0 1.4803e-16 -0 1.4803e-16)
(1.4803e-16 -6.474e-20 -0 1.4803e-16 -0 1.4803e-16)
(1.4803e-16 -1.69314e-19 -0 1.4803e-16 -0 1.4803e-16)
(1.4803e-16 -1.69139e-19 -0 1.4803e-16 -0 1.4803e-16)
(1.4803e-16 -1.69586e-19 -0 1.4803e-16 -0 1.4803e-16)
(1.4803e-16 -1.69484e-19 -0 1.4803e-16 -0 1.4803e-16)
(1.4803e-16 -3.19468e-19 -0 1.4803e-16 -0 1.4803e-16)
(1.4803e-16 -3.19144e-19 -0 1.4803e-16 -0 1.4803e-16)
(1.4803e-16 -3.19783e-19 -0 1.4803e-16 -0 1.4803e-16)
(1.4803e-16 -3.19706e-19 -0 1.4803e-16 -0 1.4803e-16)
(1.4803e-16 -5.0016e-19 -0 1.48029e-16 -0 1.4803e-16)
(1.4803e-16 -4.99607e-19 -0 1.4803e-16 -0 1.4803e-16)
(1.4803e-16 -5.00383e-19 -0 1.4803e-16 -0 1.4803e-16)
(1.4803e-16 -5.00414e-19 -0 1.4803e-16 -0 1.4803e-16)
(1.4803e-16 -6.91453e-19 -0 1.48029e-16 -0 1.4803e-16)
(1.4803e-16 -6.9057e-19 -0 1.4803e-16 -0 1.4803e-16)
(1.4803e-16 -6.91558e-19 -0 1.4803e-16 -0 1.4803e-16)
(1.4803e-16 -6.91812e-19 -0 1.4803e-16 -0 1.4803e-16)
(1.48031e-16 -8.78081e-19 -0 1.48029e-16 -0 1.4803e-16)
(1.4803e-16 -8.76801e-19 -0 1.4803e-16 -0 1.4803e-16)
(1.48029e-16 -8.78069e-19 -0 1.4803e-16 -0 1.4803e-16)
(1.48029e-16 -8.78361e-19 -0 1.4803e-16 -0 1.4803e-16)
(1.48031e-16 -1.04853e-18 -0 1.48029e-16 -0 1.4803e-16)
(1.48029e-16 -1.04682e-18 -0 1.4803e-16 -0 1.4803e-16)
(1.48029e-16 -1.04845e-18 -0 1.4803e-16 -0 1.4803e-16)
(1.48029e-16 -1.04828e-18 -0 1.4803e-16 -0 1.4803e-16)
(1.48031e-16 -1.19483e-18 -0 1.48028e-16 -0 1.4803e-16)
(1.48029e-16 -1.19268e-18 -0 1.4803e-16 -0 1.4803e-16)
(1.48029e-16 -1.19476e-18 -0 1.4803e-16 -0 1.4803e-16)
(1.48029e-16 -1.19368e-18 -0 1.4803e-16 -0 1.4803e-16)
(1.48032e-16 -1.31186e-18 -0 1.48028e-16 -0 1.4803e-16)
(1.48029e-16 -1.30932e-18 -0 1.4803e-16 -0 1.4803e-16)
(1.48029e-16 -1.31184e-18 -0 1.4803e-16 -0 1.4803e-16)
(1.48029e-16 -1.30934e-18 -0 1.4803e-16 -0 1.4803e-16)
(1.48032e-16 -1.39736e-18 -0 1.48027e-16 -0 1.4803e-16)
(1.48029e-16 -1.3942e-18 -0 1.4803e-16 -0 1.4803e-16)
(1.48029e-16 -1.39729e-18 -0 1.48031e-16 -0 1.4803e-16)
(1.48029e-16 -1.39374e-18 -0 1.4803e-16 -0 1.4803e-16)
(1.48033e-16 -1.45048e-18 -0 1.48027e-16 -0 1.4803e-16)
(1.48029e-16 -1.447e-18 -0 1.48031e-16 -0 1.4803e-16)
(1.48029e-16 -1.45041e-18 -0 1.48031e-16 -0 1.4803e-16)
(1.4803e-16 -1.44593e-18 -0 1.48029e-16 -0 1.4803e-16)
(1.48033e-16 -1.47275e-18 -0 1.48026e-16 -0 1.4803e-16)
(1.48029e-16 -1.46997e-18 -0 1.48031e-16 -0 1.4803e-16)
(1.48029e-16 -1.4727e-18 -0 1.48031e-16 -0 1.4803e-16)
(1.4803e-16 -1.46749e-18 -0 1.48029e-16 -0 1.4803e-16)
(1.48033e-16 -1.46571e-18 -0 1.48026e-16 -0 1.4803e-16)
(1.48029e-16 -1.46481e-18 -0 1.48031e-16 -0 1.4803e-16)
(1.48028e-16 -1.466e-18 -0 1.48031e-16 -0 1.4803e-16)
(1.48031e-16 -1.46161e-18 -0 1.48029e-16 -0 1.4803e-16)
(1.48033e-16 -1.43466e-18 -0 1.48026e-16 -0 1.4803e-16)
(1.48029e-16 -1.4352e-18 -0 1.48031e-16 -0 1.4803e-16)
(1.48028e-16 -1.43425e-18 -0 1.48031e-16 -0 1.4803e-16)
(1.48031e-16 -1.43301e-18 -0 1.48029e-16 -0 1.48029e-16)
)
;

boundaryField
{
    topWall
    {
        type            kqRWallFunction;
        value           nonuniform List<symmTensor> 0();
    }
    botWall
    {
        type            kqRWallFunction;
        value           uniform (1.4803e-16 -0 -0 1.4803e-16 -0 1.4803e-16);
    }
    inlet
    {
        type            cyclic;
    }
    outlet
    {
        type            cyclic;
    }
    fixWall
    {
        type            empty;
    }
    procBoundary0to1
    {
        type            processor;
        value           nonuniform List<symmTensor> 8((1.48031e-16 -1.33696e-18 -0 1.48029e-16 -0 1.48029e-16) (1.48031e-16 -1.33659e-18 -0 1.48029e-16 -0 1.4803e-16) (1.48026e-16 -1.33923e-18 -0 1.48033e-16 -0 1.4803e-16) (1.48027e-16 -1.34647e-18 -0 1.48032e-16 -0 1.4803e-16) (1.48033e-16 -1.37936e-18 -0 1.48026e-16 -0 1.4803e-16) (1.48029e-16 -1.38135e-18 -0 1.48031e-16 -0 1.4803e-16) (1.48028e-16 -1.38018e-18 -0 1.48031e-16 -0 1.4803e-16) (1.48032e-16 -1.37162e-18 -0 1.48028e-16 -0 1.4803e-16));
    }
}


// ************************************************************************* //
