/*--------------------------------*- C++ -*----------------------------------*\
  =========                 |
  \\      /  F ield         | OpenFOAM: The Open Source CFD Toolbox
   \\    /   O peration     | Website:  https://openfoam.org
    \\  /    A nd           | Version:  dev
     \\/     M anipulation  |

   OpenFOAM for Windows 20.09 (v1)
   Built by CFD Support, www.cfdsupport.com (based on Symscape).
\*---------------------------------------------------------------------------*/
FoamFile
{
    version     2.0;
    format      ascii;
    class       volVectorField;
    location    "6";
    object      U;
}
// * * * * * * * * * * * * * * * * * * * * * * * * * * * * * * * * * * * * * //

dimensions      [0 1 -1 0 0 0 0];

internalField   nonuniform List<vector> 
120
(
(0.00213282 -6.55934e-06 0)
(0.00212521 -2.0973e-07 0)
(0.00213561 3.65521e-08 0)
(0.00215023 -7.20928e-08 0)
(0.00599897 1.42634e-06 0)
(0.00598185 -9.62637e-08 0)
(0.00597531 -1.24647e-07 0)
(0.00601247 -3.1677e-07 0)
(0.00945002 -3.22638e-06 0)
(0.00942386 3.96565e-07 0)
(0.00940801 -3.14631e-07 0)
(0.00946068 -6.4623e-07 0)
(0.0125165 -1.04177e-06 0)
(0.0124857 1.06992e-06 0)
(0.0124642 -5.90506e-07 0)
(0.0125254 -9.69709e-07 0)
(0.0152274 -1.697e-07 0)
(0.0151961 1.78834e-06 0)
(0.0151715 -8.06438e-07 0)
(0.0152364 -1.21321e-06 0)
(0.0176136 -2.52902e-06 0)
(0.0175826 2.46304e-06 0)
(0.0175571 -1.11367e-06 0)
(0.0176237 -1.39804e-06 0)
(0.019703 -1.25345e-06 0)
(0.0196735 3.18274e-06 0)
(0.0196487 -1.31882e-06 0)
(0.0197156 -1.51273e-06 0)
(0.0215237 -3.84551e-06 0)
(0.0214965 3.79628e-06 0)
(0.0214731 -1.65599e-06 0)
(0.0215402 -1.59901e-06 0)
(0.0231017 -2.47315e-06 0)
(0.0230783 4.4376e-06 0)
(0.0230564 -1.85976e-06 0)
(0.0231231 -1.65575e-06 0)
(0.0244624 -4.84253e-06 0)
(0.0244428 4.94237e-06 0)
(0.0244232 -2.2436e-06 0)
(0.0244903 -1.71155e-06 0)
(0.0256293 -3.84161e-06 0)
(0.0256149 5.42569e-06 0)
(0.0255966 -2.44762e-06 0)
(0.0256639 -1.80302e-06 0)
(0.026625 -5.63133e-06 0)
(0.0266142 5.90438e-06 0)
(0.0265987 -2.91083e-06 0)
(0.0266673 -1.90794e-06 0)
(0.0274697 -4.97612e-06 0)
(0.0274636 6.29532e-06 0)
(0.0274496 -3.13089e-06 0)
(0.0275184 -2.27505e-06 0)
(0.0281831 -6.14641e-06 0)
(0.0281778 6.66898e-06 0)
(0.0281672 -3.64427e-06 0)
(0.0282385 -2.4243e-06 0)
(0.0287833 -5.75655e-06 0)
(0.0287778 6.85174e-06 0)
(0.0287683 -3.95601e-06 0)
(0.0288411 -2.73608e-06 0)
(0.00214369 5.79264e-08 0)
(0.00213891 -2.73038e-08 0)
(0.0021447 3.17811e-08 0)
(0.00214313 -6.12492e-08 0)
(0.00599269 3.55353e-07 0)
(0.00598234 -1.47439e-07 0)
(0.00600022 2.61765e-08 0)
(0.00599178 1.47747e-07 0)
(0.00942666 7.90581e-07 0)
(0.0094126 -3.32801e-07 0)
(0.00944045 -5.18699e-08 0)
(0.00942919 3.05756e-07 0)
(0.0124773 1.45031e-06 0)
(0.0124602 -5.95526e-07 0)
(0.0124952 -1.63135e-07 0)
(0.0124829 3.7691e-07 0)
(0.0151766 2.15986e-06 0)
(0.0151567 -8.36694e-07 0)
(0.015196 -3.40448e-07 0)
(0.0151834 3.74531e-07 0)
(0.0175548 3.0753e-06 0)
(0.0175322 -1.14098e-06 0)
(0.017575 -5.13579e-07 0)
(0.017563 2.31647e-07 0)
(0.0196405 3.95941e-06 0)
(0.0196149 -1.37623e-06 0)
(0.0196605 -7.61852e-07 0)
(0.0196496 1.09903e-07 0)
(0.0214613 5.04189e-06 0)
(0.021433 -1.68946e-06 0)
(0.0214813 -9.94903e-07 0)
(0.0214707 -1.20864e-07 0)
(0.0230432 6.02101e-06 0)
(0.0230121 -1.91268e-06 0)
(0.0230628 -1.27537e-06 0)
(0.0230515 -2.66583e-07 0)
(0.0244114 7.17013e-06 0)
(0.0243778 -2.2285e-06 0)
(0.0244311 -1.56462e-06 0)
(0.0244179 -4.49368e-07 0)
(0.0255886 8.18703e-06 0)
(0.0255526 -2.45815e-06 0)
(0.0256081 -1.77965e-06 0)
(0.0255919 -5.17411e-07 0)
(0.0265975 9.28424e-06 0)
(0.0265589 -2.7433e-06 0)
(0.0266169 -2.15712e-06 0)
(0.0265981 -4.86724e-07 0)
(0.0274566 1.02937e-05 0)
(0.0274161 -3.04987e-06 0)
(0.0274757 -2.19123e-06 0)
(0.0274539 -1.93922e-07 0)
(0.0281859 1.128e-05 0)
(0.0281444 -3.23687e-06 0)
(0.028205 -2.55357e-06 0)
(0.0281807 2.36303e-07 0)
(0.0287998 1.21404e-05 0)
(0.0287586 -3.53054e-06 0)
(0.028819 -2.85762e-06 0)
(0.0287932 2.40651e-07 0)
)
;

boundaryField
{
    topWall
    {
        type            noSlip;
    }
    botWall
    {
        type            noSlip;
    }
    inlet
    {
        type            cyclic;
    }
    outlet
    {
        type            cyclic;
    }
    fixWall
    {
        type            empty;
    }
    procBoundary0to1
    {
        type            processor;
        value           nonuniform List<vector> 8((0.0292861 -6.28909e-06 0) (0.0292754 6.98289e-06 0) (0.0292691 -4.5015e-06 0) (0.0293462 -3.21693e-06 0) (0.029317 1.28538e-05 0) (0.029276 -3.75488e-06 0) (0.0293355 -3.00145e-06 0) (0.0293104 5.41421e-07 0));
    }
}


// ************************************************************************* //
