/*--------------------------------*- C++ -*----------------------------------*\
  =========                 |
  \\      /  F ield         | OpenFOAM: The Open Source CFD Toolbox
   \\    /   O peration     | Website:  https://openfoam.org
    \\  /    A nd           | Version:  dev
     \\/     M anipulation  |

   OpenFOAM for Windows 20.09 (v1)
   Built by CFD Support, www.cfdsupport.com (based on Symscape).
\*---------------------------------------------------------------------------*/
FoamFile
{
    version     2.0;
    format      ascii;
    class       volVectorField;
    location    "6";
    object      UMean;
}
// * * * * * * * * * * * * * * * * * * * * * * * * * * * * * * * * * * * * * //

dimensions      [0 1 -1 0 0 0 0];

internalField   nonuniform List<vector> 
120
(
(0.00182968 4.19556e-06 0)
(0.00182462 -9.90047e-08 0)
(0.0018375 2.65188e-09 0)
(0.00183589 -8.0652e-09 0)
(0.00506672 -4.07324e-07 0)
(0.00506619 -4.9442e-07 0)
(0.00508222 -6.18788e-08 0)
(0.00507376 1.33395e-07 0)
(0.00789873 3.52381e-06 0)
(0.00790206 -6.99153e-07 0)
(0.00792183 -6.85623e-08 0)
(0.00790616 4.22887e-07 0)
(0.0103619 4.73616e-07 0)
(0.0103681 -1.09392e-06 0)
(0.0103916 -8.89045e-08 0)
(0.0103694 8.54014e-07 0)
(0.0124918 2.39109e-06 0)
(0.0125011 -1.38807e-06 0)
(0.012527 -2.1631e-08 0)
(0.012499 1.40763e-06 0)
(0.0143224 1.02146e-06 0)
(0.0143348 -1.90928e-06 0)
(0.014362 -2.74578e-08 0)
(0.0143297 2.03855e-06 0)
(0.0158859 2.94659e-06 0)
(0.0159014 -2.2287e-06 0)
(0.0159296 1.36195e-07 0)
(0.015894 2.72605e-06 0)
(0.017213 1.66823e-06 0)
(0.0172314 -2.85439e-06 0)
(0.0172603 1.11206e-07 0)
(0.0172229 3.46491e-06 0)
(0.0183321 3.18057e-06 0)
(0.0183535 -3.17634e-06 0)
(0.0183831 3.52831e-07 0)
(0.0183446 4.19034e-06 0)
(0.0192699 2.2546e-06 0)
(0.0192939 -3.89112e-06 0)
(0.0193242 2.72427e-07 0)
(0.0192862 4.96874e-06 0)
(0.02005 3.33814e-06 0)
(0.0200776 -4.23578e-06 0)
(0.0201081 5.64754e-07 0)
(0.020071 5.66449e-06 0)
(0.0206952 2.78388e-06 0)
(0.0207253 -5.00095e-06 0)
(0.0207561 3.7786e-07 0)
(0.0207219 6.40113e-06 0)
(0.021224 3.50853e-06 0)
(0.0212588 -5.39262e-06 0)
(0.0212889 6.64671e-07 0)
(0.0212574 6.96385e-06 0)
(0.0216542 3.25699e-06 0)
(0.0216924 -6.08498e-06 0)
(0.0217225 4.86987e-07 0)
(0.021696 7.61036e-06 0)
(0.0220004 3.79364e-06 0)
(0.0220451 -6.82502e-06 0)
(0.0220741 5.36076e-07 0)
(0.0220515 8.04478e-06 0)
(0.00182761 3.23289e-08 0)
(0.0018242 -5.02145e-09 0)
(0.00183348 -5.67009e-08 0)
(0.00184382 -3.87531e-08 0)
(0.00505153 2.69645e-07 0)
(0.00504498 -7.32234e-08 0)
(0.00506748 -3.31681e-07 0)
(0.00508349 -2.35181e-07 0)
(0.00787268 5.78843e-07 0)
(0.00786468 -2.21484e-07 0)
(0.00789654 -7.89077e-07 0)
(0.00791738 -2.40575e-07 0)
(0.0103273 1.08163e-06 0)
(0.0103183 -4.27809e-07 0)
(0.0103576 -1.3189e-06 0)
(0.0103832 -3.89964e-07 0)
(0.012451 1.52161e-06 0)
(0.012441 -6.79547e-07 0)
(0.0124854 -2.00921e-06 0)
(0.0125146 -4.23436e-07 0)
(0.0142777 2.17952e-06 0)
(0.0142662 -9.65308e-07 0)
(0.0143147 -2.6642e-06 0)
(0.0143466 -6.28524e-07 0)
(0.0158394 2.66818e-06 0)
(0.0158263 -1.25256e-06 0)
(0.0158776 -3.48466e-06 0)
(0.0159112 -6.54318e-07 0)
(0.0171668 3.43438e-06 0)
(0.0171522 -1.56723e-06 0)
(0.0172055 -4.19967e-06 0)
(0.0172396 -8.76571e-07 0)
(0.0182882 3.93906e-06 0)
(0.0182722 -1.84475e-06 0)
(0.0183265 -5.07501e-06 0)
(0.01836 -8.61987e-07 0)
(0.0192304 4.75457e-06 0)
(0.0192133 -2.17167e-06 0)
(0.0192683 -5.80385e-06 0)
(0.0192997 -1.05099e-06 0)
(0.0200172 5.26607e-06 0)
(0.0199991 -2.43516e-06 0)
(0.0200541 -6.63043e-06 0)
(0.020082 -9.54425e-07 0)
(0.020671 6.05024e-06 0)
(0.0206523 -2.73647e-06 0)
(0.0207074 -7.36517e-06 0)
(0.0207304 -1.02345e-06 0)
(0.0212111 6.53633e-06 0)
(0.0211914 -3.02754e-06 0)
(0.0212463 -7.97775e-06 0)
(0.0212629 -8.00873e-07 0)
(0.0216555 7.23037e-06 0)
(0.0216357 -3.29596e-06 0)
(0.0216913 -8.72781e-06 0)
(0.0216995 -4.92683e-07 0)
(0.0220186 7.67397e-06 0)
(0.0219986 -3.56462e-06 0)
(0.0220548 -9.17408e-06 0)
(0.0220529 -3.73218e-07 0)
)
;

boundaryField
{
    topWall
    {
        type            calculated;
        value           nonuniform List<vector> 0();
    }
    botWall
    {
        type            calculated;
        value           uniform (0 0 0);
    }
    inlet
    {
        type            cyclic;
    }
    outlet
    {
        type            cyclic;
    }
    fixWall
    {
        type            empty;
    }
    procBoundary0to1
    {
        type            processor;
        value           nonuniform List<vector> 8((0.022277 3.61067e-06 0) (0.0223256 -7.45605e-06 0) (0.0223538 5.37425e-07 0) (0.0223387 8.35151e-06 0) (0.0223186 8.11284e-06 0) (0.0222975 -3.80631e-06 0) (0.022353 -9.74491e-06 0) (0.0223406 3.37281e-07 0));
    }
}


// ************************************************************************* //
