/*--------------------------------*- C++ -*----------------------------------*\
  =========                 |
  \\      /  F ield         | OpenFOAM: The Open Source CFD Toolbox
   \\    /   O peration     | Website:  https://openfoam.org
    \\  /    A nd           | Version:  dev
     \\/     M anipulation  |

   OpenFOAM for Windows 20.09 (v1)
   Built by CFD Support, www.cfdsupport.com (based on Symscape).
\*---------------------------------------------------------------------------*/
FoamFile
{
    version     2.0;
    format      ascii;
    class       volSymmTensorField;
    location    "6";
    object      UPrime2Mean;
}
// * * * * * * * * * * * * * * * * * * * * * * * * * * * * * * * * * * * * * //

dimensions      [0 2 -2 0 0 0 0];

internalField   nonuniform List<symmTensor> 
120
(
(4.66069e-08 -4.92841e-10 0 5.68294e-11 0 0)
(4.36913e-08 -1.27758e-11 0 4.25288e-15 0 0)
(4.41355e-08 2.66054e-12 0 3.99268e-16 0 0)
(4.72931e-08 -4.84879e-12 0 1.52219e-15 0 0)
(4.27594e-07 3.60536e-10 0 1.35597e-12 0 0)
(4.04989e-07 6.72394e-11 0 7.14104e-14 0 0)
(3.96348e-07 -3.70196e-11 0 3.85867e-15 0 0)
(4.21941e-07 -1.07943e-10 0 7.22846e-14 0 0)
(1.17384e-06 -1.29991e-09 0 2.61292e-11 0 0)
(1.11876e-06 4.35274e-10 0 4.21545e-13 0 0)
(1.09375e-06 -1.57721e-10 0 2.36985e-14 0 0)
(1.1567e-06 -4.09783e-10 0 4.1755e-13 0 0)
(2.25208e-06 -1.47651e-10 0 1.87087e-12 0 0)
(2.1609e-06 1.29086e-09 0 1.57855e-12 0 0)
(2.11642e-06 -4.40048e-10 0 9.62689e-14 0 0)
(2.22243e-06 -9.81509e-10 0 1.20525e-12 0 0)
(3.61533e-06 -7.95912e-11 0 6.21815e-12 0 0)
(3.4917e-06 2.49533e-09 0 3.35356e-12 0 0)
(3.42854e-06 -8.03979e-10 0 2.14705e-13 0 0)
(3.57655e-06 -1.74067e-09 0 2.54033e-12 0 0)
(5.21308e-06 -8.41927e-10 0 9.26937e-12 0 0)
(5.06003e-06 4.19562e-09 0 6.32413e-12 0 0)
(4.98114e-06 -1.39749e-09 0 4.27178e-13 0 0)
(5.16871e-06 -2.76217e-09 0 4.35352e-12 0 0)
(6.98662e-06 -8.52881e-10 0 1.41833e-11 0 0)
(6.80969e-06 6.08685e-09 0 9.65895e-12 0 0)
(6.71893e-06 -1.99976e-09 0 7.14316e-13 0 0)
(6.94162e-06 -3.83446e-09 0 6.77643e-12 0 0)
(8.87859e-06 -1.99664e-09 0 2.146e-11 0 0)
(8.68266e-06 8.45047e-09 0 1.45956e-11 0 0)
(8.58327e-06 -2.90633e-09 0 1.09925e-12 0 0)
(8.83814e-06 -5.21139e-09 0 9.63173e-12 0 0)
(1.083e-05 -1.77307e-09 0 2.46378e-11 0 0)
(1.06226e-05 1.07454e-08 0 1.91163e-11 0 0)
(1.05161e-05 -3.69974e-09 0 1.62508e-12 0 0)
(1.07987e-05 -6.47607e-09 0 1.31243e-11 0 0)
(1.27876e-05 -3.33137e-09 0 3.49801e-11 0 0)
(1.25735e-05 1.35023e-08 0 2.57868e-11 0 0)
(1.24633e-05 -4.90099e-09 0 2.19099e-12 0 0)
(1.2772e-05 -8.14934e-09 0 1.70159e-11 0 0)
(1.47048e-05 -2.95422e-09 0 3.88781e-11 0 0)
(1.44913e-05 1.58894e-08 0 3.0848e-11 0 0)
(1.43755e-05 -5.81614e-09 0 2.99266e-12 0 0)
(1.47051e-05 -9.60237e-09 0 2.1616e-11 0 0)
(1.65403e-05 -4.58214e-09 0 4.95539e-11 0 0)
(1.63304e-05 1.88641e-08 0 3.94681e-11 0 0)
(1.62149e-05 -7.26148e-09 0 3.71747e-12 0 0)
(1.65625e-05 -1.14892e-08 0 2.65692e-11 0 0)
(1.82669e-05 -4.07764e-09 0 5.43774e-11 0 0)
(1.80657e-05 2.13011e-08 0 4.53483e-11 0 0)
(1.79441e-05 -8.26618e-09 0 4.76237e-12 0 0)
(1.83032e-05 -1.34475e-08 0 3.2918e-11 0 0)
(1.9859e-05 -5.34378e-09 0 6.4355e-11 0 0)
(1.96638e-05 2.40557e-08 0 5.42285e-11 0 0)
(1.95428e-05 -9.74484e-09 0 5.74516e-12 0 0)
(1.99145e-05 -1.53788e-08 0 3.86714e-11 0 0)
(2.13152e-05 -4.91955e-09 0 7.06337e-11 0 0)
(2.11189e-05 2.66338e-08 0 6.25251e-11 0 0)
(2.09831e-05 -1.08459e-08 0 6.73877e-12 0 0)
(2.13677e-05 -1.73366e-08 0 4.43313e-11 0 0)
(4.68446e-08 2.53156e-12 0 2.13708e-16 0 0)
(4.75698e-08 -7.63192e-12 0 2.02525e-15 0 0)
(4.67296e-08 1.36286e-11 0 3.97998e-15 0 0)
(4.5862e-08 -1.0651e-11 0 4.44286e-15 0 0)
(4.17458e-07 3.41805e-11 0 2.87701e-15 0 0)
(4.20906e-07 -7.38846e-11 0 2.12248e-14 0 0)
(4.17164e-07 1.35446e-10 0 4.7033e-14 0 0)
(4.10906e-07 -5.54788e-11 0 2.46803e-13 0 0)
(1.14245e-06 1.44796e-10 0 1.8579e-14 0 0)
(1.14645e-06 -2.20752e-10 0 7.78793e-14 0 0)
(1.14081e-06 4.32252e-10 0 1.87272e-13 0 0)
(1.12895e-06 -2.35277e-10 0 7.54831e-13 0 0)
(2.19204e-06 3.64983e-10 0 6.08897e-14 0 0)
(2.19266e-06 -4.62996e-10 0 1.8011e-13 0 0)
(2.18643e-06 8.57462e-10 0 4.38489e-13 0 0)
(2.17108e-06 -5.4191e-10 0 1.73012e-12 0 0)
(3.52608e-06 8.14381e-10 0 1.88168e-13 0 0)
(3.52029e-06 -7.03361e-10 0 2.92027e-13 0 0)
(3.51378e-06 1.45741e-09 0 9.05538e-13 0 0)
(3.4956e-06 -1.15507e-09 0 3.09959e-12 0 0)
(5.0965e-06 1.35076e-09 0 3.58767e-13 0 0)
(5.08213e-06 -1.05089e-09 0 4.72865e-13 0 0)
(5.07709e-06 2.10029e-09 0 1.52356e-12 0 0)
(5.05774e-06 -1.89529e-09 0 4.85099e-12 0 0)
(6.84853e-06 2.32353e-09 0 7.88315e-13 0 0)
(6.82436e-06 -1.31009e-09 0 6.26147e-13 0 0)
(6.82234e-06 2.9225e-09 0 2.49407e-12 0 0)
(6.80187e-06 -2.99712e-09 0 7.0154e-12 0 0)
(8.72643e-06 3.13648e-09 0 1.13157e-12 0 0)
(8.69182e-06 -1.72371e-09 0 8.87669e-13 0 0)
(8.6951e-06 3.68075e-09 0 3.55711e-12 0 0)
(8.67216e-06 -4.09226e-09 0 9.42027e-12 0 0)
(1.06729e-05 4.70688e-09 0 2.07603e-12 0 0)
(1.06281e-05 -1.99679e-09 0 1.07856e-12 0 0)
(1.06395e-05 4.68783e-09 0 5.09812e-12 0 0)
(1.06105e-05 -5.5369e-09 0 1.21385e-11 0 0)
(1.26373e-05 5.63982e-09 0 2.52818e-12 0 0)
(1.25817e-05 -2.47744e-09 0 1.45213e-12 0 0)
(1.26038e-05 5.46192e-09 0 6.5373e-12 0 0)
(1.25663e-05 -6.77586e-09 0 1.50528e-11 0 0)
(1.45694e-05 7.6853e-09 0 4.05432e-12 0 0)
(1.45052e-05 -2.8358e-09 0 1.74376e-12 0 0)
(1.45423e-05 6.68225e-09 0 8.60572e-12 0 0)
(1.4492e-05 -8.22113e-09 0 1.76042e-11 0 0)
(1.64319e-05 8.67349e-09 0 4.59016e-12 0 0)
(1.63583e-05 -3.32468e-09 0 2.18648e-12 0 0)
(1.64145e-05 7.35706e-09 0 1.02051e-11 0 0)
(1.63517e-05 -9.35933e-09 0 2.0996e-11 0 0)
(1.81901e-05 1.09057e-08 0 6.53859e-12 0 0)
(1.81094e-05 -3.88174e-09 0 2.6704e-12 0 0)
(1.81895e-05 8.73171e-09 0 1.24878e-11 0 0)
(1.81134e-05 -1.00848e-08 0 2.27375e-11 0 0)
(1.98254e-05 1.17931e-08 0 7.04458e-12 0 0)
(1.97364e-05 -4.55523e-09 0 3.67425e-12 0 0)
(1.98411e-05 9.52242e-09 0 1.44812e-11 0 0)
(1.97542e-05 -1.06648e-08 0 2.4587e-11 0 0)
(2.1321e-05 1.3517e-08 0 8.59994e-12 0 0)
(2.12197e-05 -5.05074e-09 0 4.12956e-12 0 0)
(2.13512e-05 1.00652e-08 0 1.52315e-11 0 0)
(2.12645e-05 -1.15373e-08 0 2.56793e-11 0 0)
)
;

boundaryField
{
    topWall
    {
        type            calculated;
        value           nonuniform List<symmTensor> 0();
    }
    botWall
    {
        type            calculated;
        value           uniform (0 0 0 0 0 0);
    }
    inlet
    {
        type            cyclic;
    }
    outlet
    {
        type            cyclic;
    }
    fixWall
    {
        type            empty;
    }
    procBoundary0to1
    {
        type            processor;
        value           nonuniform List<symmTensor> 8((2.26216e-05 -5.31775e-09 0 7.65687e-11 0 0) (2.24264e-05 2.85752e-08 0 7.02209e-11 0 0) (2.22851e-05 -1.22374e-08 0 8.3775e-12 0 0) (2.26772e-05 -1.97302e-08 0 5.00499e-11 0 0) (2.26674e-05 1.4452e-08 0 9.29915e-12 0 0) (2.25544e-05 -5.91597e-09 0 5.41543e-12 0 0) (2.27225e-05 1.08758e-08 0 1.76444e-11 0 0) (2.26386e-05 -1.2012e-08 0 2.27478e-11 0 0));
    }
}


// ************************************************************************* //
