/*--------------------------------*- C++ -*----------------------------------*\
  =========                 |
  \\      /  F ield         | OpenFOAM: The Open Source CFD Toolbox
   \\    /   O peration     | Website:  https://openfoam.org
    \\  /    A nd           | Version:  dev
     \\/     M anipulation  |

   OpenFOAM for Windows 20.09 (v1)
   Built by CFD Support, www.cfdsupport.com (based on Symscape).
\*---------------------------------------------------------------------------*/
FoamFile
{
    version     2.0;
    format      ascii;
    class       surfaceScalarField;
    location    "10";
    object      alphaPhi0.water;
}
// * * * * * * * * * * * * * * * * * * * * * * * * * * * * * * * * * * * * * //

dimensions      [0 3 -1 0 0 0 0];

internalField   nonuniform List<scalar> 
217
(
4.57493e-08
-7.08152e-10
4.57366e-08
2.18289e-10
4.57121e-08
1.24471e-09
1.55026e-09
4.57125e-08
4.5956e-08
-7.06937e-10
4.59426e-08
2.31744e-10
4.59253e-08
1.26193e-09
1.53921e-09
4.59364e-08
4.61708e-08
-7.0104e-10
4.61571e-08
2.45388e-10
4.61465e-08
1.27252e-09
1.51945e-09
4.61663e-08
4.63979e-08
-6.91959e-10
4.63853e-08
2.58014e-10
4.63807e-08
1.27708e-09
1.49273e-09
4.64074e-08
4.66436e-08
-6.81149e-10
4.66321e-08
2.69511e-10
4.66327e-08
1.27642e-09
1.46037e-09
4.66651e-08
4.69129e-08
-6.69637e-10
4.69033e-08
2.79111e-10
4.69084e-08
1.27127e-09
1.42401e-09
4.69448e-08
4.7212e-08
-6.58358e-10
4.72043e-08
2.8673e-10
4.72136e-08
1.26205e-09
1.38485e-09
4.72527e-08
4.75469e-08
-6.47736e-10
4.75418e-08
2.91778e-10
4.75546e-08
1.2493e-09
1.34416e-09
4.75953e-08
4.79242e-08
-6.38054e-10
4.79218e-08
2.94156e-10
4.7938e-08
1.23309e-09
1.30286e-09
4.79793e-08
4.83508e-08
-6.29547e-10
4.83517e-08
2.93282e-10
4.83709e-08
1.21385e-09
1.26201e-09
4.84118e-08
4.88339e-08
-6.22001e-10
4.8838e-08
2.89222e-10
4.88606e-08
1.19123e-09
1.22206e-09
4.89005e-08
4.93816e-08
-6.15245e-10
4.93891e-08
2.81693e-10
4.94146e-08
1.16571e-09
1.18363e-09
4.94531e-08
5.00022e-08
-6.08816e-10
5.00129e-08
2.70944e-10
5.00417e-08
1.13694e-09
1.1468e-09
5.00785e-08
5.0705e-08
-6.02514e-10
5.0719e-08
2.56876e-10
5.075e-08
1.10589e-09
1.11211e-09
5.07847e-08
5.14991e-08
5.15162e-08
5.15507e-08
5.15822e-08
4.57154e-08
1.1063e-09
4.5726e-08
-1.63932e-09
4.57509e-08
-1.24406e-09
-5.3996e-10
4.5942e-08
1.10059e-09
4.59467e-08
-1.64408e-09
4.59649e-08
-1.2622e-09
-5.3225e-10
4.61735e-08
1.0934e-09
4.61716e-08
-1.64217e-09
4.6186e-08
-1.2766e-09
-5.22955e-10
4.64151e-08
1.0857e-09
4.6407e-08
-1.63406e-09
4.6418e-08
-1.28752e-09
-5.1204e-10
4.66724e-08
1.07841e-09
4.66584e-08
-1.62014e-09
4.66661e-08
-1.29517e-09
-5.00365e-10
4.69515e-08
1.07168e-09
4.69323e-08
-1.60095e-09
4.69367e-08
-1.29951e-09
-4.8811e-10
4.72586e-08
1.06583e-09
4.72345e-08
-1.5769e-09
4.72354e-08
-1.30045e-09
-4.75945e-10
4.76002e-08
1.06086e-09
4.75721e-08
-1.5488e-09
4.75696e-08
-1.2979e-09
-4.63855e-10
4.7983e-08
1.05712e-09
4.79513e-08
-1.51709e-09
4.79455e-08
-1.29212e-09
-4.52171e-10
4.84143e-08
1.05453e-09
4.83799e-08
-1.48263e-09
4.83709e-08
-1.28319e-09
-4.40513e-10
4.89018e-08
1.05322e-09
4.8865e-08
-1.44583e-09
4.8853e-08
-1.27115e-09
-4.28982e-10
4.94536e-08
1.05264e-09
4.94156e-08
-1.40783e-09
4.94004e-08
-1.25594e-09
-4.16905e-10
5.00785e-08
1.05262e-09
5.00395e-08
-1.36889e-09
5.00213e-08
-1.23766e-09
-4.04188e-10
5.07854e-08
1.05202e-09
5.07468e-08
-1.33025e-09
5.07257e-08
-1.21654e-09
-3.89775e-10
5.15834e-08
5.15462e-08
5.1522e-08
)
;

boundaryField
{
    topWall
    {
        type            calculated;
        value           nonuniform List<scalar> 0();
    }
    botWall
    {
        type            calculated;
        value           nonuniform List<scalar> 0();
    }
    inlet
    {
        type            cyclic;
        value           nonuniform List<scalar> 
15
(
-5.15061e-08
-5.07113e-08
-5.00086e-08
-4.93883e-08
-4.88414e-08
-4.83593e-08
-4.79338e-08
-4.75575e-08
-4.72233e-08
-4.69244e-08
-4.66544e-08
-4.6407e-08
-4.61767e-08
-4.59572e-08
-4.57425e-08
)
;
    }
    outlet
    {
        type            cyclic;
        value           nonuniform List<scalar> 
15
(
5.15061e-08
5.07113e-08
5.00086e-08
4.93883e-08
4.88414e-08
4.83593e-08
4.79338e-08
4.75575e-08
4.72233e-08
4.69244e-08
4.66544e-08
4.6407e-08
4.61767e-08
4.59572e-08
4.57425e-08
)
;
    }
    fixWall
    {
        type            empty;
        value           nonuniform List<scalar> 0();
    }
    procBoundary2to1
    {
        type            processor;
        value           nonuniform List<scalar> 8(7.00706e-10 -2.06162e-10 -1.22114e-09 -1.55162e-09 -1.10808e-09 1.62713e-09 1.21817e-09 5.48936e-10);
    }
    procBoundary2to3
    {
        type            processor;
        value           nonuniform List<scalar> 8(-5.9515e-10 2.41145e-10 1.07015e-09 1.08053e-09 1.05068e-09 -1.29116e-09 -1.19359e-09 -3.72274e-10);
    }
}


// ************************************************************************* //
