/*--------------------------------*- C++ -*----------------------------------*\
  =========                 |
  \\      /  F ield         | OpenFOAM: The Open Source CFD Toolbox
   \\    /   O peration     | Website:  https://openfoam.org
    \\  /    A nd           | Version:  dev
     \\/     M anipulation  |

   OpenFOAM for Windows 20.09 (v1)
   Built by CFD Support, www.cfdsupport.com (based on Symscape).
\*---------------------------------------------------------------------------*/
FoamFile
{
    version     2.0;
    format      ascii;
    class       volSymmTensorField;
    location    "10";
    object      devReff;
}
// * * * * * * * * * * * * * * * * * * * * * * * * * * * * * * * * * * * * * //

dimensions      [0 2 -2 0 0 0 0];

internalField   nonuniform List<symmTensor> 
120
(
(-5.49707e-08 -5.95528e-05 -0 7.97757e-08 -0 -2.4805e-08)
(1.15945e-07 -5.67843e-05 -0 -1.18424e-07 -0 2.47917e-09)
(2.26877e-07 -5.86187e-05 -0 -2.33141e-07 -0 6.26372e-09)
(-6.10246e-08 -6.1234e-05 -0 7.08057e-08 -0 -9.78103e-09)
(3.13062e-08 -6.04259e-05 -0 -2.9201e-08 -0 -2.10512e-09)
(1.51348e-07 -5.84875e-05 -0 -1.75869e-07 -0 2.45209e-08)
(1.3908e-07 -5.99943e-05 -0 -1.26856e-07 -0 -1.2224e-08)
(-1.40464e-07 -6.23874e-05 -0 1.36793e-07 -0 3.67141e-09)
(7.19035e-08 -6.28455e-05 -0 -6.31223e-08 -0 -8.78121e-09)
(1.44572e-07 -6.15909e-05 -0 -1.60945e-07 -0 1.63737e-08)
(7.26727e-08 -6.28788e-05 -0 -5.70302e-08 -0 -1.56425e-08)
(-2.21569e-07 -6.50474e-05 -0 2.19085e-07 -0 2.48372e-09)
(9.80169e-08 -6.68723e-05 -0 -8.48026e-08 -0 -1.32143e-08)
(1.38922e-07 -6.61066e-05 -0 -1.51852e-07 -0 1.29291e-08)
(2.68028e-08 -6.7275e-05 -0 -1.98029e-08 -0 -6.99991e-09)
(-2.87096e-07 -6.91408e-05 -0 2.84637e-07 -0 2.4586e-09)
(1.26316e-07 -7.24586e-05 -0 -1.21856e-07 -0 -4.46051e-09)
(1.37529e-07 -7.20509e-05 -0 -1.6006e-07 -0 2.25304e-08)
(-3.07844e-08 -7.31826e-05 -0 4.64209e-08 -0 -1.56365e-08)
(-3.39405e-07 -7.47518e-05 -0 3.37403e-07 -0 2.00249e-09)
(1.27239e-07 -7.97139e-05 -0 -1.15082e-07 -0 -1.21571e-08)
(1.16058e-07 -7.95602e-05 -0 -1.30111e-07 -0 1.40536e-08)
(-7.18818e-08 -8.06875e-05 -0 8.52374e-08 -0 -1.33556e-08)
(-3.77828e-07 -8.19275e-05 -0 3.75004e-07 -0 2.82379e-09)
(1.29966e-07 -8.8656e-05 -0 -1.19605e-07 -0 -1.03607e-08)
(9.88346e-08 -8.86702e-05 -0 -1.15055e-07 -0 1.62201e-08)
(-1.08539e-07 -8.98534e-05 -0 1.20747e-07 -0 -1.22083e-08)
(-4.04808e-07 -9.07941e-05 -0 4.02489e-07 -0 2.31867e-09)
(1.26474e-07 -9.93808e-05 -0 -1.16399e-07 -0 -1.00752e-08)
(8.00994e-08 -9.95201e-05 -0 -9.81106e-08 -0 1.80112e-08)
(-1.4443e-07 -0.000100769 -0 1.57301e-07 -0 -1.28706e-08)
(-4.21888e-07 -0.000101433 -0 4.19979e-07 -0 1.90899e-09)
(1.19922e-07 -0.00011196 -0 -1.10584e-07 -0 -9.33823e-09)
(5.35878e-08 -0.000112192 -0 -7.09093e-08 -0 1.73215e-08)
(-1.74584e-07 -0.000113548 -0 1.86887e-07 -0 -1.23028e-08)
(-4.2727e-07 -0.00011397 -0 4.24734e-07 -0 2.5368e-09)
(1.11729e-07 -0.000126522 -0 -1.02543e-07 -0 -9.18525e-09)
(2.94171e-08 -0.000126779 -0 -4.98184e-08 -0 2.04013e-08)
(-2.03494e-07 -0.000128239 -0 2.14012e-07 -0 -1.05185e-08)
(-4.27891e-07 -0.000128473 -0 4.27304e-07 -0 5.86902e-10)
(1.01429e-07 -0.000143189 -0 -8.93497e-08 -0 -1.20796e-08)
(-6.55292e-09 -0.000143388 -0 -8.05533e-09 -0 1.46083e-08)
(-2.36501e-07 -0.000144961 -0 2.52176e-07 -0 -1.56746e-08)
(-4.1687e-07 -0.000145082 -0 4.13691e-07 -0 3.1791e-09)
(1.00687e-07 -0.000162098 -0 -9.10122e-08 -0 -9.67445e-09)
(-3.58843e-08 -0.000162264 -0 2.14665e-08 -0 1.44179e-08)
(-2.62372e-07 -0.000163916 -0 2.73289e-07 -0 -1.09168e-08)
(-4.07798e-07 -0.000163857 -0 4.06377e-07 -0 1.42074e-09)
(9.91532e-08 -0.000183388 -0 -8.99864e-08 -0 -9.16679e-09)
(-6.30766e-08 -0.000183575 -0 4.41181e-08 -0 1.89586e-08)
(-2.89856e-07 -0.0001853 -0 3.03893e-07 -0 -1.4037e-08)
(-3.91465e-07 -0.000184977 -0 3.91634e-07 -0 -1.69659e-10)
(9.17012e-08 -0.000207122 -0 -7.59989e-08 -0 -1.57024e-08)
(-1.02529e-07 -0.000207465 -0 9.07182e-08 -0 1.18106e-08)
(-3.14948e-07 -0.000209328 -0 3.2991e-07 -0 -1.49617e-08)
(-3.65077e-07 -0.000208562 -0 3.5909e-07 -0 5.9867e-09)
(1.03713e-07 -0.000233654 -0 -1.00841e-07 -0 -2.8716e-09)
(-1.34632e-07 -0.000234184 -0 1.13364e-07 -0 2.12677e-08)
(-3.11871e-07 -0.000235849 -0 3.09651e-07 -0 2.22056e-09)
(-3.39971e-07 -0.000234487 -0 3.41239e-07 -0 -1.26856e-09)
(1.49223e-08 -6.44492e-05 -0 -3.04217e-08 -0 1.54994e-08)
(-1.67087e-07 -6.39729e-05 -0 1.95738e-07 -0 -2.86503e-08)
(-2.04681e-07 -6.10505e-05 -0 2.19492e-07 -0 -1.48104e-08)
(7.29857e-08 -6.17385e-05 -0 -6.97563e-08 -0 -3.22945e-09)
(-4.29375e-08 -6.50201e-05 -0 4.62039e-08 -0 -3.2664e-09)
(-7.45127e-08 -6.41448e-05 -0 7.81438e-08 -0 -3.63116e-09)
(-1.53656e-07 -6.1299e-05 -0 1.62267e-07 -0 -8.61133e-09)
(9.38759e-08 -6.17621e-05 -0 -9.95621e-08 -0 5.68621e-09)
(-5.98091e-08 -6.70857e-05 -0 5.74641e-08 -0 2.34502e-09)
(-2.19465e-09 -6.59501e-05 -0 -4.76531e-09 -0 6.95996e-09)
(-1.05133e-07 -6.36302e-05 -0 1.0342e-07 -0 1.71268e-09)
(1.14747e-07 -6.38759e-05 -0 -1.24484e-07 -0 9.73723e-09)
(-8.19425e-08 -7.06425e-05 -0 9.11101e-08 -0 -9.16758e-09)
(4.6557e-08 -6.94624e-05 -0 -4.35873e-08 -0 -2.96972e-09)
(-7.38636e-08 -6.7458e-05 -0 7.54683e-08 -0 -1.60464e-09)
(1.16714e-07 -6.75599e-05 -0 -1.19393e-07 -0 2.67941e-09)
(-7.30085e-08 -7.57662e-05 -0 7.01595e-08 -0 2.84897e-09)
(1.10794e-07 -7.46674e-05 -0 -1.19379e-07 -0 8.58557e-09)
(-3.81454e-08 -7.28788e-05 -0 3.65193e-08 -0 1.62604e-09)
(1.31389e-07 -7.2848e-05 -0 -1.38577e-07 -0 7.18785e-09)
(-7.08803e-08 -8.2514e-05 -0 6.88219e-08 -0 2.05842e-09)
(1.49233e-07 -8.16381e-05 -0 -1.47534e-07 -0 -1.69928e-09)
(-1.00828e-08 -7.99532e-05 -0 1.22343e-08 -0 -2.15154e-09)
(1.31761e-07 -7.98e-05 -0 -1.35806e-07 -0 4.04516e-09)
(-7.05619e-08 -9.10071e-05 -0 7.19404e-08 -0 -1.37847e-09)
(1.92422e-07 -9.03544e-05 -0 -1.92185e-07 -0 -2.37179e-10)
(2.25464e-08 -8.87557e-05 -0 -1.99051e-08 -0 -2.64133e-09)
(1.35259e-07 -8.85395e-05 -0 -1.38665e-07 -0 3.40633e-09)
(-6.0646e-08 -0.000101314 -0 6.00418e-08 -0 6.04253e-10)
(2.31162e-07 -0.000100873 -0 -2.31334e-07 -0 1.71826e-10)
(5.44025e-08 -9.93896e-05 -0 -5.25441e-08 -0 -1.8584e-09)
(1.37031e-07 -9.91443e-05 -0 -1.43344e-07 -0 6.31316e-09)
(-5.42853e-08 -0.000113558 -0 5.50891e-08 -0 -8.03743e-10)
(2.62299e-07 -0.000113344 -0 -2.62885e-07 -0 5.86751e-10)
(8.4576e-08 -0.000111976 -0 -8.26499e-08 -0 -1.92606e-09)
(1.35626e-07 -0.00011168 -0 -1.39424e-07 -0 3.79747e-09)
(-4.78964e-08 -0.000127821 -0 5.24386e-08 -0 -4.54212e-09)
(2.83832e-07 -0.000127864 -0 -2.79146e-07 -0 -4.6864e-09)
(1.1241e-07 -0.00012663 -0 -1.09404e-07 -0 -3.00583e-09)
(1.36873e-07 -0.000126265 -0 -1.42801e-07 -0 5.92868e-09)
(-3.29551e-08 -0.000144262 -0 2.97458e-08 -0 3.20928e-09)
(3.07963e-07 -0.000144559 -0 -3.09851e-07 -0 1.88814e-09)
(1.42189e-07 -0.00014347 -0 -1.40896e-07 -0 -1.29307e-09)
(1.3836e-07 -0.000143031 -0 -1.41583e-07 -0 3.22392e-09)
(-2.28647e-08 -0.000162937 -0 1.68653e-08 -0 5.99942e-09)
(3.28464e-07 -0.000163511 -0 -3.37439e-07 -0 8.97546e-09)
(1.71309e-07 -0.000162571 -0 -1.72659e-07 -0 1.35043e-09)
(1.47931e-07 -0.00016207 -0 -1.5583e-07 -0 7.89901e-09)
(-3.11044e-08 -0.000184044 -0 3.45768e-08 -0 -3.47239e-09)
(3.14394e-07 -0.000184864 -0 -3.06047e-07 -0 -8.34686e-09)
(1.92389e-07 -0.000183969 -0 -1.89646e-07 -0 -2.74286e-09)
(1.57766e-07 -0.000183449 -0 -1.64943e-07 -0 7.17665e-09)
(-2.17621e-08 -0.000207643 -0 1.54155e-08 -0 6.34658e-09)
(3.32395e-07 -0.00020871 -0 -3.38497e-07 -0 6.10143e-09)
(2.20439e-07 -0.00020788 -0 -2.20186e-07 -0 -2.52487e-10)
(1.60748e-07 -0.000207377 -0 -1.62387e-07 -0 1.63873e-09)
(-3.46638e-08 -0.000234057 -0 3.37715e-08 -0 8.92292e-10)
(3.19748e-07 -0.000235502 -0 -3.20437e-07 -0 6.88683e-10)
(2.43021e-07 -0.000234418 -0 -2.42979e-07 -0 -4.22109e-11)
(1.76373e-07 -0.000233915 -0 -1.77205e-07 -0 8.31107e-10)
)
;

boundaryField
{
    topWall
    {
        type            calculated;
        value           nonuniform List<symmTensor> 0();
    }
    botWall
    {
        type            calculated;
        value           nonuniform List<symmTensor> 0();
    }
    inlet
    {
        type            cyclic;
    }
    outlet
    {
        type            cyclic;
    }
    fixWall
    {
        type            empty;
    }
    procBoundary2to1
    {
        type            processor;
        value           nonuniform List<symmTensor> 8((-1.31055e-07 -6.05114e-05 -0 1.28696e-07 -0 2.35833e-09) (1.00003e-07 -5.84834e-05 -0 -1.04709e-07 -0 4.70569e-09) (3.01159e-07 -5.95971e-05 -0 -3.00473e-07 -0 -6.85808e-10) (2.75761e-08 -6.1905e-05 -0 3.55741e-10 -0 -2.79319e-08) (1.07106e-07 -6.50382e-05 -0 -1.59564e-07 -0 5.24576e-08) (-2.00312e-07 -6.43587e-05 -0 2.11266e-07 -0 -1.09541e-08) (-2.15291e-07 -6.23136e-05 -0 2.07502e-07 -0 7.7896e-09) (4.3005e-08 -6.27725e-05 -0 -4.74578e-08 -0 4.4528e-09));
    }
    procBoundary2to3
    {
        type            processor;
        value           nonuniform List<symmTensor> 8((1.0105e-07 -0.000263026 -0 -1.02478e-07 -0 1.42854e-09) (-1.78051e-07 -0.000263333 -0 1.68273e-07 -0 9.77771e-09) (-3.09885e-07 -0.000264683 -0 3.08091e-07 -0 1.79462e-09) (-3.18678e-07 -0.00026353 -0 3.22572e-07 -0 -3.89452e-09) (-7.49009e-08 -0.000263363 -0 8.48028e-08 -0 -9.90188e-09) (2.99236e-07 -0.000264934 -0 -2.80105e-07 -0 -1.91309e-08) (2.7424e-07 -0.000263894 -0 -2.71423e-07 -0 -2.8175e-09) (1.76458e-07 -0.000263244 -0 -1.68671e-07 -0 -7.78692e-09));
    }
}


// ************************************************************************* //
