/*--------------------------------*- C++ -*----------------------------------*\
  =========                 |
  \\      /  F ield         | OpenFOAM: The Open Source CFD Toolbox
   \\    /   O peration     | Website:  https://openfoam.org
    \\  /    A nd           | Version:  dev
     \\/     M anipulation  |

   OpenFOAM for Windows 20.09 (v1)
   Built by CFD Support, www.cfdsupport.com (based on Symscape).
\*---------------------------------------------------------------------------*/
FoamFile
{
    version     2.0;
    format      ascii;
    class       volScalarField;
    location    "10";
    object      epsilon;
}
// * * * * * * * * * * * * * * * * * * * * * * * * * * * * * * * * * * * * * //

dimensions      [0 2 -3 0 0 0 0];

internalField   nonuniform List<scalar> 
120
(
1.45261e-13
1.44531e-13
1.43628e-13
1.43217e-13
1.59708e-13
1.58911e-13
1.57925e-13
1.57476e-13
1.75994e-13
1.75122e-13
1.74043e-13
1.73551e-13
1.94449e-13
1.93493e-13
1.9231e-13
1.91769e-13
2.15476e-13
2.14424e-13
2.13124e-13
2.12528e-13
2.39568e-13
2.38409e-13
2.36974e-13
2.36315e-13
2.6733e-13
2.66048e-13
2.64459e-13
2.63728e-13
2.99509e-13
2.98086e-13
2.96319e-13
2.95506e-13
3.37026e-13
3.35441e-13
3.33468e-13
3.32559e-13
3.81027e-13
3.79252e-13
3.77039e-13
3.7602e-13
4.32933e-13
4.30939e-13
4.28443e-13
4.27294e-13
4.94525e-13
4.92274e-13
4.89442e-13
4.88142e-13
5.6803e-13
5.65475e-13
5.62246e-13
5.60766e-13
6.56253e-13
6.5334e-13
6.49634e-13
6.47939e-13
7.63048e-13
7.59708e-13
7.55426e-13
7.53474e-13
1.43451e-13
1.44317e-13
1.45171e-13
1.45568e-13
1.57733e-13
1.58673e-13
1.59607e-13
1.60049e-13
1.73835e-13
1.74858e-13
1.75881e-13
1.76375e-13
1.92083e-13
1.932e-13
1.94324e-13
1.94877e-13
2.12877e-13
2.14101e-13
2.1534e-13
2.1596e-13
2.36705e-13
2.38052e-13
2.39422e-13
2.40118e-13
2.64167e-13
2.65656e-13
2.67176e-13
2.6796e-13
2.96004e-13
2.97656e-13
2.99348e-13
3.00236e-13
3.33127e-13
3.34971e-13
3.36863e-13
3.37871e-13
3.76672e-13
3.7874e-13
3.80866e-13
3.82017e-13
4.2805e-13
4.30383e-13
4.32781e-13
4.34103e-13
4.89025e-13
4.9167e-13
4.94391e-13
4.95917e-13
5.61806e-13
5.64822e-13
5.67928e-13
5.69698e-13
6.49174e-13
6.52631e-13
6.562e-13
6.58264e-13
7.54952e-13
7.58939e-13
7.63068e-13
7.65492e-13
)
;

boundaryField
{
    topWall
    {
        type            epsilonWallFunction;
        value           nonuniform List<scalar> 0();
    }
    botWall
    {
        type            epsilonWallFunction;
        value           nonuniform List<scalar> 0();
    }
    inlet
    {
        type            cyclic;
    }
    outlet
    {
        type            cyclic;
    }
    fixWall
    {
        type            empty;
    }
    procBoundary2to1
    {
        type            processor;
        value           nonuniform List<scalar> 8(1.32437e-13 1.31768e-13 1.30938e-13 1.30562e-13 1.30776e-13 1.31576e-13 1.32358e-13 1.32714e-13);
    }
    procBoundary2to3
    {
        type            processor;
        value           nonuniform List<scalar> 8(8.95717e-13 8.91847e-13 8.86845e-13 8.84569e-13 8.8636e-13 8.91007e-13 8.95838e-13 8.98718e-13);
    }
}


// ************************************************************************* //
