/*--------------------------------*- C++ -*----------------------------------*\
  =========                 |
  \\      /  F ield         | OpenFOAM: The Open Source CFD Toolbox
   \\    /   O peration     | Website:  https://openfoam.org
    \\  /    A nd           | Version:  dev
     \\/     M anipulation  |

   OpenFOAM for Windows 20.09 (v1)
   Built by CFD Support, www.cfdsupport.com (based on Symscape).
\*---------------------------------------------------------------------------*/
FoamFile
{
    version     2.0;
    format      ascii;
    class       volVectorField;
    location    "10";
    object      gradp_rgh;
}
// * * * * * * * * * * * * * * * * * * * * * * * * * * * * * * * * * * * * * //

dimensions      [1 -2 -2 0 0 0 0];

internalField   nonuniform List<vector> 
120
(
(-1.26045 -0.216803 0)
(-1.23126 -0.553811 0)
(-1.2203 -0.766821 0)
(-1.24229 -0.32983 0)
(-1.25717 -0.0204333 0)
(-1.23134 0.0104108 0)
(-1.22069 -0.0259713 0)
(-1.24271 -0.0207445 0)
(-1.25705 0.0170272 0)
(-1.23135 0.0136901 0)
(-1.22082 0.000945607 0)
(-1.24291 -0.00102298 0)
(-1.25693 0.029515 0)
(-1.23161 0.0146619 0)
(-1.22093 -0.00424713 0)
(-1.24318 -0.00691815 0)
(-1.2568 0.0296492 0)
(-1.23191 0.0147524 0)
(-1.22118 -0.00100225 0)
(-1.24343 -0.00718411 0)
(-1.25667 0.0288187 0)
(-1.23212 0.0148412 0)
(-1.2213 0.00574942 0)
(-1.24364 0.000511739 0)
(-1.25654 0.0258387 0)
(-1.2323 0.0156281 0)
(-1.22142 0.00610689 0)
(-1.24386 0.000747904 0)
(-1.25635 0.0254602 0)
(-1.23245 0.0122341 0)
(-1.22155 0.00663997 0)
(-1.24403 0.00294703 0)
(-1.25627 0.0266538 0)
(-1.23261 0.0104828 0)
(-1.22157 0.0052392 0)
(-1.24427 0.00144673 0)
(-1.25615 0.0264371 0)
(-1.2328 0.0126942 0)
(-1.2217 0.00469874 0)
(-1.24447 -0.00105511 0)
(-1.25603 0.0317717 0)
(-1.23297 0.0186926 0)
(-1.2218 0.00580601 0)
(-1.24469 0.000169237 0)
(-1.25593 0.019698 0)
(-1.23324 0.0184576 0)
(-1.22201 0.00888864 0)
(-1.2449 0.000513893 0)
(-1.25564 0.0143233 0)
(-1.23315 0.0115955 0)
(-1.2221 0.0236973 0)
(-1.24515 0.000279472 0)
(-1.25555 0.0286924 0)
(-1.23308 0.237728 0)
(-1.2222 0.0334719 0)
(-1.2456 0.476944 0)
(-1.25169 0.346668 0)
(-1.23307 0.99232 0)
(-1.21811 0.757649 0)
(-1.23644 -0.0359949 0)
(-1.25329 -0.380772 0)
(-1.26291 -0.343217 0)
(-1.26596 -0.435351 0)
(-1.26354 0.0430606 0)
(-1.25343 -0.063263 0)
(-1.26257 -0.0231672 0)
(-1.26871 -0.0394537 0)
(-1.26338 -0.193571 0)
(-1.25333 -0.0271439 0)
(-1.26251 -0.0213146 0)
(-1.2688 -0.0332032 0)
(-1.26322 -0.000720864 0)
(-1.25377 -0.0353474 0)
(-1.26267 -0.042554 0)
(-1.26837 -0.0382144 0)
(-1.26255 -0.000572543 0)
(-1.25392 -0.0287916 0)
(-1.26256 -0.0326062 0)
(-1.2681 -0.0246987 0)
(-1.2621 -0.000463029 0)
(-1.25419 -0.0197729 0)
(-1.2626 -0.0320047 0)
(-1.26783 -0.023988 0)
(-1.26164 -0.000641451 0)
(-1.25446 -0.0168972 0)
(-1.26263 -0.0309456 0)
(-1.26758 -0.0266472 0)
(-1.26122 -0.00362505 0)
(-1.25472 -0.0180685 0)
(-1.26276 -0.034624 0)
(-1.26738 -0.0278996 0)
(-1.26077 -0.0040277 0)
(-1.25509 -0.0212255 0)
(-1.26279 -0.0360476 0)
(-1.26707 -0.0259437 0)
(-1.26033 -0.00189161 0)
(-1.25535 -0.0203068 0)
(-1.26284 -0.0329447 0)
(-1.26681 -0.025954 0)
(-1.25989 -0.00180296 0)
(-1.25562 -0.0198371 0)
(-1.26289 -0.0324464 0)
(-1.26655 -0.0179823 0)
(-1.25945 0.00550735 0)
(-1.25589 -0.0189117 0)
(-1.26281 -0.0312497 0)
(-1.26618 -0.0259338 0)
(-1.25906 -0.00498724 0)
(-1.25615 -0.0185318 0)
(-1.26301 -0.0300847 0)
(-1.26611 -0.0325113 0)
(-1.25869 -0.0107432 0)
(-1.2564 0.555768 0)
(-1.26304 0.311798 0)
(-1.26586 -0.0195247 0)
(-1.25828 0.000968577 0)
(-1.2589 0.170848 0)
(-1.27259 -0.0431146 0)
(-1.27129 0.226527 0)
(-1.25789 0.238424 0)
)
;

boundaryField
{
    topWall
    {
        type            extrapolatedCalculated;
        value           nonuniform List<vector> 0();
    }
    botWall
    {
        type            extrapolatedCalculated;
        value           nonuniform List<vector> 0();
    }
    inlet
    {
        type            cyclic;
    }
    outlet
    {
        type            cyclic;
    }
    fixWall
    {
        type            empty;
    }
    procBoundary2to1
    {
        type            processor;
        value           nonuniform List<vector> 8((-1.24722 -0.0136615 0) (-1.22217 0.0160184 0) (-1.22442 1.11598 0) (-1.24915 0.731257 0) (-1.25321 1.56199 0) (-1.26166 0.41455 0) (-1.27515 0.686591 0) (-1.26703 0.263859 0));
    }
    procBoundary2to3
    {
        type            processor;
        value           nonuniform List<vector> 8((-1.24299 -0.0952228 0) (-1.22623 0.251365 0) (-1.23933 -0.327906 0) (-1.25538 -0.558046 0) (-1.25651 -0.39691 0) (-1.26211 -0.412948 0) (-1.26116 -0.184112 0) (-1.25628 0.0453682 0));
    }
}


// ************************************************************************* //
