/*--------------------------------*- C++ -*----------------------------------*\
  =========                 |
  \\      /  F ield         | OpenFOAM: The Open Source CFD Toolbox
   \\    /   O peration     | Website:  https://openfoam.org
    \\  /    A nd           | Version:  dev
     \\/     M anipulation  |

   OpenFOAM for Windows 20.09 (v1)
   Built by CFD Support, www.cfdsupport.com (based on Symscape).
\*---------------------------------------------------------------------------*/
FoamFile
{
    version     2.0;
    format      ascii;
    class       volTensorField;
    location    "10";
    object      gradU;
}
// * * * * * * * * * * * * * * * * * * * * * * * * * * * * * * * * * * * * * //

dimensions      [0 0 -1 0 0 0 0];

internalField   nonuniform List<tensor> 
120
(
(7.9939e-05 0.000167586 0 0.315462 -0.000277139 0 0 0 0)
(-0.000300684 0.000363356 0 0.300593 0.000320393 0 0 0 0)
(-0.000584626 0.000230589 0 0.310449 0.000634423 0 0 0 0)
(0.000135796 1.10528e-05 0 0.324529 -0.000213555 0 0 0 0)
(-8.85399e-05 0.00017014 0 0.320087 7.18042e-05 0 0 0 0)
(-0.000336092 0.000369392 0 0.309614 0.000531033 0 0 0 0)
(-0.000400956 0.000224951 0 0.317745 0.000303775 0 0 0 0)
(0.000381959 3.70415e-06 0 0.33065 -0.000352771 0 0 0 0)
(-0.000213815 0.000171788 0 0.332909 0.000144004 0 0 0 0)
(-0.000339725 0.000367222 0 0.326065 0.000469895 0 0 0 0)
(-0.000234035 0.000215859 0 0.333042 0.000109677 0 0 0 0)
(0.00059374 3.80496e-06 0 0.344747 -0.000573995 0 0 0 0)
(-0.000294763 0.000172043 0 0.354251 0.000189709 0 0 0 0)
(-0.000333882 0.00036882 0 0.349996 0.000436669 0 0 0 0)
(-8.95772e-05 0.000207553 0 0.35635 3.39279e-05 0 0 0 0)
(0.000767319 -5.58232e-07 0 0.366447 -0.000747773 0 0 0 0)
(-0.000346558 0.000173675 0 0.383857 0.000311097 0 0 0 0)
(-0.000304747 0.000364626 0 0.381505 0.000483863 0 0 0 0)
(4.01418e-05 0.000196118 0 0.387671 -0.000164452 0 0 0 0)
(0.000904731 -1.18944e-06 0 0.396186 -0.000888811 0 0 0 0)
(-0.0003694 0.00017367 0 0.42231 0.000272751 0 0 0 0)
(-0.000270311 0.000360894 0 0.421308 0.000382037 0 0 0 0)
(0.000155095 0.000184675 0 0.427459 -0.000261271 0 0 0 0)
(0.00100873 -7.90247e-07 0 0.434216 -0.000986278 0 0 0 0)
(-0.000371865 0.000173865 0 0.469703 0.000289497 0 0 0 0)
(-0.000218928 0.000355725 0 0.469596 0.000347878 0 0 0 0)
(0.000255276 0.000173313 0 0.47605 -0.000352332 0 0 0 0)
(0.00107889 2.16361e-07 0 0.481209 -0.00106045 0 0 0 0)
(-0.000361855 0.000173193 0 0.526545 0.000281757 0 0 0 0)
(-0.000164534 0.000350197 0 0.527107 0.000307723 0 0 0 0)
(0.000348633 0.000161202 0 0.533914 -0.000450955 0 0 0 0)
(0.00112306 1.8437e-06 0 0.537593 -0.00110788 0 0 0 0)
(-0.00034254 0.000172384 0 0.593217 0.000268302 0 0 0 0)
(-9.61056e-05 0.000343513 0 0.594273 0.000233812 0 0 0 0)
(0.000430045 0.000149719 0 0.601655 -0.000527852 0 0 0 0)
(0.00113899 5.10712e-06 0 0.604038 -0.00111882 0 0 0 0)
(-0.000320422 0.000170764 0 0.670397 0.000247399 0 0 0 0)
(-2.3892e-05 0.000336927 0 0.67159 0.000186082 0 0 0 0)
(0.000511384 0.000138659 0 0.679528 -0.000595006 0 0 0 0)
(0.00113547 8.17263e-06 0 0.680899 -0.0011308 0 0 0 0)
(-0.000300798 0.000168916 0 0.758731 0.000204766 0 0 0 0)
(5.60771e-05 0.000329473 0 0.759626 6.00585e-05 0 0 0 0)
(0.000585191 0.000127771 0 0.768163 -0.000709804 0 0 0 0)
(0.00111313 1.25072e-05 0 0.768924 -0.00108786 0 0 0 0)
(-0.000292457 0.00016537 0 0.858956 0.000215545 0 0 0 0)
(0.000133301 0.000321685 0 0.859678 -1.86788e-05 0 0 0 0)
(0.000666356 0.000119527 0 0.868635 -0.000753145 0 0 0 0)
(0.00108443 1.88307e-05 0 0.868422 -0.00107313 0 0 0 0)
(-0.000287048 0.000161374 0 0.971796 0.000214172 0 0 0 0)
(0.000217393 0.000313328 0 0.972636 -6.66727e-05 0 0 0 0)
(0.000730921 0.000110197 0 0.981978 -0.000842516 0 0 0 0)
(0.00103693 2.45797e-05 0 0.980352 -0.00103828 0 0 0 0)
(-0.00028462 0.000156656 0 1.09759 0.000159786 0 0 0 0)
(0.000302999 0.000304073 0 1.09926 -0.000209105 0 0 0 0)
(0.000794964 0.000103333 0 1.10933 -0.000913909 0 0 0 0)
(0.000983319 3.11921e-05 0 1.10535 -0.000935725 0 0 0 0)
(-0.000282449 0.000150644 0 1.23822 0.00025962 0 0 0 0)
(0.000413134 0.000295434 0 1.24088 -0.000244055 0 0 0 0)
(0.000832343 9.80867e-05 0 1.2499 -0.00081469 0 0 0 0)
(0.000897561 3.9411e-05 0 1.24274 -0.000907646 0 0 0 0)
(1.52918e-06 -0.000611381 0 0.342192 0.000121691 0 0 0 0)
(0.000366859 -0.000469911 0 0.339526 -0.000594628 0 0 0 0)
(0.000503158 0.000213206 0 0.323354 -0.0006209 0 0 0 0)
(-0.00020197 9.55028e-05 0 0.327118 0.000176296 0 0 0 0)
(0.000105128 -0.000614508 0 0.345221 -0.000131096 0 0 0 0)
(0.000187836 -0.000472858 0 0.34044 -0.000216704 0 0 0 0)
(0.000384368 0.000219417 0 0.324665 -0.000452828 0 0 0 0)
(-0.000233703 9.97619e-05 0 0.32724 0.000278908 0 0 0 0)
(0.000164708 -0.000609113 0 0.356163 -0.000146065 0 0 0 0)
(2.42597e-05 -0.000475274 0 0.350011 3.1072e-05 0 0 0 0)
(0.000283141 0.000221466 0 0.337018 -0.000269526 0 0 0 0)
(-0.000278275 0.000104247 0 0.338438 0.000355686 0 0 0 0)
(0.000192854 -0.000604424 0 0.375009 -0.000265736 0 0 0 0)
(-0.000131246 -0.000474915 0 0.368626 0.000107636 0 0 0 0)
(0.000191486 0.000224828 0 0.357303 -0.000204243 0 0 0 0)
(-0.000302191 0.000106654 0 0.357961 0.000323492 0 0 0 0)
(0.000201022 -0.000594857 0 0.402156 -0.000178373 0 0 0 0)
(-0.000270852 -0.000474249 0 0.396212 0.000339107 0 0 0 0)
(0.000105394 0.000225064 0 0.386032 -9.24673e-05 0 0 0 0)
(-0.000329132 0.000110813 0 0.385983 0.000386276 0 0 0 0)
(0.000193288 -0.000583958 0 0.437908 -0.000176923 0 0 0 0)
(-0.00039997 -0.000473484 0 0.433155 0.000386461 0 0 0 0)
(2.10178e-05 0.000225614 0 0.423527 -3.81225e-05 0 0 0 0)
(-0.000338446 0.00011338 0 0.422827 0.000370605 0 0 0 0)
(0.000183336 -0.000571978 0 0.48291 -0.000194295 0 0 0 0)
(-0.000510548 -0.000471935 0 0.47935 0.000508662 0 0 0 0)
(-6.67475e-05 0.0002248 0 0.47018 4.57489e-05 0 0 0 0)
(-0.000349409 0.000115994 0 0.469144 0.00037649 0 0 0 0)
(0.000162313 -0.000557806 0 0.537521 -0.000157509 0 0 0 0)
(-0.000612125 -0.000469483 0 0.535096 0.000613491 0 0 0 0)
(-0.000149091 0.000223411 0 0.526541 0.000134317 0 0 0 0)
(-0.000346403 0.000117443 0 0.525347 0.000396593 0 0 0 0)
(0.000141726 -0.000543288 0 0.6024 -0.000148116 0 0 0 0)
(-0.000693537 -0.000467072 0 0.601193 0.000698201 0 0 0 0)
(-0.00022923 0.000221185 0 0.593253 0.000213918 0 0 0 0)
(-0.000349347 0.000118451 0 0.591787 0.000379537 0 0 0 0)
(0.000114889 -0.000527523 0 0.677976 -0.000150999 0 0 0 0)
(-0.000764574 -0.000463449 0 0.678145 0.000727317 0 0 0 0)
(-0.000305851 0.0002181 0 0.670922 0.000281955 0 0 0 0)
(-0.000347002 0.000118349 0 0.669085 0.000394135 0 0 0 0)
(9.58355e-05 -0.000512319 0 0.765101 -7.03217e-05 0 0 0 0)
(-0.000811099 -0.000459856 0 0.76662 0.00082611 0 0 0 0)
(-0.000380228 0.000215632 0 0.760176 0.000369948 0 0 0 0)
(-0.000358109 0.000117875 0 0.757948 0.00038374 0 0 0 0)
(7.64899e-05 -0.000495623 0 0.864063 -2.87945e-05 0 0 0 0)
(-0.000846645 -0.000456111 0 0.867066 0.000917999 0 0 0 0)
(-0.000450389 0.000210727 0 0.861414 0.000461125 0 0 0 0)
(-0.000371085 0.000115596 0 0.858853 0.000433882 0 0 0 0)
(7.32248e-05 -0.000479134 0 0.975911 -0.00010083 0 0 0 0)
(-0.000855264 -0.00045169 0 0.980232 0.000788906 0 0 0 0)
(-0.000517098 0.000207563 0 0.974829 0.000495293 0 0 0 0)
(-0.000399062 0.000113782 0 0.972166 0.000456116 0 0 0 0)
(7.4488e-05 -0.00046517 0 1.10097 -2.40326e-05 0 0 0 0)
(-0.000864679 -0.000446176 0 1.10661 0.000913185 0 0 0 0)
(-0.000584832 0.00020518 0 1.10156 0.000582825 0 0 0 0)
(-0.00042164 0.000110911 0 1.09899 0.000434668 0 0 0 0)
(9.42237e-05 -0.000448319 0 1.24095 -8.71299e-05 0 0 0 0)
(-0.000845508 -0.000441576 0 1.2486 0.000850983 0 0 0 0)
(-0.000644117 0.000199588 0 1.24221 0.000643782 0 0 0 0)
(-0.000465187 0.000106732 0 1.23964 0.000471794 0 0 0 0)
)
;

boundaryField
{
    topWall
    {
        type            extrapolatedCalculated;
        value           nonuniform List<tensor> 0();
    }
    botWall
    {
        type            extrapolatedCalculated;
        value           nonuniform List<tensor> 0();
    }
    inlet
    {
        type            cyclic;
    }
    outlet
    {
        type            cyclic;
    }
    fixWall
    {
        type            empty;
    }
    procBoundary2to1
    {
        type            processor;
        value           nonuniform List<tensor> 8((0.000353544 0.000167738 0 0.320543 -0.000334796 0 0 0 0) (-0.000252538 0.000354199 0 0.309608 0.000289948 0 0 0 0) (-0.00079989 0.00023385 0 0.315631 0.000794437 0 0 0 0) (-0.000147096 1.22497e-05 0 0.328084 -7.49622e-05 0 0 0 0) (-0.000144819 -0.000608157 0 0.34531 0.000561857 0 0 0 0) (0.000501797 -0.000460481 0 0.341561 -0.000588882 0 0 0 0) (0.000591165 0.000206569 0 0.330056 -0.000529237 0 0 0 0) (-0.000102163 9.40325e-05 0 0.3326 0.000137563 0 0 0 0));
    }
    procBoundary2to3
    {
        type            processor;
        value           nonuniform List<tensor> 8((-0.000263996 0.000144726 0 1.39389 0.000275353 0 0 0 0) (0.000497745 0.000286168 0 1.39538 -0.000420012 0 0 0 0) (0.000825951 9.22733e-05 0 1.40273 -0.000811684 0 0 0 0) (0.000834176 4.33181e-05 0 1.39667 -0.000865137 0 0 0 0) (0.000172247 -0.00043586 0 1.39626 -0.000250967 0 0 0 0) (-0.000843671 -0.000433994 0 1.40458 0.00069158 0 0 0 0) (-0.000734203 0.000198861 0 1.39844 0.000711804 0 0 0 0) (-0.000488249 0.000104508 0 1.39509 0.000426343 0 0 0 0));
    }
}


// ************************************************************************* //
