/*--------------------------------*- C++ -*----------------------------------*\
  =========                 |
  \\      /  F ield         | OpenFOAM: The Open Source CFD Toolbox
   \\    /   O peration     | Website:  https://openfoam.org
    \\  /    A nd           | Version:  dev
     \\/     M anipulation  |

   OpenFOAM for Windows 20.09 (v1)
   Built by CFD Support, www.cfdsupport.com (based on Symscape).
\*---------------------------------------------------------------------------*/
FoamFile
{
    version     2.0;
    format      ascii;
    class       volVectorField;
    location    "10";
    object      gradp;
}
// * * * * * * * * * * * * * * * * * * * * * * * * * * * * * * * * * * * * * //

dimensions      [1 -2 -2 0 0 0 0];

internalField   nonuniform List<vector> 
120
(
(3.73946 -98.3125 0)
(-1.23176 -98.6397 0)
(-1.22063 -98.821 0)
(-1.2425 -98.4046 0)
(3.74283 -98.1218 0)
(-1.23136 -98.0897 0)
(-1.22071 -98.0969 0)
(-1.24272 -98.1011 0)
(3.74295 -98.0838 0)
(-1.23135 -98.0867 0)
(-1.22082 -98.0982 0)
(-1.24291 -98.0994 0)
(3.74308 -98.0712 0)
(-1.2316 -98.0859 0)
(-1.22093 -98.1045 0)
(-1.24318 -98.1071 0)
(3.7432 -98.0707 0)
(-1.23191 -98.0856 0)
(-1.22117 -98.1014 0)
(-1.24343 -98.1077 0)
(3.74333 -98.0713 0)
(-1.23211 -98.0854 0)
(-1.22129 -98.0946 0)
(-1.24365 -98.1 0)
(3.74346 -98.0741 0)
(-1.23229 -98.0845 0)
(-1.22141 -98.0942 0)
(-1.24386 -98.0997 0)
(3.74365 -98.0743 0)
(-1.23245 -98.0878 0)
(-1.22155 -98.0936 0)
(-1.24403 -98.0974 0)
(3.74373 -98.0729 0)
(-1.23261 -98.0894 0)
(-1.22157 -98.0948 0)
(-1.24427 -98.0986 0)
(3.74385 -98.0731 0)
(-1.23281 -98.087 0)
(-1.2217 -98.0951 0)
(-1.24447 -98.1008 0)
(3.74397 -98.0677 0)
(-1.23298 -98.0808 0)
(-1.2218 -98.0937 0)
(-1.24468 -98.0993 0)
(3.74407 -98.0806 0)
(-1.23324 -98.0815 0)
(-1.22201 -98.0908 0)
(-1.24489 -98.0988 0)
(3.74436 -98.0872 0)
(-1.23315 -98.0888 0)
(-1.22209 -98.0756 0)
(-1.24514 -98.0984 0)
(3.74446 -98.076 0)
(-1.23305 -97.8533 0)
(-1.22217 -98.0787 0)
(-1.24559 -97.6027 0)
(3.74843 -97.7694 0)
(-1.2332 -97.1273 0)
(-1.21792 -97.3836 0)
(-1.23583 -98.1376 0)
(-1.25317 -98.4335 0)
(-1.26254 -98.424 0)
(-1.26566 -98.5067 0)
(3.7368 -98.0558 0)
(-1.25341 -98.1213 0)
(-1.26255 -98.1105 0)
(-1.26871 -98.1199 0)
(3.73662 -98.299 0)
(-1.25333 -98.126 0)
(-1.26251 -98.121 0)
(-1.26881 -98.1335 0)
(3.73677 -98.1013 0)
(-1.25377 -98.1358 0)
(-1.26267 -98.1432 0)
(-1.26838 -98.1389 0)
(3.73745 -98.1013 0)
(-1.25393 -98.1293 0)
(-1.26257 -98.1332 0)
(-1.26811 -98.1252 0)
(3.7379 -98.1009 0)
(-1.2542 -98.1202 0)
(-1.2626 -98.1324 0)
(-1.26784 -98.1243 0)
(3.73836 -98.1009 0)
(-1.25447 -98.1172 0)
(-1.26263 -98.1312 0)
(-1.26758 -98.1267 0)
(3.73878 -98.1036 0)
(-1.25472 -98.1182 0)
(-1.26276 -98.1346 0)
(-1.26738 -98.1276 0)
(3.73923 -98.1037 0)
(-1.25509 -98.1211 0)
(-1.26279 -98.1358 0)
(-1.26707 -98.1255 0)
(3.73967 -98.1014 0)
(-1.25534 -98.1199 0)
(-1.26283 -98.1324 0)
(-1.26681 -98.1253 0)
(3.74011 -98.1012 0)
(-1.25561 -98.1191 0)
(-1.26288 -98.1317 0)
(-1.26655 -98.1173 0)
(3.74054 -98.0939 0)
(-1.25588 -98.1182 0)
(-1.2628 -98.1308 0)
(-1.26618 -98.126 0)
(3.74094 -98.1052 0)
(-1.25615 -98.1177 0)
(-1.26301 -98.1302 0)
(-1.26612 -98.1341 0)
(3.7413 -98.1126 0)
(-1.25641 -97.5204 0)
(-1.26308 -97.7745 0)
(-1.26588 -98.1257 0)
(3.74172 -98.0973 0)
(-1.25901 -97.9213 0)
(-1.2731 -98.1437 0)
(-1.2715 -97.888 0)
(3.74213 -97.8676 0)
)
;

boundaryField
{
    topWall
    {
        type            extrapolatedCalculated;
        value           nonuniform List<vector> 0();
    }
    botWall
    {
        type            extrapolatedCalculated;
        value           nonuniform List<vector> 0();
    }
    inlet
    {
        type            cyclic;
    }
    outlet
    {
        type            cyclic;
    }
    fixWall
    {
        type            empty;
    }
    procBoundary2to1
    {
        type            processor;
        value           nonuniform List<vector> 8((3.75256 -98.1125 0) (-1.22288 -98.0841 0) (-1.22463 -97.013 0) (-1.24917 -97.3879 0) (-1.25309 -96.5793 0) (-1.26133 -97.6971 0) (-1.27484 -97.432 0) (3.73339 -97.8304 0));
    }
    procBoundary2to3
    {
        type            processor;
        value           nonuniform List<vector> 8((3.7568 -98.1908 0) (-1.22662 -97.8577 0) (-1.23901 -98.4154 0) (-1.25455 -98.6771 0) (-1.25651 -98.5198 0) (-1.26252 -98.5263 0) (-1.26128 -98.2782 0) (3.7437 -98.0565 0));
    }
}


// ************************************************************************* //
