/*--------------------------------*- C++ -*----------------------------------*\
  =========                 |
  \\      /  F ield         | OpenFOAM: The Open Source CFD Toolbox
   \\    /   O peration     | Website:  https://openfoam.org
    \\  /    A nd           | Version:  dev
     \\/     M anipulation  |

   OpenFOAM for Windows 20.09 (v1)
   Built by CFD Support, www.cfdsupport.com (based on Symscape).
\*---------------------------------------------------------------------------*/
FoamFile
{
    version     2.0;
    format      ascii;
    class       volScalarField;
    location    "10";
    object      k;
}
// * * * * * * * * * * * * * * * * * * * * * * * * * * * * * * * * * * * * * //

dimensions      [0 2 -2 0 0 0 0];

internalField   nonuniform List<scalar> 
120
(
6.68608e-14
6.65202e-14
6.61019e-14
6.5903e-14
7.74724e-14
7.70801e-14
7.65986e-14
7.63693e-14
8.95924e-14
8.91417e-14
8.85888e-14
8.83248e-14
1.03427e-13
1.02911e-13
1.02277e-13
1.01974e-13
1.19213e-13
1.18622e-13
1.17897e-13
1.17549e-13
1.37218e-13
1.36543e-13
1.35715e-13
1.35316e-13
1.5775e-13
1.5698e-13
1.56037e-13
1.55579e-13
1.81162e-13
1.80285e-13
1.7921e-13
1.78686e-13
2.07856e-13
2.06859e-13
2.05636e-13
2.05037e-13
2.38296e-13
2.37164e-13
2.35774e-13
2.35089e-13
2.73015e-13
2.7173e-13
2.70151e-13
2.69369e-13
3.12625e-13
3.11169e-13
3.09376e-13
3.08484e-13
3.57835e-13
3.56187e-13
3.54151e-13
3.53134e-13
4.09462e-13
4.07597e-13
4.05286e-13
4.04128e-13
4.68452e-13
4.66343e-13
4.6372e-13
4.62402e-13
6.60156e-14
6.64422e-14
6.68305e-14
6.70044e-14
7.64989e-14
7.69864e-14
7.74348e-14
7.76396e-14
8.84738e-14
8.90295e-14
8.95462e-14
8.97869e-14
1.02145e-13
1.02777e-13
1.03371e-13
1.03653e-13
1.17745e-13
1.18462e-13
1.19145e-13
1.19475e-13
1.3554e-13
1.36353e-13
1.37136e-13
1.37522e-13
1.55836e-13
1.56755e-13
1.57651e-13
1.58103e-13
1.7898e-13
1.80019e-13
1.81044e-13
1.81571e-13
2.05374e-13
2.06545e-13
2.07716e-13
2.0833e-13
2.35475e-13
2.36795e-13
2.38131e-13
2.38845e-13
2.69812e-13
2.71297e-13
2.7282e-13
2.73652e-13
3.08992e-13
3.10662e-13
3.12398e-13
3.13364e-13
3.53719e-13
3.55594e-13
3.5757e-13
3.58691e-13
4.04801e-13
4.06904e-13
4.09153e-13
4.10455e-13
4.63179e-13
4.65536e-13
4.68095e-13
4.69604e-13
)
;

boundaryField
{
    topWall
    {
        type            kqRWallFunction;
        value           nonuniform List<scalar> 0();
    }
    botWall
    {
        type            kqRWallFunction;
        value           nonuniform List<scalar> 0();
    }
    inlet
    {
        type            cyclic;
    }
    outlet
    {
        type            cyclic;
    }
    fixWall
    {
        type            empty;
    }
    procBoundary2to1
    {
        type            processor;
        value           nonuniform List<scalar> 8(5.75773e-14 5.72824e-14 5.69198e-14 5.67477e-14 5.68452e-14 5.72174e-14 5.7553e-14 5.77003e-14);
    }
    procBoundary2to3
    {
        type            processor;
        value           nonuniform List<scalar> 8(5.35909e-13 5.33525e-13 5.30547e-13 5.2905e-13 5.29949e-13 5.32587e-13 5.35497e-13 5.37247e-13);
    }
}


// ************************************************************************* //
