/*--------------------------------*- C++ -*----------------------------------*\
  =========                 |
  \\      /  F ield         | OpenFOAM: The Open Source CFD Toolbox
   \\    /   O peration     | Website:  https://openfoam.org
    \\  /    A nd           | Version:  dev
     \\/     M anipulation  |

   OpenFOAM for Windows 20.09 (v1)
   Built by CFD Support, www.cfdsupport.com (based on Symscape).
\*---------------------------------------------------------------------------*/
FoamFile
{
    version     2.0;
    format      ascii;
    class       volScalarField;
    location    "10";
    object      nut;
}
// * * * * * * * * * * * * * * * * * * * * * * * * * * * * * * * * * * * * * //

dimensions      [0 2 -1 0 0 0 0];

internalField   nonuniform List<scalar> 
120
(
2.76974e-15
2.75543e-15
2.73799e-15
2.72935e-15
3.38228e-15
3.3649e-15
3.34375e-15
3.33323e-15
4.10475e-15
4.0838e-15
4.05829e-15
4.04558e-15
4.95117e-15
4.92606e-15
4.89552e-15
4.88023e-15
5.93595e-15
5.90605e-15
5.86973e-15
5.85143e-15
7.07353e-15
7.03815e-15
6.99522e-15
6.97346e-15
8.37789e-15
8.33629e-15
8.28587e-15
8.26013e-15
9.862e-15
9.81341e-15
9.75458e-15
9.7243e-15
1.15373e-14
1.14809e-14
1.14127e-14
1.13772e-14
1.34128e-14
1.33478e-14
1.32693e-14
1.32281e-14
1.54951e-14
1.54206e-14
1.53307e-14
1.52831e-14
1.7787e-14
1.77023e-14
1.76001e-14
1.75454e-14
2.02879e-14
2.01922e-14
2.00768e-14
2.00143e-14
2.29931e-14
2.28857e-14
2.2756e-14
2.26853e-14
2.58834e-14
2.57636e-14
2.5619e-14
2.55396e-14
2.73421e-15
2.75304e-15
2.76893e-15
2.77578e-15
3.3391e-15
3.36176e-15
3.38114e-15
3.38965e-15
4.05261e-15
4.07968e-15
4.10316e-15
4.11368e-15
4.88861e-15
4.92069e-15
4.94895e-15
4.9619e-15
5.86133e-15
5.89907e-15
5.9329e-15
5.94875e-15
6.98507e-15
7.02913e-15
7.06935e-15
7.08867e-15
8.27365e-15
8.32471e-15
8.37224e-15
8.39564e-15
9.73992e-15
9.79864e-15
9.85445e-15
9.88262e-15
1.13952e-14
1.14622e-14
1.15273e-14
1.1561e-14
1.32485e-14
1.33243e-14
1.33999e-14
1.34398e-14
1.53063e-14
1.53914e-14
1.54784e-14
1.55255e-14
1.75714e-14
1.76663e-14
1.77659e-14
1.78209e-14
2.00434e-14
2.01483e-14
2.02614e-14
2.03254e-14
2.27177e-14
2.28328e-14
2.29603e-14
2.30342e-14
2.55753e-14
2.57006e-14
2.58432e-14
2.59278e-14
)
;

boundaryField
{
    topWall
    {
        type            nutkWallFunction;
        Cmu             0.09;
        kappa           0.41;
        E               9.8;
        value           nonuniform List<scalar> 0();
    }
    botWall
    {
        type            nutkWallFunction;
        Cmu             0.09;
        kappa           0.41;
        E               9.8;
        value           nonuniform List<scalar> 0();
    }
    inlet
    {
        type            cyclic;
    }
    outlet
    {
        type            cyclic;
    }
    fixWall
    {
        type            empty;
    }
    procBoundary2to1
    {
        type            processor;
        value           nonuniform List<scalar> 8(2.25287e-15 2.24117e-15 2.22691e-15 2.21985e-15 2.22383e-15 2.23936e-15 2.25231e-15 2.25778e-15);
    }
    procBoundary2to3
    {
        type            processor;
        value           nonuniform List<scalar> 8(2.88571e-14 2.87252e-14 2.85655e-14 2.84776e-14 2.85167e-14 2.86512e-14 2.8809e-14 2.89046e-14);
    }
}


// ************************************************************************* //
