/*--------------------------------*- C++ -*----------------------------------*\
  =========                 |
  \\      /  F ield         | OpenFOAM: The Open Source CFD Toolbox
   \\    /   O peration     | Website:  https://openfoam.org
    \\  /    A nd           | Version:  dev
     \\/     M anipulation  |

   OpenFOAM for Windows 20.09 (v1)
   Built by CFD Support, www.cfdsupport.com (based on Symscape).
\*---------------------------------------------------------------------------*/
FoamFile
{
    version     2.0;
    format      ascii;
    class       volScalarField;
    location    "10";
    object      omega;
}
// * * * * * * * * * * * * * * * * * * * * * * * * * * * * * * * * * * * * * //

dimensions      [0 0 -1 0 0 0 0];

internalField   nonuniform List<scalar> 
120
(
24.1398
24.1415
24.1425
24.1461
22.9054
22.9071
22.908
22.9115
21.8265
21.8282
21.8291
21.8324
20.8895
20.8911
20.892
20.8953
20.0832
20.0848
20.0856
20.0889
19.3988
19.4004
19.4012
19.4044
18.8293
18.831
18.8317
18.8349
18.3697
18.3713
18.3719
18.3752
18.016
18.0177
18.0182
18.0217
17.7663
17.768
17.7684
17.772
17.6195
17.6212
17.6215
17.6253
17.5761
17.5779
17.5781
17.5821
17.6379
17.6398
17.6399
17.6441
17.808
17.8101
17.81
17.8145
18.0986
18.1009
18.1006
18.1053
24.1443
24.1341
24.1358
24.139
22.91
22.9006
22.902
22.9049
21.8313
21.8227
21.8237
21.8264
20.8944
20.8867
20.8875
20.8899
20.0884
20.0815
20.082
20.0841
19.4043
19.3983
19.3986
19.4003
18.8352
18.8301
18.8303
18.8316
18.3759
18.3719
18.3718
18.3727
18.0228
18.0198
18.0195
18.0201
17.7737
17.7716
17.7711
17.7715
17.6275
17.6265
17.6258
17.6259
17.5849
17.585
17.5841
17.584
17.6476
17.6488
17.6478
17.6474
17.8187
17.821
17.82
17.8194
18.1104
18.1138
18.1129
18.112
)
;

boundaryField
{
    topWall
    {
        beta1           0.075;
        blended         0;
        type            omegaWallFunction;
        value           nonuniform List<scalar> 0();
    }
    botWall
    {
        beta1           0.075;
        blended         0;
        type            omegaWallFunction;
        value           nonuniform List<scalar> 0();
    }
    inlet
    {
        type            cyclic;
    }
    outlet
    {
        type            cyclic;
    }
    fixWall
    {
        type            empty;
    }
    procBoundary2to1
    {
        type            processor;
        value           nonuniform List<scalar> 8(25.5573 25.5591 25.56 25.5638 25.5619 25.5508 25.5529 25.5563);
    }
    procBoundary2to3
    {
        type            processor;
        value           nonuniform List<scalar> 8(18.5711 18.5735 18.573 18.5777 18.5838 18.5887 18.5879 18.5869);
    }
}


// ************************************************************************* //
