/*--------------------------------*- C++ -*----------------------------------*\
  =========                 |
  \\      /  F ield         | OpenFOAM: The Open Source CFD Toolbox
   \\    /   O peration     | Website:  https://openfoam.org
    \\  /    A nd           | Version:  dev
     \\/     M anipulation  |

   OpenFOAM for Windows 20.09 (v1)
   Built by CFD Support, www.cfdsupport.com (based on Symscape).
\*---------------------------------------------------------------------------*/
FoamFile
{
    version     2.0;
    format      ascii;
    class       volScalarField;
    location    "10";
    object      p;
}
// * * * * * * * * * * * * * * * * * * * * * * * * * * * * * * * * * * * * * //

dimensions      [1 -1 -2 0 0 0 0];

internalField   nonuniform List<scalar> 
120
(
-2.46904
-2.53204
-2.59221
-2.6541
-2.55082
-2.61378
-2.67396
-2.73585
-2.63257
-2.69552
-2.75571
-2.8176
-2.7143
-2.77726
-2.83746
-2.89935
-2.79602
-2.85899
-2.91921
-2.98111
-2.87775
-2.94073
-3.00096
-3.06286
-2.95948
-3.02247
-3.0827
-3.14461
-3.04121
-3.10421
-3.16445
-3.22636
-3.12293
-3.18595
-3.24619
-3.30811
-3.20466
-3.26769
-3.32794
-3.38986
-3.28639
-3.34943
-3.40969
-3.47161
-3.36811
-3.43116
-3.49143
-3.55336
-3.44986
-3.5129
-3.57317
-3.63511
-3.53159
-3.59464
-3.65489
-3.71686
-3.61332
-3.67599
-3.73664
-3.79778
-2.71646
-2.77941
-2.84272
-2.90598
-2.79823
-2.86119
-2.92449
-2.98806
-2.88
-2.94293
-3.00625
-3.06981
-2.96178
-3.02473
-3.08804
-3.15156
-3.04356
-3.1065
-3.16981
-3.23332
-3.12532
-3.18828
-3.25158
-3.31507
-3.20709
-3.27006
-3.33335
-3.39682
-3.28885
-3.35183
-3.41513
-3.47857
-3.37062
-3.43362
-3.4969
-3.56032
-3.45239
-3.51539
-3.57867
-3.64207
-3.53415
-3.59717
-3.66044
-3.72382
-3.61592
-3.67895
-3.7422
-3.80556
-3.69768
-3.76072
-3.82399
-3.88733
-3.77945
-3.8425
-3.90576
-3.96908
-3.86022
-3.92368
-3.98753
-4.05083
)
;

boundaryField
{
    topWall
    {
        type            calculated;
        value           nonuniform List<scalar> 0();
    }
    botWall
    {
        type            calculated;
        value           nonuniform List<scalar> 0();
    }
    inlet
    {
        type            cyclic;
    }
    outlet
    {
        type            cyclic;
    }
    fixWall
    {
        type            empty;
    }
    procBoundary2to1
    {
        type            processor;
        value           nonuniform List<scalar> 8(-2.38697 -2.44938 -2.50926 -2.57184 -2.63418 -2.69715 -2.76031 -2.82464);
    }
    procBoundary2to3
    {
        type            processor;
        value           nonuniform List<scalar> 8(-3.69453 -3.75652 -3.8172 -3.88042 -3.94265 -4.00607 -4.0689 -4.1322);
    }
}


// ************************************************************************* //
