/*--------------------------------*- C++ -*----------------------------------*\
  =========                 |
  \\      /  F ield         | OpenFOAM: The Open Source CFD Toolbox
   \\    /   O peration     | Website:  https://openfoam.org
    \\  /    A nd           | Version:  dev
     \\/     M anipulation  |

   OpenFOAM for Windows 20.09 (v1)
   Built by CFD Support, www.cfdsupport.com (based on Symscape).
\*---------------------------------------------------------------------------*/
FoamFile
{
    version     2.0;
    format      ascii;
    class       volScalarField;
    location    "10";
    object      p_rgh;
}
// * * * * * * * * * * * * * * * * * * * * * * * * * * * * * * * * * * * * * //

dimensions      [1 -1 -2 0 0 0 0];

internalField   nonuniform List<scalar> 
120
(
0.0243381
-0.0386599
-0.0987876
-0.16069
0.0243006
-0.0386531
-0.0988332
-0.160722
0.0243041
-0.0386425
-0.0988309
-0.160724
0.024329
-0.0386303
-0.0988316
-0.160724
0.0243533
-0.0386181
-0.098838
-0.160736
0.0243784
-0.0386057
-0.0988333
-0.160736
0.0244013
-0.0385934
-0.0988284
-0.160735
0.0244215
-0.0385796
-0.0988231
-0.160734
0.0244437
-0.038573
-0.0988173
-0.16073
0.0244659
-0.0385622
-0.0988143
-0.160732
0.0244878
-0.0385518
-0.0988095
-0.160732
0.0245188
-0.038531
-0.0988047
-0.160732
0.0245206
-0.0385211
-0.0987947
-0.160731
0.0245427
-0.0385117
-0.0987652
-0.160731
0.0245685
-0.0381248
-0.0987389
-0.159936
-0.223017
-0.286019
-0.349308
-0.412615
-0.223104
-0.286065
-0.349361
-0.412936
-0.223122
-0.286057
-0.349373
-0.412937
-0.22315
-0.286101
-0.349416
-0.412938
-0.223181
-0.286128
-0.349437
-0.412938
-0.223198
-0.286155
-0.349458
-0.412938
-0.223214
-0.286181
-0.349477
-0.412939
-0.223226
-0.286206
-0.349502
-0.412944
-0.223244
-0.286239
-0.349524
-0.412946
-0.223261
-0.286267
-0.349545
-0.412948
-0.223278
-0.286294
-0.349567
-0.412949
-0.223294
-0.286321
-0.349575
-0.412938
-0.22331
-0.286346
-0.34961
-0.412957
-0.223325
-0.286371
-0.349629
-0.412956
-0.222383
-0.285826
-0.349643
-0.412956
)
;

boundaryField
{
    topWall
    {
        type            zeroGradient;
    }
    botWall
    {
        type            zeroGradient;
    }
    inlet
    {
        type            fixedJump;
        patchType       cyclic;
        jump            uniform -0.5;
        value           nonuniform List<scalar> 
15
(
0.0558064
0.0557932
0.0557817
0.0557902
0.0557694
0.0557592
0.0557489
0.0557385
0.055731
0.05572
0.0557075
0.0556957
0.0556834
0.0556821
0.0558617
)
;
    }
    outlet
    {
        type            fixedJump;
        patchType       cyclic;
        value           nonuniform List<scalar> 
15
(
-0.444194
-0.444207
-0.444218
-0.44421
-0.444231
-0.444241
-0.444251
-0.444261
-0.444269
-0.44428
-0.444292
-0.444304
-0.444317
-0.444318
-0.444138
)
;
    }
    fixWall
    {
        type            empty;
    }
    procBoundary2to1
    {
        type            processor;
        value           nonuniform List<scalar> 8(0.0246619 -0.0377301 -0.0975551 -0.160172 -0.22247 -0.285493 -0.348635 -0.413008);
    }
    procBoundary2to3
    {
        type            processor;
        value           nonuniform List<scalar> 8(0.0251205 -0.0368578 -0.0975024 -0.160791 -0.22304 -0.286443 -0.349252 -0.412559);
    }
}


// ************************************************************************* //
