/*--------------------------------*- C++ -*----------------------------------*\
  =========                 |
  \\      /  F ield         | OpenFOAM: The Open Source CFD Toolbox
   \\    /   O peration     | Website:  https://openfoam.org
    \\  /    A nd           | Version:  dev
     \\/     M anipulation  |

   OpenFOAM for Windows 20.09 (v1)
   Built by CFD Support, www.cfdsupport.com (based on Symscape).
\*---------------------------------------------------------------------------*/
FoamFile
{
    version     2.0;
    format      ascii;
    class       surfaceScalarField;
    location    "10";
    object      phi;
}
// * * * * * * * * * * * * * * * * * * * * * * * * * * * * * * * * * * * * * //

dimensions      [0 3 -1 0 0 0 0];

internalField   nonuniform List<scalar> 
217
(
4.63014e-08
-7.03717e-10
4.62832e-08
3.10435e-10
4.62631e-08
1.12678e-09
1.44783e-09
4.62678e-08
4.65165e-08
-7.02932e-10
4.64968e-08
3.30131e-10
4.64845e-08
1.13912e-09
1.43291e-09
4.64994e-08
4.67386e-08
-6.97e-10
4.67189e-08
3.49902e-10
4.67134e-08
1.1446e-09
1.40904e-09
4.67372e-08
4.69741e-08
-6.87753e-10
4.69546e-08
3.69388e-10
4.69551e-08
1.14407e-09
1.37795e-09
4.69862e-08
4.72277e-08
-6.76426e-10
4.72094e-08
3.87686e-10
4.72153e-08
1.1382e-09
1.34102e-09
4.72522e-08
4.75057e-08
-6.64214e-10
4.74888e-08
4.04586e-10
4.74994e-08
1.12754e-09
1.29975e-09
4.75407e-08
4.78137e-08
-6.5199e-10
4.77988e-08
4.19397e-10
4.78136e-08
1.11273e-09
1.25554e-09
4.78578e-08
4.81581e-08
-6.40196e-10
4.81455e-08
4.31988e-10
4.81642e-08
1.09403e-09
1.20948e-09
4.82102e-08
4.85454e-08
-6.29256e-10
4.85356e-08
4.41781e-10
4.85577e-08
1.07194e-09
1.16274e-09
4.86045e-08
4.89828e-08
-6.19288e-10
4.8976e-08
4.48614e-10
4.90014e-08
1.04648e-09
1.11611e-09
4.90481e-08
4.94774e-08
-6.1019e-10
4.94739e-08
4.52155e-10
4.95024e-08
1.01794e-09
1.07038e-09
4.95482e-08
5.00372e-08
-6.01407e-10
5.0037e-08
4.52414e-10
5.00688e-08
9.86047e-10
1.02581e-09
5.01134e-08
5.06709e-08
-5.92972e-10
5.06741e-08
4.49237e-10
5.07087e-08
9.51397e-10
9.83234e-10
5.07513e-08
5.13876e-08
-5.8476e-10
5.13943e-08
4.42514e-10
5.14316e-08
9.14105e-10
9.42918e-10
5.14719e-08
5.21957e-08
5.22083e-08
5.22472e-08
5.22836e-08
4.62681e-08
1.16233e-09
4.62823e-08
-1.61513e-09
4.63068e-08
-1.19332e-09
-5.33613e-10
4.65041e-08
1.15765e-09
4.65117e-08
-1.62279e-09
4.65285e-08
-1.2101e-09
-5.22334e-10
4.67443e-08
1.1506e-09
4.67452e-08
-1.62372e-09
4.67577e-08
-1.22259e-09
-5.09197e-10
4.69944e-08
1.1424e-09
4.69889e-08
-1.6182e-09
4.69975e-08
-1.23121e-09
-4.95102e-10
4.72606e-08
1.13394e-09
4.72493e-08
-1.60689e-09
4.72543e-08
-1.23625e-09
-4.79873e-10
4.75488e-08
1.12581e-09
4.75321e-08
-1.59019e-09
4.75336e-08
-1.23777e-09
-4.64234e-10
4.78656e-08
1.11809e-09
4.78442e-08
-1.56888e-09
4.78421e-08
-1.23567e-09
-4.48063e-10
4.82171e-08
1.11122e-09
4.81915e-08
-1.54333e-09
4.81859e-08
-1.23009e-09
-4.32051e-10
4.86105e-08
1.10521e-09
4.85815e-08
-1.51438e-09
4.85725e-08
-1.22117e-09
-4.15889e-10
4.90529e-08
1.10032e-09
4.9021e-08
-1.48247e-09
4.90088e-08
-1.20904e-09
-3.99799e-10
4.95522e-08
1.09623e-09
4.95183e-08
-1.44862e-09
4.95031e-08
-1.19378e-09
-3.83218e-10
5.01166e-08
1.09295e-09
5.00813e-08
-1.41326e-09
5.00631e-08
-1.17555e-09
-3.6612e-10
5.07544e-08
1.08984e-09
5.07187e-08
-1.37751e-09
5.06977e-08
-1.15453e-09
-3.47785e-10
5.14751e-08
1.08672e-09
5.14389e-08
-1.34135e-09
5.14151e-08
-1.13071e-09
-3.28494e-10
5.22868e-08
5.22521e-08
5.2226e-08
)
;

boundaryField
{
    topWall
    {
        type            calculated;
        value           nonuniform List<scalar> 0();
    }
    botWall
    {
        type            calculated;
        value           nonuniform List<scalar> 0();
    }
    inlet
    {
        type            cyclic;
        value           nonuniform List<scalar> 
15
(
-5.2205e-08
-5.13958e-08
-5.06794e-08
-5.0046e-08
-4.94865e-08
-4.89927e-08
-4.85564e-08
-4.81699e-08
-4.78259e-08
-4.75179e-08
-4.72391e-08
-4.69834e-08
-4.67446e-08
-4.65173e-08
-4.62941e-08
)
;
    }
    outlet
    {
        type            cyclic;
        value           nonuniform List<scalar> 
15
(
5.2205e-08
5.13958e-08
5.06794e-08
5.0046e-08
4.94865e-08
4.89927e-08
4.85564e-08
4.81699e-08
4.78259e-08
4.75179e-08
4.72391e-08
4.69834e-08
4.67446e-08
4.65173e-08
4.62941e-08
)
;
    }
    fixWall
    {
        type            empty;
        value           nonuniform List<scalar> 0();
    }
    procBoundary2to1
    {
        type            processor;
        value           nonuniform List<scalar> 8(6.95811e-10 -2.92315e-10 -1.10631e-09 -1.4529e-09 -1.15983e-09 1.60025e-09 1.1668e-09 5.45465e-10);
    }
    procBoundary2to3
    {
        type            processor;
        value           nonuniform List<scalar> 8(-5.75859e-10 4.30976e-10 8.77038e-10 9.05796e-10 1.08597e-09 -1.30696e-09 -1.10372e-09 -3.0851e-10);
    }
}


// ************************************************************************* //
