/*--------------------------------*- C++ -*----------------------------------*\
  =========                 |
  \\      /  F ield         | OpenFOAM: The Open Source CFD Toolbox
   \\    /   O peration     | Website:  https://openfoam.org
    \\  /    A nd           | Version:  dev
     \\/     M anipulation  |

   OpenFOAM for Windows 20.09 (v1)
   Built by CFD Support, www.cfdsupport.com (based on Symscape).
\*---------------------------------------------------------------------------*/
FoamFile
{
    version     2.0;
    format      ascii;
    class       volSymmTensorField;
    location    "10";
    object      R;
}
// * * * * * * * * * * * * * * * * * * * * * * * * * * * * * * * * * * * * * //

dimensions      [0 2 -2 0 0 0 0];

internalField   nonuniform List<symmTensor> 
120
(
(4.45731e-14 -8.74211e-16 -0 4.45751e-14 -0 4.45735e-14)
(4.43485e-14 -8.29264e-16 -0 4.43451e-14 -0 4.43469e-14)
(4.40712e-14 -8.50638e-16 -0 4.40645e-14 -0 4.4068e-14)
(4.39345e-14 -8.85784e-16 -0 4.39364e-14 -0 4.39352e-14)
(5.16488e-14 -1.0832e-15 -0 5.16477e-14 -0 5.16482e-14)
(5.13894e-14 -1.04307e-15 -0 5.13836e-14 -0 5.13872e-14)
(5.10682e-14 -1.06321e-15 -0 5.10635e-14 -0 5.10655e-14)
(5.09104e-14 -1.10215e-15 -0 5.09153e-14 -0 5.09129e-14)
(5.97298e-14 -1.36721e-15 -0 5.97269e-14 -0 5.97281e-14)
(5.9431e-14 -1.33308e-15 -0 5.94243e-14 -0 5.94282e-14)
(5.90608e-14 -1.35246e-15 -0 5.9058e-14 -0 5.90589e-14)
(5.88785e-14 -1.39472e-15 -0 5.88879e-14 -0 5.88833e-14)
(6.89542e-14 -1.75481e-15 -0 6.89494e-14 -0 6.89513e-14)
(6.86108e-14 -1.72592e-15 -0 6.86032e-14 -0 6.86075e-14)
(6.81855e-14 -1.74554e-15 -0 6.81843e-14 -0 6.81846e-14)
(6.7975e-14 -1.78834e-15 -0 6.79898e-14 -0 6.79825e-14)
(7.94793e-14 -2.27959e-15 -0 7.94715e-14 -0 7.94752e-14)
(7.90855e-14 -2.25534e-15 -0 7.90762e-14 -0 7.90819e-14)
(7.85972e-14 -2.27668e-15 -0 7.85996e-14 -0 7.85977e-14)
(7.83553e-14 -2.31825e-15 -0 7.83763e-14 -0 7.83659e-14)
(9.14834e-14 -2.98845e-15 -0 9.14744e-14 -0 9.14782e-14)
(9.10329e-14 -2.96777e-15 -0 9.10237e-14 -0 9.10291e-14)
(9.04743e-14 -2.99146e-15 -0 9.04801e-14 -0 9.04765e-14)
(9.01965e-14 -3.02798e-15 -0 9.02244e-14 -0 9.02106e-14)
(1.05173e-13 -3.93658e-15 -0 1.05161e-13 -0 1.05166e-13)
(1.04658e-13 -3.91766e-15 -0 1.04648e-13 -0 1.04654e-13)
(1.0402e-13 -3.94592e-15 -0 1.0403e-13 -0 1.04024e-13)
(1.03702e-13 -3.97485e-15 -0 1.03737e-13 -0 1.03719e-13)
(1.20781e-13 -5.19449e-15 -0 1.20768e-13 -0 1.20774e-13)
(1.20194e-13 -5.17615e-15 -0 1.20185e-13 -0 1.20191e-13)
(1.19466e-13 -5.20968e-15 -0 1.19482e-13 -0 1.19473e-13)
(1.19102e-13 -5.22773e-15 -0 1.19146e-13 -0 1.19124e-13)
(1.38578e-13 -6.84608e-15 -0 1.38564e-13 -0 1.3857e-13)
(1.37909e-13 -6.82672e-15 -0 1.37902e-13 -0 1.37907e-13)
(1.3708e-13 -6.8682e-15 -0 1.37102e-13 -0 1.3709e-13)
(1.36665e-13 -6.87235e-15 -0 1.36717e-13 -0 1.36691e-13)
(1.58872e-13 -8.9942e-15 -0 1.58857e-13 -0 1.58863e-13)
(1.58111e-13 -8.96876e-15 -0 1.58106e-13 -0 1.58111e-13)
(1.57168e-13 -9.01868e-15 -0 1.57198e-13 -0 1.57182e-13)
(1.56696e-13 -9.00707e-15 -0 1.56756e-13 -0 1.56726e-13)
(1.82018e-13 -1.17592e-14 -0 1.82002e-13 -0 1.82009e-13)
(1.81153e-13 -1.1719e-14 -0 1.81153e-13 -0 1.81155e-13)
(1.80081e-13 -1.17785e-14 -0 1.80121e-13 -0 1.80099e-13)
(1.79546e-13 -1.17517e-14 -0 1.79613e-13 -0 1.7958e-13)
(2.08426e-13 -1.52812e-14 -0 2.08408e-13 -0 2.08416e-13)
(2.07443e-13 -1.5224e-14 -0 2.07448e-13 -0 2.07448e-13)
(2.06226e-13 -1.52902e-14 -0 2.06276e-13 -0 2.0625e-13)
(2.05618e-13 -1.52371e-14 -0 2.05694e-13 -0 2.05656e-13)
(2.38568e-13 -1.9719e-14 -0 2.38547e-13 -0 2.38556e-13)
(2.37451e-13 -1.9646e-14 -0 2.37463e-13 -0 2.3746e-13)
(2.3607e-13 -1.97171e-14 -0 2.36133e-13 -0 2.36099e-13)
(2.35381e-13 -1.96216e-14 -0 2.35464e-13 -0 2.35423e-13)
(2.72986e-13 -2.52406e-14 -0 2.72965e-13 -0 2.72973e-13)
(2.71719e-13 -2.51643e-14 -0 2.71742e-13 -0 2.71733e-13)
(2.70153e-13 -2.52464e-14 -0 2.7023e-13 -0 2.70189e-13)
(2.69375e-13 -2.50759e-14 -0 2.69462e-13 -0 2.69419e-13)
(3.12316e-13 -3.20531e-14 -0 3.12287e-13 -0 3.12301e-13)
(3.10877e-13 -3.19771e-14 -0 3.10911e-13 -0 3.10898e-13)
(3.09104e-13 -3.20237e-14 -0 3.09189e-13 -0 3.09147e-13)
(3.08222e-13 -3.174e-14 -0 3.08314e-13 -0 3.08268e-13)
(4.40106e-14 -9.33952e-16 -0 4.401e-14 -0 4.40106e-14)
(4.42923e-14 -9.33434e-16 -0 4.42976e-14 -0 4.42944e-14)
(4.45506e-14 -8.95937e-16 -0 4.45569e-14 -0 4.45534e-14)
(4.46707e-14 -9.08273e-16 -0 4.46686e-14 -0 4.46695e-14)
(5.09985e-14 -1.15068e-15 -0 5.10001e-14 -0 5.09992e-14)
(5.13229e-14 -1.14289e-15 -0 5.13257e-14 -0 5.13242e-14)
(5.16204e-14 -1.09848e-15 -0 5.16261e-14 -0 5.1623e-14)
(5.17614e-14 -1.10957e-15 -0 5.17579e-14 -0 5.17598e-14)
(5.89812e-14 -1.44092e-15 -0 5.89838e-14 -0 5.89826e-14)
(5.9353e-14 -1.42599e-15 -0 5.93529e-14 -0 5.93532e-14)
(5.96952e-14 -1.38375e-15 -0 5.96997e-14 -0 5.96975e-14)
(5.98604e-14 -1.39265e-15 -0 5.98552e-14 -0 5.98581e-14)
(6.80943e-14 -1.83032e-15 -0 6.80988e-14 -0 6.80962e-14)
(6.8519e-14 -1.81156e-15 -0 6.85167e-14 -0 6.85177e-14)
(6.89121e-14 -1.76939e-15 -0 6.8916e-14 -0 6.8914e-14)
(6.91053e-14 -1.7767e-15 -0 6.90991e-14 -0 6.91023e-14)
(7.84941e-14 -2.35368e-15 -0 7.84986e-14 -0 7.84965e-14)
(7.89782e-14 -2.33448e-15 -0 7.8971e-14 -0 7.8975e-14)
(7.94286e-14 -2.29163e-15 -0 7.94309e-14 -0 7.94298e-14)
(7.96544e-14 -2.29678e-15 -0 7.96458e-14 -0 7.96504e-14)
(9.03575e-14 -3.05474e-15 -0 9.03626e-14 -0 9.03602e-14)
(9.09077e-14 -3.04138e-15 -0 9.08966e-14 -0 9.0902e-14)
(9.14234e-14 -2.99565e-15 -0 9.14242e-14 -0 9.14237e-14)
(9.16866e-14 -2.99808e-15 -0 9.16765e-14 -0 9.16818e-14)
(1.03887e-13 -3.99069e-15 -0 1.03894e-13 -0 1.0389e-13)
(1.04512e-13 -3.98652e-15 -0 1.04495e-13 -0 1.04504e-13)
(1.05102e-13 -3.93834e-15 -0 1.051e-13 -0 1.05101e-13)
(1.05408e-13 -3.93973e-15 -0 1.05396e-13 -0 1.05402e-13)
(1.19317e-13 -5.22998e-15 -0 1.19323e-13 -0 1.1932e-13)
(1.20025e-13 -5.23861e-15 -0 1.20001e-13 -0 1.20013e-13)
(1.20699e-13 -5.19098e-15 -0 1.20693e-13 -0 1.20696e-13)
(1.21054e-13 -5.19296e-15 -0 1.2104e-13 -0 1.21047e-13)
(1.36912e-13 -6.85826e-15 -0 1.36919e-13 -0 1.36916e-13)
(1.37713e-13 -6.88562e-15 -0 1.37681e-13 -0 1.37697e-13)
(1.38482e-13 -6.84115e-15 -0 1.38472e-13 -0 1.38477e-13)
(1.38895e-13 -6.84301e-15 -0 1.38878e-13 -0 1.38887e-13)
(1.5698e-13 -8.97519e-15 -0 1.56987e-13 -0 1.56983e-13)
(1.57883e-13 -9.02965e-15 -0 1.57844e-13 -0 1.57863e-13)
(1.58762e-13 -8.9932e-15 -0 1.58746e-13 -0 1.58753e-13)
(1.5924e-13 -8.99399e-15 -0 1.5922e-13 -0 1.59231e-13)
(1.79872e-13 -1.1703e-14 -0 1.79877e-13 -0 1.79875e-13)
(1.8089e-13 -1.17923e-14 -0 1.8084e-13 -0 1.80865e-13)
(1.81892e-13 -1.17697e-14 -0 1.81869e-13 -0 1.8188e-13)
(1.82446e-13 -1.17694e-14 -0 1.82423e-13 -0 1.82435e-13)
(2.05993e-13 -1.51741e-14 -0 2.05997e-13 -0 2.05995e-13)
(2.07139e-13 -1.53098e-14 -0 2.07077e-13 -0 2.07109e-13)
(2.08281e-13 -1.53075e-14 -0 2.08249e-13 -0 2.08265e-13)
(2.08923e-13 -1.53076e-14 -0 2.08894e-13 -0 2.0891e-13)
(2.35809e-13 -1.9551e-14 -0 2.35816e-13 -0 2.35812e-13)
(2.37096e-13 -1.97409e-14 -0 2.3703e-13 -0 2.37062e-13)
(2.384e-13 -1.97556e-14 -0 2.38359e-13 -0 2.38379e-13)
(2.39145e-13 -1.9762e-14 -0 2.3911e-13 -0 2.39128e-13)
(2.69865e-13 -2.5001e-14 -0 2.69869e-13 -0 2.69868e-13)
(2.7131e-13 -2.52568e-14 -0 2.71229e-13 -0 2.7127e-13)
(2.72796e-13 -2.52968e-14 -0 2.72742e-13 -0 2.72769e-13)
(2.73656e-13 -2.53168e-14 -0 2.73617e-13 -0 2.73637e-13)
(3.08782e-13 -3.17263e-14 -0 3.08791e-13 -0 3.08786e-13)
(3.10401e-13 -3.20785e-14 -0 3.10314e-13 -0 3.10358e-13)
(3.12096e-13 -3.2108e-14 -0 3.1203e-13 -0 3.12063e-13)
(3.13094e-13 -3.2144e-14 -0 3.13045e-13 -0 3.1307e-13)
)
;

boundaryField
{
    topWall
    {
        type            kqRWallFunction;
        value           nonuniform List<symmTensor> 0();
    }
    botWall
    {
        type            kqRWallFunction;
        value           nonuniform List<symmTensor> 0();
    }
    inlet
    {
        type            cyclic;
    }
    outlet
    {
        type            cyclic;
    }
    fixWall
    {
        type            empty;
    }
    procBoundary2to1
    {
        type            processor;
        value           nonuniform List<symmTensor> 8((3.83833e-14 -7.2252e-16 -0 3.83864e-14 -0 3.83849e-14) (3.81894e-14 -6.94677e-16 -0 3.8187e-14 -0 3.81883e-14) (3.79501e-14 -7.03401e-16 -0 3.7943e-14 -0 3.79465e-14) (3.78321e-14 -7.28324e-16 -0 3.78318e-14 -0 3.78315e-14) (3.78981e-14 -7.66559e-16 -0 3.7895e-14 -0 3.78974e-14) (3.81426e-14 -7.63847e-16 -0 3.81475e-14 -0 3.81448e-14) (3.83661e-14 -7.43852e-16 -0 3.83711e-14 -0 3.83687e-14) (3.84674e-14 -7.51149e-16 -0 3.84663e-14 -0 3.84669e-14));
    }
    procBoundary2to3
    {
        type            processor;
        value           nonuniform List<symmTensor> 8((3.57288e-13 -4.0228e-14 -0 3.57257e-13 -0 3.57273e-13) (3.55657e-13 -4.00908e-14 -0 3.55709e-13 -0 3.55685e-13) (3.53651e-13 -4.00723e-14 -0 3.53745e-13 -0 3.53698e-13) (3.52652e-13 -3.9775e-14 -0 3.52748e-13 -0 3.52699e-13) (3.53288e-13 -3.98043e-14 -0 3.53312e-13 -0 3.53298e-13) (3.55103e-13 -4.02305e-14 -0 3.55015e-13 -0 3.55055e-13) (3.5704e-13 -4.02934e-14 -0 3.56957e-13 -0 3.56998e-13) (3.58192e-13 -4.03275e-14 -0 3.58139e-13 -0 3.58164e-13));
    }
}


// ************************************************************************* //
