/*--------------------------------*- C++ -*----------------------------------*\
  =========                 |
  \\      /  F ield         | OpenFOAM: The Open Source CFD Toolbox
   \\    /   O peration     | Website:  https://openfoam.org
    \\  /    A nd           | Version:  dev
     \\/     M anipulation  |

   OpenFOAM for Windows 20.09 (v1)
   Built by CFD Support, www.cfdsupport.com (based on Symscape).
\*---------------------------------------------------------------------------*/
FoamFile
{
    version     2.0;
    format      ascii;
    class       volVectorField;
    location    "10";
    object      U;
}
// * * * * * * * * * * * * * * * * * * * * * * * * * * * * * * * * * * * * * //

dimensions      [0 1 -1 0 0 0 0];

internalField   nonuniform List<vector> 
120
(
(0.0555469 -1.40462e-05 0)
(0.0555709 6.0006e-06 0)
(0.0555168 2.22894e-05 0)
(0.0555125 2.90595e-05 0)
(0.0558105 -1.41671e-05 0)
(0.0558238 6.35169e-06 0)
(0.0557769 2.2772e-05 0)
(0.0557837 2.88468e-05 0)
(0.0560804 -1.39265e-05 0)
(0.056087 6.88566e-06 0)
(0.0560464 2.27956e-05 0)
(0.0560636 2.84715e-05 0)
(0.0563653 -1.39271e-05 0)
(0.0563672 7.13485e-06 0)
(0.0563319 2.29548e-05 0)
(0.0563582 2.78901e-05 0)
(0.0566708 -1.36104e-05 0)
(0.0566703 7.61344e-06 0)
(0.0566403 2.28522e-05 0)
(0.0566743 2.72252e-05 0)
(0.0570051 -1.34086e-05 0)
(0.057003 7.94129e-06 0)
(0.0569781 2.26808e-05 0)
(0.0570185 2.64087e-05 0)
(0.0573747 -1.31558e-05 0)
(0.0573725 8.25017e-06 0)
(0.0573528 2.24167e-05 0)
(0.057398 2.55814e-05 0)
(0.0577879 -1.29261e-05 0)
(0.0577857 8.52108e-06 0)
(0.0577715 2.20935e-05 0)
(0.0578206 2.46413e-05 0)
(0.0582522 -1.26862e-05 0)
(0.058251 8.76304e-06 0)
(0.0582426 2.16651e-05 0)
(0.058294 2.3735e-05 0)
(0.0587766 -1.2479e-05 0)
(0.0587762 8.91077e-06 0)
(0.0587742 2.12138e-05 0)
(0.0588273 2.27766e-05 0)
(0.0593696 -1.22739e-05 0)
(0.0593703 9.07318e-06 0)
(0.0593752 2.06735e-05 0)
(0.0594288 2.18503e-05 0)
(0.0600412 -1.21377e-05 0)
(0.0600422 9.01087e-06 0)
(0.0600545 2.00308e-05 0)
(0.0601088 2.09635e-05 0)
(0.0608012 -1.19146e-05 0)
(0.0608031 9.04205e-06 0)
(0.0608229 1.94182e-05 0)
(0.0608762 2.00617e-05 0)
(0.0616608 -1.17807e-05 0)
(0.0616633 8.89975e-06 0)
(0.0616911 1.86266e-05 0)
(0.0617428 1.92331e-05 0)
(0.0626305 -1.16483e-05 0)
(0.0626352 8.69354e-06 0)
(0.0626718 1.7895e-05 0)
(0.0627184 1.85022e-05 0)
(0.0555304 2.33946e-05 0)
(0.0555126 -3.20786e-05 0)
(0.0555671 -2.35965e-05 0)
(0.0555629 -1.0758e-05 0)
(0.0558151 2.31425e-05 0)
(0.0557942 -3.2604e-05 0)
(0.0558338 -2.41433e-05 0)
(0.0558326 -1.06623e-05 0)
(0.0561058 2.31761e-05 0)
(0.05608 -3.24398e-05 0)
(0.0561082 -2.43512e-05 0)
(0.0561083 -1.02932e-05 0)
(0.0564087 2.2899e-05 0)
(0.0563775 -3.25523e-05 0)
(0.0563955 -2.45925e-05 0)
(0.0563967 -1.00695e-05 0)
(0.0567308 2.27332e-05 0)
(0.0566944 -3.22604e-05 0)
(0.0567037 -2.46916e-05 0)
(0.056705 -9.75402e-06 0)
(0.0570789 2.26017e-05 0)
(0.0570379 -3.19871e-05 0)
(0.0570389 -2.47466e-05 0)
(0.05704 -9.4257e-06 0)
(0.0574607 2.24384e-05 0)
(0.0574163 -3.16163e-05 0)
(0.0574096 -2.47552e-05 0)
(0.0574097 -9.13635e-06 0)
(0.0578838 2.22779e-05 0)
(0.0578368 -3.11393e-05 0)
(0.0578226 -2.46704e-05 0)
(0.0578219 -8.79822e-06 0)
(0.0583565 2.21759e-05 0)
(0.0583082 -3.05938e-05 0)
(0.0582872 -2.45313e-05 0)
(0.0582852 -8.47536e-06 0)
(0.0588878 2.2031e-05 0)
(0.0588388 -2.99756e-05 0)
(0.0588113 -2.43139e-05 0)
(0.0588082 -8.16566e-06 0)
(0.0594865 2.19242e-05 0)
(0.0594384 -2.93816e-05 0)
(0.0594054 -2.40614e-05 0)
(0.0594004 -7.81847e-06 0)
(0.0601629 2.19138e-05 0)
(0.0601165 -2.85988e-05 0)
(0.0600783 -2.36973e-05 0)
(0.0600714 -7.52609e-06 0)
(0.0609266 2.18762e-05 0)
(0.0608835 -2.78516e-05 0)
(0.0608411 -2.32928e-05 0)
(0.0608318 -7.09533e-06 0)
(0.0617895 2.17458e-05 0)
(0.0617502 -2.72839e-05 0)
(0.061703 -2.28718e-05 0)
(0.0616917 -6.7659e-06 0)
(0.0627615 2.18361e-05 0)
(0.0627279 -2.63297e-05 0)
(0.062677 -2.23215e-05 0)
(0.0626634 -6.37088e-06 0)
)
;

boundaryField
{
    topWall
    {
        type            noSlip;
    }
    botWall
    {
        type            noSlip;
    }
    inlet
    {
        type            cyclic;
    }
    outlet
    {
        type            cyclic;
    }
    fixWall
    {
        type            empty;
    }
    procBoundary2to1
    {
        type            processor;
        value           nonuniform List<vector> 8((0.0552847 -1.37052e-05 0) (0.0553228 5.8177e-06 0) (0.0552595 2.17147e-05 0) (0.0552428 2.92027e-05 0) (0.0552447 2.29396e-05 0) (0.0552283 -3.1613e-05 0) (0.0552949 -2.31085e-05 0) (0.0552874 -1.09561e-05 0));
    }
    procBoundary2to3
    {
        type            processor;
        value           nonuniform List<vector> 8((0.0637245 -1.1348e-05 0) (0.0637314 8.49299e-06 0) (0.0637743 1.72688e-05 0) (0.063814 1.77203e-05 0) (0.0638577 2.16006e-05 0) (0.0638312 -2.58656e-05 0) (0.0637734 -2.17988e-05 0) (0.0637578 -5.97957e-06 0));
    }
}


// ************************************************************************* //
