/*--------------------------------*- C++ -*----------------------------------*\
  =========                 |
  \\      /  F ield         | OpenFOAM: The Open Source CFD Toolbox
   \\    /   O peration     | Website:  https://openfoam.org
    \\  /    A nd           | Version:  dev
     \\/     M anipulation  |

   OpenFOAM for Windows 20.09 (v1)
   Built by CFD Support, www.cfdsupport.com (based on Symscape).
\*---------------------------------------------------------------------------*/
FoamFile
{
    version     2.0;
    format      ascii;
    class       volVectorField;
    location    "10";
    object      UMean;
}
// * * * * * * * * * * * * * * * * * * * * * * * * * * * * * * * * * * * * * //

dimensions      [0 1 -1 0 0 0 0];

internalField   nonuniform List<vector> 
120
(
(0.0294769 3.2216e-06 0)
(0.0294967 -1.11389e-05 0)
(0.0294806 3.18821e-06 0)
(0.0295114 7.98677e-06 0)
(0.0295335 3.38665e-06 0)
(0.0295477 -1.12965e-05 0)
(0.029532 3.1254e-06 0)
(0.0295667 7.49663e-06 0)
(0.0295924 3.63595e-06 0)
(0.029603 -1.11618e-05 0)
(0.0295871 2.82446e-06 0)
(0.0296255 7.0327e-06 0)
(0.029655 3.74074e-06 0)
(0.029663 -1.10896e-05 0)
(0.0296466 2.73127e-06 0)
(0.0296875 6.44746e-06 0)
(0.0297246 3.94252e-06 0)
(0.0297309 -1.10385e-05 0)
(0.0297138 2.38347e-06 0)
(0.0297571 5.85537e-06 0)
(0.0298032 4.20492e-06 0)
(0.0298078 -1.08633e-05 0)
(0.0297904 2.25607e-06 0)
(0.0298352 5.28773e-06 0)
(0.029894 4.36595e-06 0)
(0.0298973 -1.07678e-05 0)
(0.0298796 1.89894e-06 0)
(0.0299257 4.72646e-06 0)
(0.0299999 4.59461e-06 0)
(0.0300018 -1.06581e-05 0)
(0.0299842 1.71754e-06 0)
(0.0300308 4.0141e-06 0)
(0.0301248 4.8013e-06 0)
(0.0301253 -1.0423e-05 0)
(0.030108 1.42428e-06 0)
(0.0301546 3.59083e-06 0)
(0.0302726 4.92554e-06 0)
(0.0302716 -1.04025e-05 0)
(0.0302547 1.14089e-06 0)
(0.0303009 2.69414e-06 0)
(0.0304484 5.19511e-06 0)
(0.0304456 -1.0112e-05 0)
(0.0304292 9.37069e-07 0)
(0.0304745 2.37521e-06 0)
(0.0306576 5.28698e-06 0)
(0.0306524 -1.00107e-05 0)
(0.0306367 6.40945e-07 0)
(0.0306809 1.66796e-06 0)
(0.0309067 5.46995e-06 0)
(0.0308988 -9.68181e-06 0)
(0.0308838 4.38901e-07 0)
(0.0309262 1.08855e-06 0)
(0.0312029 5.492e-06 0)
(0.0311918 -9.51e-06 0)
(0.0311776 1.81035e-07 0)
(0.0312178 6.78929e-07 0)
(0.0315543 5.79859e-06 0)
(0.0315402 -9.26846e-06 0)
(0.0315274 -3.99668e-09 0)
(0.0315638 4.44954e-08 0)
(0.0295296 1.01214e-05 0)
(0.0295087 -1.0374e-05 0)
(0.0295391 -1.11994e-05 0)
(0.0295092 8.32308e-06 0)
(0.0295864 1.00848e-05 0)
(0.0295634 -1.03975e-05 0)
(0.0295907 -1.14719e-05 0)
(0.0295645 8.51193e-06 0)
(0.0296467 1.0218e-05 0)
(0.0296211 -1.0363e-05 0)
(0.0296455 -1.12377e-05 0)
(0.0296216 9.24367e-06 0)
(0.0297097 1.01993e-05 0)
(0.0296825 -1.02901e-05 0)
(0.0297055 -1.14666e-05 0)
(0.0296834 9.4186e-06 0)
(0.0297802 1.02972e-05 0)
(0.0297514 -1.02765e-05 0)
(0.0297725 -1.13846e-05 0)
(0.0297514 9.90915e-06 0)
(0.0298587 1.03979e-05 0)
(0.0298291 -1.0014e-05 0)
(0.0298489 -1.13882e-05 0)
(0.0298288 1.02673e-05 0)
(0.0299495 1.03996e-05 0)
(0.0299195 -1.01104e-05 0)
(0.0299374 -1.14903e-05 0)
(0.0299178 1.06347e-05 0)
(0.0300545 1.054e-05 0)
(0.0300248 -9.76393e-06 0)
(0.0300409 -1.14267e-05 0)
(0.030022 1.0935e-05 0)
(0.0301782 1.0539e-05 0)
(0.0301494 -9.84365e-06 0)
(0.0301631 -1.14996e-05 0)
(0.0301447 1.13253e-05 0)
(0.030324 1.06394e-05 0)
(0.0302966 -9.46055e-06 0)
(0.0303078 -1.14077e-05 0)
(0.03029 1.14858e-05 0)
(0.0304972 1.06441e-05 0)
(0.0304719 -9.53296e-06 0)
(0.0304798 -1.14002e-05 0)
(0.0304629 1.1914e-05 0)
(0.0307025 1.08116e-05 0)
(0.0306798 -9.10238e-06 0)
(0.0306842 -1.13426e-05 0)
(0.0306683 1.20409e-05 0)
(0.030947 1.05582e-05 0)
(0.0309278 -9.24498e-06 0)
(0.0309276 -1.1369e-05 0)
(0.0309131 1.22581e-05 0)
(0.0312369 1.08554e-05 0)
(0.0312217 -8.76969e-06 0)
(0.0312166 -1.11249e-05 0)
(0.0312036 1.2476e-05 0)
(0.0315814 1.0653e-05 0)
(0.0315716 -8.76651e-06 0)
(0.0315602 -1.1172e-05 0)
(0.0315486 1.24114e-05 0)
)
;

boundaryField
{
    topWall
    {
        type            calculated;
        value           nonuniform List<vector> 0();
    }
    botWall
    {
        type            calculated;
        value           nonuniform List<vector> 0();
    }
    inlet
    {
        type            cyclic;
    }
    outlet
    {
        type            cyclic;
    }
    fixWall
    {
        type            empty;
    }
    procBoundary2to1
    {
        type            processor;
        value           nonuniform List<vector> 8((0.0294201 3.12785e-06 0) (0.0294458 -1.11525e-05 0) (0.02943 3.31271e-06 0) (0.0294554 8.335e-06 0) (0.02947 1.00696e-05 0) (0.0294526 -1.01211e-05 0) (0.0294884 -1.10989e-05 0) (0.0294546 7.6423e-06 0));
    }
    procBoundary2to3
    {
        type            processor;
        value           nonuniform List<vector> 8((0.0319706 5.6717e-06 0) (0.0319544 -9.06618e-06 0) (0.0319429 -3.23682e-07 0) (0.0319712 -4.91281e-07 0) (0.0319859 1.05845e-05 0) (0.0319856 -8.4641e-06 0) (0.0319662 -1.07571e-05 0) (0.0319554 1.2379e-05 0));
    }
}


// ************************************************************************* //
