/*--------------------------------*- C++ -*----------------------------------*\
  =========                 |
  \\      /  F ield         | OpenFOAM: The Open Source CFD Toolbox
   \\    /   O peration     | Website:  https://openfoam.org
    \\  /    A nd           | Version:  dev
     \\/     M anipulation  |

   OpenFOAM for Windows 20.09 (v1)
   Built by CFD Support, www.cfdsupport.com (based on Symscape).
\*---------------------------------------------------------------------------*/
FoamFile
{
    version     2.0;
    format      ascii;
    class       volSymmTensorField;
    location    "10";
    object      UPrime2Mean;
}
// * * * * * * * * * * * * * * * * * * * * * * * * * * * * * * * * * * * * * //

dimensions      [0 2 -2 0 0 0 0];

internalField   nonuniform List<symmTensor> 
120
(
(0.000154231 -7.89711e-08 0 1.65966e-10 0 0)
(0.000154266 1.51016e-07 0 2.97597e-10 0 0)
(0.000153513 9.62125e-08 0 1.35516e-10 0 0)
(0.000153622 1.35622e-08 0 2.35469e-10 0 0)
(0.000156164 -8.22039e-08 0 1.73099e-10 0 0)
(0.000156232 1.5572e-07 0 3.05982e-10 0 0)
(0.000155578 1.00041e-07 0 1.43355e-10 0 0)
(0.00015574 1.188e-08 0 2.47867e-10 0 0)
(0.000158182 -8.38351e-08 0 1.78763e-10 0 0)
(0.000158275 1.5846e-07 0 3.09001e-10 0 0)
(0.00015771 1.01722e-07 0 1.49899e-10 0 0)
(0.000157935 9.69821e-09 0 2.58441e-10 0 0)
(0.000160364 -8.62679e-08 0 1.84702e-10 0 0)
(0.000160473 1.61194e-07 0 3.09704e-10 0 0)
(0.000159977 1.04454e-07 0 1.55886e-10 0 0)
(0.000160262 6.52303e-09 0 2.71e-10 0 0)
(0.000162738 -8.79366e-08 0 1.88967e-10 0 0)
(0.000162863 1.64515e-07 0 3.14518e-10 0 0)
(0.000162434 1.05938e-07 0 1.61042e-10 0 0)
(0.000162768 3.69347e-09 0 2.80096e-10 0 0)
(0.000165379 -9.11423e-08 0 1.98065e-10 0 0)
(0.000165518 1.66218e-07 0 3.09501e-10 0 0)
(0.000165143 1.06806e-07 0 1.63888e-10 0 0)
(0.000165516 -3.60694e-10 0 2.91229e-10 0 0)
(0.000168332 -9.32348e-08 0 2.04004e-10 0 0)
(0.00016849 1.68831e-07 0 3.09919e-10 0 0)
(0.000168173 1.08548e-07 0 1.67509e-10 0 0)
(0.000168569 -4.11882e-09 0 3.00178e-10 0 0)
(0.000171675 -9.7101e-08 0 2.11703e-10 0 0)
(0.000171849 1.71135e-07 0 3.06852e-10 0 0)
(0.000171589 1.08754e-07 0 1.69177e-10 0 0)
(0.000172 -7.67406e-09 0 3.10222e-10 0 0)
(0.000175461 -9.94301e-08 0 2.2148e-10 0 0)
(0.00017566 1.72629e-07 0 3.04476e-10 0 0)
(0.000175467 1.10057e-07 0 1.69573e-10 0 0)
(0.000175877 -1.25811e-08 0 3.19245e-10 0 0)
(0.000179777 -1.04089e-07 0 2.27753e-10 0 0)
(0.000179999 1.75484e-07 0 3.01768e-10 0 0)
(0.000179882 1.10103e-07 0 1.71994e-10 0 0)
(0.000180282 -1.49042e-08 0 3.29024e-10 0 0)
(0.000184686 -1.06891e-07 0 2.40535e-10 0 0)
(0.00018494 1.76035e-07 0 2.95385e-10 0 0)
(0.000184916 1.10796e-07 0 1.69415e-10 0 0)
(0.000185293 -2.06049e-08 0 3.38756e-10 0 0)
(0.000190285 -1.12113e-07 0 2.45939e-10 0 0)
(0.000190563 1.78757e-07 0 2.95329e-10 0 0)
(0.000190651 1.11267e-07 0 1.67649e-10 0 0)
(0.000190998 -2.14821e-08 0 3.32252e-10 0 0)
(0.000196644 -1.15939e-07 0 2.60786e-10 0 0)
(0.000196963 1.78296e-07 0 2.82789e-10 0 0)
(0.000197186 1.10725e-07 0 1.65883e-10 0 0)
(0.000197486 -2.77335e-08 0 3.60553e-10 0 0)
(0.000203872 -1.1955e-07 0 2.60541e-10 0 0)
(0.000204216 1.79808e-07 0 2.79747e-10 0 0)
(0.000204605 1.11423e-07 0 1.6052e-10 0 0)
(0.000204854 -2.78125e-08 0 3.35675e-10 0 0)
(0.000212042 -1.26661e-07 0 2.82266e-10 0 0)
(0.000212435 1.79529e-07 0 2.66827e-10 0 0)
(0.000213025 1.09929e-07 0 1.56295e-10 0 0)
(0.000213197 -3.12389e-08 0 3.51767e-10 0 0)
(0.00015397 2.42776e-08 0 8.23025e-11 0 0)
(0.000153968 -1.18583e-07 0 1.043e-10 0 0)
(0.000154094 7.06033e-09 0 1.00559e-10 0 0)
(0.000153932 -9.8205e-08 0 7.83349e-11 0 0)
(0.000156191 2.29602e-08 0 8.49826e-11 0 0)
(0.000156128 -1.21043e-07 0 1.081e-10 0 0)
(0.00015611 8.16102e-09 0 1.09673e-10 0 0)
(0.000155924 -9.82046e-08 0 7.95101e-11 0 0)
(0.000158459 2.08466e-08 0 8.63117e-11 0 0)
(0.000158341 -1.20317e-07 0 1.07425e-10 0 0)
(0.000158211 8.27498e-09 0 1.16469e-10 0 0)
(0.000157993 -9.96756e-08 0 8.31802e-11 0 0)
(0.000160841 1.98195e-08 0 8.80726e-11 0 0)
(0.000160668 -1.20715e-07 0 1.0894e-10 0 0)
(0.000160423 1.08178e-08 0 1.27116e-10 0 0)
(0.000160184 -9.89954e-08 0 8.44303e-11 0 0)
(0.000163385 1.71371e-08 0 8.85212e-11 0 0)
(0.000163168 -1.1896e-07 0 1.07873e-10 0 0)
(0.000162828 1.26761e-08 0 1.36424e-10 0 0)
(0.00016257 -9.93867e-08 0 8.63914e-11 0 0)
(0.000166156 1.6237e-08 0 9.02204e-11 0 0)
(0.000165901 -1.18423e-07 0 1.07638e-10 0 0)
(0.000165468 1.53826e-08 0 1.46571e-10 0 0)
(0.000165195 -9.97036e-08 0 8.88787e-11 0 0)
(0.000169216 1.45659e-08 0 9.02839e-11 0 0)
(0.000168935 -1.15219e-07 0 1.06416e-10 0 0)
(0.000168423 1.90946e-08 0 1.5946e-10 0 0)
(0.000168136 -1.00449e-07 0 9.03719e-11 0 0)
(0.000172637 1.30674e-08 0 9.11564e-11 0 0)
(0.000172336 -1.1429e-07 0 1.0535e-10 0 0)
(0.000171748 2.23164e-08 0 1.70333e-10 0 0)
(0.000171455 -1.00681e-07 0 9.25478e-11 0 0)
(0.00017649 1.21212e-08 0 9.12315e-11 0 0)
(0.000176176 -1.1025e-07 0 1.04297e-10 0 0)
(0.000175527 2.68952e-08 0 1.84005e-10 0 0)
(0.000175228 -1.0186e-07 0 9.44392e-11 0 0)
(0.000180856 1.04711e-08 0 9.07396e-11 0 0)
(0.000180535 -1.09169e-07 0 1.02465e-10 0 0)
(0.000179827 3.07496e-08 0 1.95847e-10 0 0)
(0.00017953 -1.02385e-07 0 9.55075e-11 0 0)
(0.000185813 9.94874e-09 0 9.06205e-11 0 0)
(0.000185489 -1.05005e-07 0 1.01829e-10 0 0)
(0.000184742 3.56755e-08 0 2.09377e-10 0 0)
(0.000184446 -1.03582e-07 0 9.85435e-11 0 0)
(0.000191456 9.31006e-09 0 9.10663e-11 0 0)
(0.000191134 -1.02854e-07 0 1.00974e-10 0 0)
(0.000190349 4.08341e-08 0 2.2349e-10 0 0)
(0.000190063 -1.04969e-07 0 1.00328e-10 0 0)
(0.000197862 8.96949e-09 0 8.63369e-11 0 0)
(0.000197539 -9.8751e-08 0 9.80014e-11 0 0)
(0.000196746 4.6528e-08 0 2.34802e-10 0 0)
(0.000196477 -1.07344e-07 0 9.97762e-11 0 0)
(0.000205144 9.33776e-09 0 8.87098e-11 0 0)
(0.000204818 -9.72142e-08 0 9.8992e-11 0 0)
(0.000204015 5.10843e-08 0 2.47753e-10 0 0)
(0.000203779 -1.07426e-07 0 1.05024e-10 0 0)
(0.00021337 9.10873e-09 0 8.24714e-11 0 0)
(0.000213026 -9.32575e-08 0 9.75093e-11 0 0)
(0.000212266 5.80029e-08 0 2.59818e-10 0 0)
(0.000212084 -1.10587e-07 0 1.02121e-10 0 0)
)
;

boundaryField
{
    topWall
    {
        type            calculated;
        value           nonuniform List<symmTensor> 0();
    }
    botWall
    {
        type            calculated;
        value           nonuniform List<symmTensor> 0();
    }
    inlet
    {
        type            cyclic;
    }
    outlet
    {
        type            cyclic;
    }
    fixWall
    {
        type            empty;
    }
    procBoundary2to1
    {
        type            processor;
        value           nonuniform List<symmTensor> 8((0.000152365 -7.66512e-08 0 1.60471e-10 0 0) (0.000152361 1.4781e-07 0 2.92604e-10 0 0) (0.00015146 9.15318e-08 0 1.25568e-10 0 0) (0.000151531 1.54093e-08 0 2.22254e-10 0 0) (0.000151788 2.36423e-08 0 7.79527e-11 0 0) (0.000151812 -1.17348e-07 0 1.01638e-10 0 0) (0.00015203 6.62437e-09 0 9.25517e-11 0 0) (0.00015192 -9.51189e-08 0 7.32852e-11 0 0));
    }
    procBoundary2to3
    {
        type            processor;
        value           nonuniform List<symmTensor> 8((0.000221274 -1.28235e-07 0 2.80169e-10 0 0) (0.000221669 1.7821e-07 0 2.4905e-10 0 0) (0.000222482 1.09304e-07 0 1.54476e-10 0 0) (0.000222631 -3.27947e-08 0 3.49833e-10 0 0) (0.000222746 9.94157e-09 0 7.93932e-11 0 0) (0.00022235 -9.21042e-08 0 9.64042e-11 0 0) (0.000221613 6.08671e-08 0 2.63125e-10 0 0) (0.000221506 -1.09773e-07 0 1.03297e-10 0 0));
    }
}


// ************************************************************************* //
