/*--------------------------------*- C++ -*----------------------------------*\
  =========                 |
  \\      /  F ield         | OpenFOAM: The Open Source CFD Toolbox
   \\    /   O peration     | Website:  https://openfoam.org
    \\  /    A nd           | Version:  dev
     \\/     M anipulation  |

   OpenFOAM for Windows 20.09 (v1)
   Built by CFD Support, www.cfdsupport.com (based on Symscape).
\*---------------------------------------------------------------------------*/
FoamFile
{
    version     2.0;
    format      ascii;
    class       volScalarField;
    location    "100";
    object      epsilon;
}
// * * * * * * * * * * * * * * * * * * * * * * * * * * * * * * * * * * * * * //

dimensions      [0 2 -3 0 0 0 0];

internalField   nonuniform List<scalar> 
1600
(
1.99907e-05
1.99907e-05
1.99907e-05
1.99907e-05
1.99907e-05
1.99907e-05
1.99907e-05
1.99907e-05
1.99907e-05
1.99908e-05
1.99909e-05
1.9991e-05
1.99912e-05
1.99913e-05
1.99914e-05
1.99914e-05
1.99915e-05
1.99916e-05
1.99916e-05
1.99916e-05
1.99916e-05
1.99917e-05
1.99917e-05
1.99917e-05
1.99917e-05
1.99917e-05
1.99917e-05
1.99917e-05
1.99917e-05
1.99917e-05
1.99916e-05
1.99915e-05
1.99913e-05
1.99911e-05
1.99909e-05
1.99908e-05
1.99907e-05
1.99906e-05
1.99906e-05
1.99907e-05
1.60048e-05
1.60051e-05
1.60052e-05
1.60051e-05
1.60051e-05
1.60051e-05
1.60051e-05
1.60051e-05
1.60051e-05
1.60051e-05
1.60051e-05
1.60052e-05
1.60052e-05
1.60053e-05
1.60053e-05
1.60053e-05
1.60053e-05
1.60054e-05
1.60054e-05
1.60054e-05
1.60054e-05
1.60054e-05
1.60054e-05
1.60054e-05
1.60054e-05
1.60054e-05
1.60054e-05
1.60054e-05
1.60054e-05
1.60054e-05
1.60054e-05
1.60054e-05
1.60053e-05
1.60052e-05
1.60052e-05
1.60051e-05
1.60051e-05
1.6005e-05
1.60051e-05
1.60048e-05
1.17727e-05
1.17728e-05
1.17728e-05
1.17728e-05
1.17728e-05
1.17728e-05
1.17727e-05
1.17727e-05
1.17727e-05
1.17727e-05
1.17727e-05
1.17727e-05
1.17727e-05
1.17728e-05
1.17728e-05
1.17728e-05
1.17728e-05
1.17728e-05
1.17729e-05
1.17729e-05
1.17729e-05
1.17729e-05
1.17729e-05
1.17729e-05
1.17729e-05
1.17729e-05
1.17729e-05
1.17729e-05
1.17729e-05
1.17729e-05
1.17729e-05
1.17729e-05
1.17729e-05
1.17728e-05
1.17727e-05
1.17727e-05
1.17727e-05
1.17726e-05
1.17727e-05
1.17726e-05
9.2194e-06
9.21941e-06
9.21936e-06
9.21934e-06
9.2193e-06
9.21928e-06
9.21929e-06
9.21929e-06
9.21928e-06
9.21924e-06
9.21919e-06
9.21916e-06
9.21917e-06
9.2192e-06
9.2192e-06
9.21921e-06
9.21922e-06
9.21923e-06
9.21925e-06
9.21925e-06
9.21925e-06
9.21926e-06
9.21927e-06
9.21927e-06
9.21929e-06
9.21929e-06
9.2193e-06
9.21929e-06
9.2193e-06
9.21931e-06
9.21931e-06
9.21931e-06
9.2193e-06
9.21924e-06
9.21916e-06
9.2191e-06
9.2191e-06
9.2191e-06
9.21911e-06
9.21915e-06
7.61528e-06
7.61526e-06
7.61519e-06
7.61516e-06
7.61508e-06
7.61508e-06
7.61509e-06
7.61508e-06
7.61506e-06
7.61503e-06
7.61494e-06
7.61486e-06
7.61487e-06
7.61487e-06
7.61489e-06
7.61489e-06
7.61491e-06
7.61493e-06
7.61494e-06
7.61492e-06
7.61492e-06
7.61493e-06
7.61495e-06
7.61497e-06
7.61496e-06
7.61499e-06
7.61497e-06
7.61497e-06
7.61499e-06
7.61498e-06
7.61499e-06
7.615e-06
7.615e-06
7.61493e-06
7.61485e-06
7.61482e-06
7.61482e-06
7.61482e-06
7.61483e-06
7.61489e-06
6.5598e-06
6.5598e-06
6.55974e-06
6.55963e-06
6.55954e-06
6.55955e-06
6.55953e-06
6.55952e-06
6.55953e-06
6.55948e-06
6.55935e-06
6.55925e-06
6.55923e-06
6.55928e-06
6.55927e-06
6.55928e-06
6.5593e-06
6.55931e-06
6.55928e-06
6.55929e-06
6.55929e-06
6.55931e-06
6.55932e-06
6.55935e-06
6.55936e-06
6.55934e-06
6.55936e-06
6.55937e-06
6.55935e-06
6.55935e-06
6.55938e-06
6.55939e-06
6.55936e-06
6.55931e-06
6.55924e-06
6.55925e-06
6.55926e-06
6.55923e-06
6.55926e-06
6.55931e-06
5.83893e-06
5.83892e-06
5.83884e-06
5.83871e-06
5.83861e-06
5.83857e-06
5.83855e-06
5.83855e-06
5.83854e-06
5.83848e-06
5.83834e-06
5.83821e-06
5.83822e-06
5.83824e-06
5.83824e-06
5.83826e-06
5.83827e-06
5.83826e-06
5.83823e-06
5.83826e-06
5.83826e-06
5.83827e-06
5.8383e-06
5.83833e-06
5.83831e-06
5.83833e-06
5.83834e-06
5.83832e-06
5.83832e-06
5.83833e-06
5.83833e-06
5.83835e-06
5.83831e-06
5.83831e-06
5.83825e-06
5.83827e-06
5.83826e-06
5.83825e-06
5.83825e-06
5.83834e-06
5.33258e-06
5.33253e-06
5.33246e-06
5.33234e-06
5.33221e-06
5.33213e-06
5.33209e-06
5.33208e-06
5.33205e-06
5.33198e-06
5.33185e-06
5.33171e-06
5.33173e-06
5.33173e-06
5.33174e-06
5.33176e-06
5.33177e-06
5.33171e-06
5.33173e-06
5.33175e-06
5.33175e-06
5.33177e-06
5.3318e-06
5.33181e-06
5.3318e-06
5.3318e-06
5.33183e-06
5.33181e-06
5.3318e-06
5.33182e-06
5.33183e-06
5.33183e-06
5.33184e-06
5.33181e-06
5.33182e-06
5.33178e-06
5.33178e-06
5.33175e-06
5.33178e-06
5.33192e-06
4.96975e-06
4.96975e-06
4.96969e-06
4.96957e-06
4.9694e-06
4.9693e-06
4.96925e-06
4.96921e-06
4.96917e-06
4.96909e-06
4.96895e-06
4.96882e-06
4.96883e-06
4.96881e-06
4.96885e-06
4.96887e-06
4.96886e-06
4.96881e-06
4.96886e-06
4.96883e-06
4.96887e-06
4.96886e-06
4.96888e-06
4.96888e-06
4.96889e-06
4.96891e-06
4.96893e-06
4.96892e-06
4.9689e-06
4.9689e-06
4.96893e-06
4.96895e-06
4.96892e-06
4.96895e-06
4.96891e-06
4.96891e-06
4.96892e-06
4.96889e-06
4.96891e-06
4.96907e-06
4.70667e-06
4.70662e-06
4.70655e-06
4.70639e-06
4.70622e-06
4.70611e-06
4.70604e-06
4.70599e-06
4.70591e-06
4.70583e-06
4.70569e-06
4.70557e-06
4.70552e-06
4.70553e-06
4.70561e-06
4.7056e-06
4.70555e-06
4.70561e-06
4.7056e-06
4.70561e-06
4.70559e-06
4.7056e-06
4.70561e-06
4.70563e-06
4.70566e-06
4.70568e-06
4.70565e-06
4.70563e-06
4.70563e-06
4.70568e-06
4.70565e-06
4.70568e-06
4.70568e-06
4.7057e-06
4.7057e-06
4.70571e-06
4.70571e-06
4.7057e-06
4.70563e-06
4.70582e-06
4.51461e-06
4.5146e-06
4.51453e-06
4.51435e-06
4.51418e-06
4.51407e-06
4.51397e-06
4.51389e-06
4.5138e-06
4.51371e-06
4.51358e-06
4.51345e-06
4.51338e-06
4.51344e-06
4.51346e-06
4.51344e-06
4.51348e-06
4.51351e-06
4.51346e-06
4.51349e-06
4.5135e-06
4.51349e-06
4.5135e-06
4.51352e-06
4.51354e-06
4.51358e-06
4.51353e-06
4.51356e-06
4.51357e-06
4.51356e-06
4.5136e-06
4.5136e-06
4.51364e-06
4.5136e-06
4.51362e-06
4.51364e-06
4.51363e-06
4.51354e-06
4.51356e-06
4.51367e-06
4.37441e-06
4.37449e-06
4.37443e-06
4.37424e-06
4.37409e-06
4.37395e-06
4.37383e-06
4.37372e-06
4.37363e-06
4.37354e-06
4.37342e-06
4.37328e-06
4.37321e-06
4.37326e-06
4.37327e-06
4.37328e-06
4.37331e-06
4.37335e-06
4.3733e-06
4.37336e-06
4.37332e-06
4.37332e-06
4.37334e-06
4.37338e-06
4.3734e-06
4.3734e-06
4.3734e-06
4.37343e-06
4.37345e-06
4.37347e-06
4.37348e-06
4.37348e-06
4.37347e-06
4.37347e-06
4.37347e-06
4.37348e-06
4.37339e-06
4.37335e-06
4.37342e-06
4.37345e-06
4.27279e-06
4.2729e-06
4.27284e-06
4.27265e-06
4.2725e-06
4.27234e-06
4.2722e-06
4.27208e-06
4.27198e-06
4.27189e-06
4.27178e-06
4.27164e-06
4.27157e-06
4.27162e-06
4.27163e-06
4.27165e-06
4.2717e-06
4.27167e-06
4.27173e-06
4.27171e-06
4.27168e-06
4.2717e-06
4.27171e-06
4.27172e-06
4.27173e-06
4.27174e-06
4.2718e-06
4.27182e-06
4.27182e-06
4.27184e-06
4.27183e-06
4.27185e-06
4.27184e-06
4.27179e-06
4.2718e-06
4.2718e-06
4.27171e-06
4.27176e-06
4.27174e-06
4.2718e-06
4.20004e-06
4.2001e-06
4.20004e-06
4.19989e-06
4.19973e-06
4.19954e-06
4.19938e-06
4.19926e-06
4.19916e-06
4.19907e-06
4.19897e-06
4.19883e-06
4.19876e-06
4.1988e-06
4.19881e-06
4.19886e-06
4.19886e-06
4.19891e-06
4.19894e-06
4.19889e-06
4.19891e-06
4.19889e-06
4.1989e-06
4.19892e-06
4.19891e-06
4.19895e-06
4.19899e-06
4.19895e-06
4.19898e-06
4.19902e-06
4.19901e-06
4.19902e-06
4.19899e-06
4.19893e-06
4.19899e-06
4.19897e-06
4.19891e-06
4.19896e-06
4.19898e-06
4.19905e-06
4.14875e-06
4.14887e-06
4.14884e-06
4.14874e-06
4.14854e-06
4.14834e-06
4.14817e-06
4.14805e-06
4.14795e-06
4.14786e-06
4.14777e-06
4.14763e-06
4.14755e-06
4.14758e-06
4.14764e-06
4.14764e-06
4.14768e-06
4.14772e-06
4.14772e-06
4.14773e-06
4.14769e-06
4.14772e-06
4.14773e-06
4.1477e-06
4.1477e-06
4.14773e-06
4.14772e-06
4.14774e-06
4.1478e-06
4.14776e-06
4.14776e-06
4.1478e-06
4.14776e-06
4.14776e-06
4.14777e-06
4.14773e-06
4.14775e-06
4.14776e-06
4.14776e-06
4.14781e-06
4.1138e-06
4.1138e-06
4.11375e-06
4.11364e-06
4.11344e-06
4.11325e-06
4.11309e-06
4.11296e-06
4.11287e-06
4.11278e-06
4.11269e-06
4.11256e-06
4.11247e-06
4.11251e-06
4.11251e-06
4.11256e-06
4.1126e-06
4.11261e-06
4.11261e-06
4.1126e-06
4.11264e-06
4.11259e-06
4.11265e-06
4.11261e-06
4.11263e-06
4.11264e-06
4.11263e-06
4.11267e-06
4.11267e-06
4.11265e-06
4.11271e-06
4.11271e-06
4.11263e-06
4.11265e-06
4.11267e-06
4.11262e-06
4.11267e-06
4.11264e-06
4.11266e-06
4.1128e-06
4.09061e-06
4.09058e-06
4.09053e-06
4.09038e-06
4.09022e-06
4.09004e-06
4.08988e-06
4.08976e-06
4.08967e-06
4.08958e-06
4.0895e-06
4.08937e-06
4.08928e-06
4.08927e-06
4.08935e-06
4.08934e-06
4.08935e-06
4.08937e-06
4.0894e-06
4.08943e-06
4.08937e-06
4.08943e-06
4.08942e-06
4.08944e-06
4.08946e-06
4.08944e-06
4.08944e-06
4.08944e-06
4.08947e-06
4.08949e-06
4.08951e-06
4.08944e-06
4.08941e-06
4.08946e-06
4.08944e-06
4.08947e-06
4.08941e-06
4.08942e-06
4.08944e-06
4.08964e-06
4.07602e-06
4.07595e-06
4.07589e-06
4.07575e-06
4.0756e-06
4.07544e-06
4.07529e-06
4.07518e-06
4.07509e-06
4.07501e-06
4.07492e-06
4.07481e-06
4.07469e-06
4.07473e-06
4.07473e-06
4.07474e-06
4.07476e-06
4.0748e-06
4.07479e-06
4.07481e-06
4.07483e-06
4.07484e-06
4.07482e-06
4.07485e-06
4.07484e-06
4.07486e-06
4.07484e-06
4.07488e-06
4.07488e-06
4.07487e-06
4.07489e-06
4.07484e-06
4.07488e-06
4.07483e-06
4.07487e-06
4.07483e-06
4.07484e-06
4.07483e-06
4.07488e-06
4.07507e-06
4.06759e-06
4.0675e-06
4.06743e-06
4.06729e-06
4.06718e-06
4.06702e-06
4.06688e-06
4.06678e-06
4.06669e-06
4.06661e-06
4.06653e-06
4.06642e-06
4.06632e-06
4.06632e-06
4.06632e-06
4.06635e-06
4.06636e-06
4.06639e-06
4.06641e-06
4.06638e-06
4.06639e-06
4.06638e-06
4.06642e-06
4.06638e-06
4.06643e-06
4.06645e-06
4.06648e-06
4.06644e-06
4.06644e-06
4.06648e-06
4.06648e-06
4.06649e-06
4.06645e-06
4.06647e-06
4.06645e-06
4.06645e-06
4.06642e-06
4.06646e-06
4.06647e-06
4.06665e-06
4.06365e-06
4.0636e-06
4.06348e-06
4.06343e-06
4.06332e-06
4.06317e-06
4.06303e-06
4.06294e-06
4.06286e-06
4.06278e-06
4.0627e-06
4.06259e-06
4.06249e-06
4.06246e-06
4.06249e-06
4.06251e-06
4.06253e-06
4.06254e-06
4.06253e-06
4.06253e-06
4.06254e-06
4.06255e-06
4.06255e-06
4.06256e-06
4.0626e-06
4.06264e-06
4.0626e-06
4.06259e-06
4.06264e-06
4.06261e-06
4.06265e-06
4.06263e-06
4.06263e-06
4.06259e-06
4.06259e-06
4.06259e-06
4.0626e-06
4.06258e-06
4.06259e-06
4.06274e-06
4.06363e-06
4.06359e-06
4.06348e-06
4.06345e-06
4.06331e-06
4.06315e-06
4.06302e-06
4.06293e-06
4.06286e-06
4.06279e-06
4.06271e-06
4.06259e-06
4.0625e-06
4.06245e-06
4.06249e-06
4.06251e-06
4.06251e-06
4.06253e-06
4.06256e-06
4.06257e-06
4.06256e-06
4.06257e-06
4.06257e-06
4.06259e-06
4.06263e-06
4.06264e-06
4.0626e-06
4.06263e-06
4.06263e-06
4.06265e-06
4.06264e-06
4.06259e-06
4.06263e-06
4.0626e-06
4.06261e-06
4.06263e-06
4.06257e-06
4.06256e-06
4.06254e-06
4.06275e-06
4.06751e-06
4.06746e-06
4.06741e-06
4.06732e-06
4.06713e-06
4.06697e-06
4.06685e-06
4.06677e-06
4.06671e-06
4.06663e-06
4.06655e-06
4.06643e-06
4.06633e-06
4.06629e-06
4.06634e-06
4.06635e-06
4.06636e-06
4.0664e-06
4.06639e-06
4.06642e-06
4.06641e-06
4.06641e-06
4.06643e-06
4.06649e-06
4.06648e-06
4.06649e-06
4.06645e-06
4.06648e-06
4.0665e-06
4.06645e-06
4.06648e-06
4.0665e-06
4.06648e-06
4.06648e-06
4.0665e-06
4.06648e-06
4.06641e-06
4.06639e-06
4.06638e-06
4.06662e-06
4.07596e-06
4.07592e-06
4.07586e-06
4.07568e-06
4.07549e-06
4.07533e-06
4.07523e-06
4.07516e-06
4.07509e-06
4.07502e-06
4.07493e-06
4.07481e-06
4.07471e-06
4.07469e-06
4.07477e-06
4.07475e-06
4.07476e-06
4.07478e-06
4.0748e-06
4.07481e-06
4.07479e-06
4.07482e-06
4.07487e-06
4.07489e-06
4.07488e-06
4.07484e-06
4.07489e-06
4.07491e-06
4.07485e-06
4.07489e-06
4.07492e-06
4.07487e-06
4.07488e-06
4.07488e-06
4.07492e-06
4.07485e-06
4.07488e-06
4.07486e-06
4.0748e-06
4.07504e-06
4.09052e-06
4.09049e-06
4.09042e-06
4.09022e-06
4.09004e-06
4.08989e-06
4.08978e-06
4.08971e-06
4.08964e-06
4.08956e-06
4.08948e-06
4.08936e-06
4.08926e-06
4.0893e-06
4.08931e-06
4.0893e-06
4.08932e-06
4.08934e-06
4.08936e-06
4.08937e-06
4.08939e-06
4.08942e-06
4.08943e-06
4.08942e-06
4.08942e-06
4.08945e-06
4.08947e-06
4.08946e-06
4.08943e-06
4.08946e-06
4.08944e-06
4.08946e-06
4.08944e-06
4.08949e-06
4.08944e-06
4.08947e-06
4.08945e-06
4.08944e-06
4.08932e-06
4.08957e-06
4.11365e-06
4.11365e-06
4.11357e-06
4.11338e-06
4.1132e-06
4.11305e-06
4.11294e-06
4.11286e-06
4.11279e-06
4.11272e-06
4.11263e-06
4.11252e-06
4.11244e-06
4.11249e-06
4.11249e-06
4.11248e-06
4.11251e-06
4.11253e-06
4.11255e-06
4.11258e-06
4.11261e-06
4.11256e-06
4.11262e-06
4.11263e-06
4.11259e-06
4.11263e-06
4.1126e-06
4.11262e-06
4.11257e-06
4.11262e-06
4.11259e-06
4.11262e-06
4.11263e-06
4.11263e-06
4.1126e-06
4.11265e-06
4.11261e-06
4.11259e-06
4.11244e-06
4.11268e-06
4.14866e-06
4.14864e-06
4.14857e-06
4.14844e-06
4.14825e-06
4.14809e-06
4.14797e-06
4.14788e-06
4.14781e-06
4.14775e-06
4.14767e-06
4.14755e-06
4.14749e-06
4.14754e-06
4.14754e-06
4.14755e-06
4.14757e-06
4.14759e-06
4.14763e-06
4.14767e-06
4.14761e-06
4.14765e-06
4.14768e-06
4.14764e-06
4.14764e-06
4.14763e-06
4.14768e-06
4.14765e-06
4.14766e-06
4.14761e-06
4.14763e-06
4.14763e-06
4.14764e-06
4.14767e-06
4.1477e-06
4.14766e-06
4.14768e-06
4.14756e-06
4.14744e-06
4.14767e-06
4.19978e-06
4.19979e-06
4.19974e-06
4.19961e-06
4.1994e-06
4.19924e-06
4.19912e-06
4.19903e-06
4.19896e-06
4.1989e-06
4.19883e-06
4.1987e-06
4.19865e-06
4.1987e-06
4.1987e-06
4.19871e-06
4.19873e-06
4.19878e-06
4.19879e-06
4.19877e-06
4.19877e-06
4.19879e-06
4.19882e-06
4.19884e-06
4.19884e-06
4.19886e-06
4.19885e-06
4.19878e-06
4.19882e-06
4.19877e-06
4.19877e-06
4.19882e-06
4.19882e-06
4.19883e-06
4.19884e-06
4.19881e-06
4.19883e-06
4.19866e-06
4.19858e-06
4.1988e-06
4.27253e-06
4.27259e-06
4.27254e-06
4.27235e-06
4.27215e-06
4.272e-06
4.27187e-06
4.27178e-06
4.27171e-06
4.27166e-06
4.27159e-06
4.27146e-06
4.27141e-06
4.27145e-06
4.27144e-06
4.27148e-06
4.27151e-06
4.27148e-06
4.27152e-06
4.2715e-06
4.27152e-06
4.27157e-06
4.27159e-06
4.2716e-06
4.27161e-06
4.27161e-06
4.27155e-06
4.2716e-06
4.27154e-06
4.27153e-06
4.27158e-06
4.27158e-06
4.27154e-06
4.27159e-06
4.27157e-06
4.2716e-06
4.27153e-06
4.27141e-06
4.27137e-06
4.27156e-06
4.37414e-06
4.37419e-06
4.37412e-06
4.37389e-06
4.37371e-06
4.37356e-06
4.37344e-06
4.37335e-06
4.37329e-06
4.37324e-06
4.37318e-06
4.37306e-06
4.373e-06
4.37298e-06
4.37303e-06
4.37306e-06
4.37304e-06
4.37306e-06
4.37307e-06
4.3731e-06
4.37312e-06
4.37312e-06
4.37313e-06
4.37317e-06
4.37314e-06
4.37316e-06
4.37318e-06
4.37313e-06
4.37311e-06
4.37312e-06
4.37317e-06
4.3731e-06
4.37315e-06
4.37316e-06
4.37315e-06
4.37316e-06
4.37309e-06
4.37303e-06
4.373e-06
4.3732e-06
4.51428e-06
4.51428e-06
4.51418e-06
4.51394e-06
4.51378e-06
4.51363e-06
4.51351e-06
4.51343e-06
4.51338e-06
4.51335e-06
4.5133e-06
4.51319e-06
4.5131e-06
4.51308e-06
4.51314e-06
4.51315e-06
4.51315e-06
4.51317e-06
4.51322e-06
4.51324e-06
4.51322e-06
4.51323e-06
4.51327e-06
4.51323e-06
4.51326e-06
4.51326e-06
4.51328e-06
4.51324e-06
4.51323e-06
4.51326e-06
4.51322e-06
4.51326e-06
4.51327e-06
4.51324e-06
4.51324e-06
4.51325e-06
4.51321e-06
4.51321e-06
4.51318e-06
4.51337e-06
4.70631e-06
4.70628e-06
4.70616e-06
4.70593e-06
4.70578e-06
4.70563e-06
4.70552e-06
4.70547e-06
4.70544e-06
4.70543e-06
4.70539e-06
4.70528e-06
4.70516e-06
4.70515e-06
4.70522e-06
4.70521e-06
4.70523e-06
4.70526e-06
4.70527e-06
4.70529e-06
4.70527e-06
4.70529e-06
4.7053e-06
4.70528e-06
4.70529e-06
4.70532e-06
4.70532e-06
4.70532e-06
4.70529e-06
4.70529e-06
4.70531e-06
4.70532e-06
4.70533e-06
4.7053e-06
4.7053e-06
4.70529e-06
4.70531e-06
4.70528e-06
4.70528e-06
4.70544e-06
4.9694e-06
4.96938e-06
4.96926e-06
4.96905e-06
4.96891e-06
4.96877e-06
4.96869e-06
4.96866e-06
4.96867e-06
4.96866e-06
4.96862e-06
4.96849e-06
4.96837e-06
4.9684e-06
4.96841e-06
4.96841e-06
4.96841e-06
4.96844e-06
4.96847e-06
4.96849e-06
4.96847e-06
4.96848e-06
4.96847e-06
4.96847e-06
4.9685e-06
4.96852e-06
4.96852e-06
4.96851e-06
4.96848e-06
4.96848e-06
4.9685e-06
4.9685e-06
4.96853e-06
4.96854e-06
4.9685e-06
4.96851e-06
4.9685e-06
4.96853e-06
4.96846e-06
4.96859e-06
5.3321e-06
5.33208e-06
5.33199e-06
5.33179e-06
5.33166e-06
5.33154e-06
5.3315e-06
5.33148e-06
5.33147e-06
5.33148e-06
5.33142e-06
5.33132e-06
5.33123e-06
5.33125e-06
5.33123e-06
5.33124e-06
5.33125e-06
5.33128e-06
5.33132e-06
5.33132e-06
5.33132e-06
5.33134e-06
5.33131e-06
5.33133e-06
5.33134e-06
5.33134e-06
5.33132e-06
5.33134e-06
5.3313e-06
5.33131e-06
5.33132e-06
5.33136e-06
5.33138e-06
5.33135e-06
5.33134e-06
5.33135e-06
5.33138e-06
5.33134e-06
5.33125e-06
5.33136e-06
5.83839e-06
5.83839e-06
5.83831e-06
5.83814e-06
5.83802e-06
5.83794e-06
5.8379e-06
5.83788e-06
5.83788e-06
5.83788e-06
5.83786e-06
5.83778e-06
5.8377e-06
5.83768e-06
5.83772e-06
5.83772e-06
5.83772e-06
5.83776e-06
5.83777e-06
5.83778e-06
5.83779e-06
5.83777e-06
5.83779e-06
5.83779e-06
5.83777e-06
5.83777e-06
5.83778e-06
5.83777e-06
5.83776e-06
5.83778e-06
5.8378e-06
5.83782e-06
5.8378e-06
5.8378e-06
5.83781e-06
5.83783e-06
5.83782e-06
5.83775e-06
5.83767e-06
5.83777e-06
6.55913e-06
6.55921e-06
6.55916e-06
6.55903e-06
6.55893e-06
6.55888e-06
6.55885e-06
6.55883e-06
6.55884e-06
6.55885e-06
6.55883e-06
6.55874e-06
6.55869e-06
6.55871e-06
6.55872e-06
6.55873e-06
6.55875e-06
6.55875e-06
6.55875e-06
6.55877e-06
6.55877e-06
6.55878e-06
6.55878e-06
6.55878e-06
6.55877e-06
6.55877e-06
6.55878e-06
6.55879e-06
6.5588e-06
6.55881e-06
6.55882e-06
6.55882e-06
6.55883e-06
6.55884e-06
6.55885e-06
6.55885e-06
6.55879e-06
6.55871e-06
6.55866e-06
6.55873e-06
7.61455e-06
7.61464e-06
7.61461e-06
7.61452e-06
7.61448e-06
7.61444e-06
7.61442e-06
7.6144e-06
7.6144e-06
7.61439e-06
7.61437e-06
7.61433e-06
7.61431e-06
7.61433e-06
7.61433e-06
7.61434e-06
7.61435e-06
7.61434e-06
7.61436e-06
7.61436e-06
7.61437e-06
7.61438e-06
7.61439e-06
7.6144e-06
7.61441e-06
7.61443e-06
7.61444e-06
7.61446e-06
7.61447e-06
7.61447e-06
7.61448e-06
7.61449e-06
7.6145e-06
7.6145e-06
7.6145e-06
7.61444e-06
7.61439e-06
7.61432e-06
7.61428e-06
7.61427e-06
9.21866e-06
9.21873e-06
9.21874e-06
9.21873e-06
9.21871e-06
9.21869e-06
9.21867e-06
9.21866e-06
9.21865e-06
9.21864e-06
9.21864e-06
9.21861e-06
9.21862e-06
9.21863e-06
9.21864e-06
9.21865e-06
9.21865e-06
9.21867e-06
9.21868e-06
9.2187e-06
9.21871e-06
9.21873e-06
9.21875e-06
9.21877e-06
9.21879e-06
9.2188e-06
9.21882e-06
9.21883e-06
9.21884e-06
9.21885e-06
9.21886e-06
9.21887e-06
9.21887e-06
9.21886e-06
9.21881e-06
9.21875e-06
9.21871e-06
9.21865e-06
9.21861e-06
9.21853e-06
1.17717e-05
1.1772e-05
1.17721e-05
1.17722e-05
1.17722e-05
1.17722e-05
1.17722e-05
1.17722e-05
1.17722e-05
1.17722e-05
1.17722e-05
1.17722e-05
1.17722e-05
1.17722e-05
1.17722e-05
1.17723e-05
1.17723e-05
1.17723e-05
1.17723e-05
1.17723e-05
1.17724e-05
1.17724e-05
1.17724e-05
1.17724e-05
1.17724e-05
1.17725e-05
1.17725e-05
1.17725e-05
1.17725e-05
1.17725e-05
1.17725e-05
1.17725e-05
1.17725e-05
1.17724e-05
1.17724e-05
1.17723e-05
1.17723e-05
1.17722e-05
1.17722e-05
1.17717e-05
1.60039e-05
1.60041e-05
1.60044e-05
1.60045e-05
1.60045e-05
1.60045e-05
1.60045e-05
1.60045e-05
1.60045e-05
1.60045e-05
1.60045e-05
1.60045e-05
1.60046e-05
1.60046e-05
1.60047e-05
1.60047e-05
1.60047e-05
1.60048e-05
1.60048e-05
1.60048e-05
1.60049e-05
1.60049e-05
1.60049e-05
1.60049e-05
1.60049e-05
1.60049e-05
1.60049e-05
1.6005e-05
1.6005e-05
1.6005e-05
1.6005e-05
1.60049e-05
1.60049e-05
1.60049e-05
1.60048e-05
1.60047e-05
1.60047e-05
1.60046e-05
1.60046e-05
1.60042e-05
1.99892e-05
1.99892e-05
1.99892e-05
1.99891e-05
1.9989e-05
1.99889e-05
1.99888e-05
1.99888e-05
1.99888e-05
1.99888e-05
1.99889e-05
1.9989e-05
1.99891e-05
1.99892e-05
1.99893e-05
1.99895e-05
1.99896e-05
1.99897e-05
1.99898e-05
1.99899e-05
1.999e-05
1.999e-05
1.99901e-05
1.99901e-05
1.99902e-05
1.99902e-05
1.99902e-05
1.99902e-05
1.99902e-05
1.99902e-05
1.99902e-05
1.99901e-05
1.999e-05
1.99898e-05
1.99896e-05
1.99894e-05
1.99893e-05
1.99892e-05
1.99892e-05
1.99893e-05
)
;

boundaryField
{
    bottomWall
    {
        type            epsilonWallFunction;
        value           nonuniform List<scalar> 
40
(
1.99907e-05
1.99907e-05
1.99907e-05
1.99907e-05
1.99907e-05
1.99907e-05
1.99907e-05
1.99907e-05
1.99907e-05
1.99908e-05
1.99909e-05
1.9991e-05
1.99912e-05
1.99913e-05
1.99914e-05
1.99914e-05
1.99915e-05
1.99916e-05
1.99916e-05
1.99916e-05
1.99916e-05
1.99917e-05
1.99917e-05
1.99917e-05
1.99917e-05
1.99917e-05
1.99917e-05
1.99917e-05
1.99917e-05
1.99917e-05
1.99916e-05
1.99915e-05
1.99913e-05
1.99911e-05
1.99909e-05
1.99908e-05
1.99907e-05
1.99906e-05
1.99906e-05
1.99907e-05
)
;
    }
    topWall
    {
        type            epsilonWallFunction;
        value           nonuniform List<scalar> 
40
(
1.99892e-05
1.99892e-05
1.99892e-05
1.99891e-05
1.9989e-05
1.99889e-05
1.99888e-05
1.99888e-05
1.99888e-05
1.99888e-05
1.99889e-05
1.9989e-05
1.99891e-05
1.99892e-05
1.99893e-05
1.99895e-05
1.99896e-05
1.99897e-05
1.99898e-05
1.99899e-05
1.999e-05
1.999e-05
1.99901e-05
1.99901e-05
1.99902e-05
1.99902e-05
1.99902e-05
1.99902e-05
1.99902e-05
1.99902e-05
1.99902e-05
1.99901e-05
1.999e-05
1.99898e-05
1.99896e-05
1.99894e-05
1.99893e-05
1.99892e-05
1.99892e-05
1.99893e-05
)
;
    }
    sides1_half0
    {
        type            empty;
    }
    sides1_half1
    {
        type            empty;
    }
    sides2_half0
    {
        type            empty;
    }
    sides2_half1
    {
        type            empty;
    }
    inout1_half0
    {
        type            cyclic;
    }
    inout1_half1
    {
        type            cyclic;
    }
    inout2_half0
    {
        type            cyclic;
    }
    inout2_half1
    {
        type            cyclic;
    }
}


// ************************************************************************* //
