/*--------------------------------*- C++ -*----------------------------------*\
  =========                 |
  \\      /  F ield         | OpenFOAM: The Open Source CFD Toolbox
   \\    /   O peration     | Website:  https://openfoam.org
    \\  /    A nd           | Version:  dev
     \\/     M anipulation  |

   OpenFOAM for Windows 20.09 (v1)
   Built by CFD Support, www.cfdsupport.com (based on Symscape).
\*---------------------------------------------------------------------------*/
FoamFile
{
    version     2.0;
    format      ascii;
    class       volScalarField;
    location    "100";
    object      k;
}
// * * * * * * * * * * * * * * * * * * * * * * * * * * * * * * * * * * * * * //

dimensions      [0 2 -2 0 0 0 0];

internalField   nonuniform List<scalar> 
1600
(
0.000149094
0.000149094
0.000149094
0.000149094
0.000149094
0.000149094
0.000149094
0.000149094
0.000149094
0.000149095
0.000149095
0.000149096
0.000149097
0.000149098
0.000149099
0.000149099
0.0001491
0.0001491
0.000149101
0.000149101
0.000149101
0.000149101
0.000149101
0.000149101
0.000149101
0.000149101
0.000149101
0.000149101
0.000149101
0.000149101
0.000149101
0.0001491
0.000149099
0.000149097
0.000149096
0.000149095
0.000149094
0.000149094
0.000149093
0.000149094
0.000245397
0.000245397
0.000245396
0.000245396
0.000245396
0.000245396
0.000245396
0.000245397
0.000245397
0.000245398
0.000245399
0.0002454
0.000245401
0.000245402
0.000245403
0.000245403
0.000245404
0.000245404
0.000245404
0.000245405
0.000245405
0.000245405
0.000245405
0.000245405
0.000245405
0.000245405
0.000245405
0.000245405
0.000245405
0.000245405
0.000245405
0.000245405
0.000245404
0.000245402
0.0002454
0.000245398
0.000245397
0.000245397
0.000245396
0.000245397
0.000263522
0.000263523
0.000263524
0.000263524
0.000263524
0.000263524
0.000263524
0.000263524
0.000263524
0.000263525
0.000263526
0.000263528
0.000263529
0.00026353
0.000263531
0.000263532
0.000263532
0.000263533
0.000263533
0.000263533
0.000263534
0.000263534
0.000263534
0.000263534
0.000263534
0.000263534
0.000263534
0.000263534
0.000263535
0.000263535
0.000263535
0.000263534
0.000263533
0.000263531
0.000263529
0.000263526
0.000263525
0.000263523
0.000263523
0.000263524
0.000272785
0.000272787
0.000272788
0.000272788
0.000272788
0.000272788
0.000272788
0.000272788
0.000272788
0.000272789
0.000272791
0.000272792
0.000272793
0.000272794
0.000272795
0.000272796
0.000272797
0.000272797
0.000272798
0.000272798
0.000272798
0.000272799
0.000272799
0.000272799
0.000272799
0.000272799
0.000272799
0.000272799
0.0002728
0.0002728
0.0002728
0.000272799
0.000272799
0.000272797
0.000272794
0.000272791
0.000272789
0.000272787
0.000272786
0.000272787
0.000279932
0.000279933
0.000279935
0.000279935
0.000279935
0.000279935
0.000279936
0.000279936
0.000279936
0.000279937
0.000279938
0.00027994
0.000279941
0.000279942
0.000279943
0.000279944
0.000279944
0.000279945
0.000279945
0.000279946
0.000279946
0.000279946
0.000279946
0.000279947
0.000279947
0.000279947
0.000279947
0.000279947
0.000279948
0.000279948
0.000279948
0.000279948
0.000279947
0.000279945
0.000279942
0.000279939
0.000279936
0.000279934
0.000279933
0.000279934
0.000286497
0.000286501
0.000286502
0.000286503
0.000286503
0.000286503
0.000286503
0.000286504
0.000286504
0.000286505
0.000286506
0.000286507
0.000286508
0.000286509
0.00028651
0.000286511
0.000286511
0.000286512
0.000286512
0.000286513
0.000286513
0.000286513
0.000286513
0.000286514
0.000286514
0.000286514
0.000286514
0.000286514
0.000286515
0.000286515
0.000286515
0.000286515
0.000286515
0.000286513
0.00028651
0.000286506
0.000286503
0.000286501
0.0002865
0.000286499
0.000292887
0.000292889
0.00029289
0.00029289
0.000292891
0.000292891
0.000292891
0.000292891
0.000292891
0.000292892
0.000292893
0.000292894
0.000292895
0.000292896
0.000292897
0.000292897
0.000292898
0.000292898
0.000292898
0.000292899
0.000292899
0.000292899
0.000292899
0.0002929
0.0002929
0.0002929
0.0002929
0.000292901
0.000292901
0.000292901
0.000292901
0.000292901
0.000292901
0.0002929
0.000292897
0.000292893
0.000292889
0.000292887
0.000292886
0.000292885
0.000299181
0.000299183
0.000299184
0.000299184
0.000299184
0.000299184
0.000299184
0.000299185
0.000299185
0.000299185
0.000299186
0.000299187
0.000299187
0.000299188
0.000299189
0.000299189
0.00029919
0.00029919
0.00029919
0.000299191
0.000299191
0.000299191
0.000299191
0.000299192
0.000299192
0.000299192
0.000299192
0.000299192
0.000299193
0.000299193
0.000299193
0.000299193
0.000299194
0.000299193
0.00029919
0.000299185
0.000299181
0.000299178
0.000299177
0.000299177
0.000305371
0.000305374
0.000305374
0.000305374
0.000305374
0.000305374
0.000305375
0.000305375
0.000305375
0.000305375
0.000305375
0.000305376
0.000305377
0.000305377
0.000305377
0.000305378
0.000305378
0.000305378
0.000305379
0.000305379
0.000305379
0.000305379
0.00030538
0.00030538
0.00030538
0.00030538
0.000305381
0.000305381
0.000305381
0.000305381
0.000305382
0.000305382
0.000305382
0.000305382
0.000305379
0.000305374
0.00030537
0.000305367
0.000305365
0.000305366
0.000311417
0.00031142
0.00031142
0.00031142
0.00031142
0.000311421
0.000311421
0.000311421
0.000311421
0.000311421
0.000311421
0.000311422
0.000311422
0.000311422
0.000311423
0.000311423
0.000311423
0.000311423
0.000311424
0.000311424
0.000311424
0.000311424
0.000311425
0.000311425
0.000311425
0.000311425
0.000311426
0.000311426
0.000311426
0.000311426
0.000311426
0.000311427
0.000311427
0.000311427
0.000311424
0.000311419
0.000311414
0.000311411
0.00031141
0.000311411
0.000317269
0.000317271
0.000317272
0.000317271
0.000317272
0.000317272
0.000317272
0.000317272
0.000317272
0.000317272
0.000317272
0.000317273
0.000317273
0.000317273
0.000317273
0.000317274
0.000317274
0.000317274
0.000317274
0.000317275
0.000317275
0.000317275
0.000317275
0.000317276
0.000317276
0.000317276
0.000317276
0.000317276
0.000317277
0.000317277
0.000317277
0.000317277
0.000317278
0.000317277
0.000317275
0.00031727
0.000317265
0.000317261
0.00031726
0.000317261
0.000322869
0.000322872
0.000322872
0.000322872
0.000322872
0.000322872
0.000322872
0.000322872
0.000322872
0.000322872
0.000322873
0.000322873
0.000322873
0.000322873
0.000322874
0.000322874
0.000322874
0.000322874
0.000322874
0.000322875
0.000322875
0.000322875
0.000322875
0.000322876
0.000322876
0.000322876
0.000322876
0.000322876
0.000322877
0.000322877
0.000322877
0.000322877
0.000322878
0.000322877
0.000322875
0.00032287
0.000322865
0.000322861
0.00032286
0.000322861
0.000328158
0.000328161
0.000328161
0.000328161
0.000328161
0.000328161
0.000328161
0.000328161
0.000328161
0.000328162
0.000328162
0.000328162
0.000328162
0.000328163
0.000328163
0.000328163
0.000328163
0.000328163
0.000328164
0.000328164
0.000328164
0.000328164
0.000328165
0.000328165
0.000328165
0.000328165
0.000328165
0.000328165
0.000328166
0.000328166
0.000328166
0.000328167
0.000328167
0.000328167
0.000328164
0.000328159
0.000328154
0.00032815
0.000328149
0.00032815
0.000333073
0.000333075
0.000333075
0.000333075
0.000333075
0.000333075
0.000333075
0.000333075
0.000333075
0.000333075
0.000333075
0.000333076
0.000333076
0.000333076
0.000333076
0.000333077
0.000333077
0.000333077
0.000333077
0.000333077
0.000333078
0.000333078
0.000333078
0.000333078
0.000333078
0.000333079
0.000333079
0.000333079
0.000333079
0.00033308
0.00033308
0.00033308
0.000333081
0.00033308
0.000333077
0.000333073
0.000333068
0.000333064
0.000333062
0.000333064
0.000337542
0.000337544
0.000337544
0.000337544
0.000337544
0.000337544
0.000337544
0.000337544
0.000337544
0.000337544
0.000337544
0.000337545
0.000337545
0.000337545
0.000337545
0.000337545
0.000337545
0.000337546
0.000337546
0.000337546
0.000337546
0.000337546
0.000337547
0.000337547
0.000337547
0.000337547
0.000337548
0.000337548
0.000337548
0.000337548
0.000337549
0.000337549
0.000337549
0.000337548
0.000337546
0.000337542
0.000337538
0.000337534
0.000337531
0.000337533
0.000341492
0.000341493
0.000341493
0.000341493
0.000341493
0.000341493
0.000341493
0.000341493
0.000341493
0.000341493
0.000341494
0.000341494
0.000341494
0.000341494
0.000341494
0.000341494
0.000341494
0.000341494
0.000341495
0.000341495
0.000341495
0.000341495
0.000341495
0.000341496
0.000341496
0.000341496
0.000341496
0.000341497
0.000341497
0.000341497
0.000341497
0.000341497
0.000341497
0.000341497
0.000341495
0.000341492
0.000341488
0.000341483
0.000341481
0.000341483
0.00034484
0.000344842
0.000344842
0.000344842
0.000344841
0.000344841
0.000344842
0.000344842
0.000344842
0.000344842
0.000344842
0.000344842
0.000344842
0.000344842
0.000344842
0.000344842
0.000344842
0.000344842
0.000344842
0.000344843
0.000344843
0.000344843
0.000344843
0.000344844
0.000344844
0.000344844
0.000344844
0.000344844
0.000344844
0.000344844
0.000344844
0.000344844
0.000344844
0.000344844
0.000344844
0.000344841
0.000344837
0.000344833
0.00034483
0.000344831
0.000347501
0.000347502
0.000347502
0.000347501
0.000347501
0.000347501
0.000347501
0.000347501
0.000347501
0.000347502
0.000347501
0.000347502
0.000347502
0.000347502
0.000347502
0.000347502
0.000347502
0.000347502
0.000347502
0.000347502
0.000347502
0.000347503
0.000347503
0.000347503
0.000347503
0.000347503
0.000347503
0.000347503
0.000347503
0.000347503
0.000347503
0.000347503
0.000347504
0.000347504
0.000347503
0.000347501
0.000347497
0.000347493
0.00034749
0.000347492
0.000349378
0.000349378
0.000349379
0.000349378
0.000349378
0.000349378
0.000349378
0.000349378
0.000349378
0.000349378
0.000349378
0.000349378
0.000349378
0.000349378
0.000349378
0.000349378
0.000349378
0.000349379
0.000349379
0.000349379
0.000349379
0.000349379
0.000349379
0.000349379
0.000349379
0.000349379
0.000349379
0.000349379
0.000349379
0.000349379
0.00034938
0.00034938
0.00034938
0.00034938
0.00034938
0.000349378
0.000349375
0.00034937
0.000349368
0.000349369
0.00035037
0.000350371
0.000350371
0.00035037
0.00035037
0.00035037
0.00035037
0.00035037
0.00035037
0.00035037
0.00035037
0.00035037
0.00035037
0.00035037
0.000350371
0.000350371
0.000350371
0.000350371
0.000350371
0.000350371
0.000350371
0.000350371
0.000350371
0.000350371
0.000350371
0.000350371
0.000350371
0.000350371
0.000350372
0.000350372
0.000350372
0.000350372
0.000350373
0.000350373
0.000350373
0.000350371
0.000350367
0.000350363
0.00035036
0.000350362
0.00035037
0.00035037
0.00035037
0.000350369
0.000350369
0.000350369
0.000350369
0.00035037
0.000350369
0.00035037
0.00035037
0.00035037
0.00035037
0.00035037
0.00035037
0.00035037
0.00035037
0.000350371
0.000350371
0.000350371
0.000350371
0.000350371
0.000350371
0.000350371
0.000350371
0.000350371
0.000350371
0.000350371
0.000350371
0.000350371
0.000350372
0.000350372
0.000350372
0.000350372
0.000350372
0.000350371
0.000350367
0.000350363
0.00035036
0.000350361
0.000349376
0.000349377
0.000349377
0.000349376
0.000349376
0.000349376
0.000349376
0.000349376
0.000349376
0.000349376
0.000349377
0.000349376
0.000349376
0.000349377
0.000349377
0.000349377
0.000349377
0.000349377
0.000349377
0.000349377
0.000349377
0.000349377
0.000349377
0.000349377
0.000349377
0.000349377
0.000349378
0.000349378
0.000349378
0.000349378
0.000349378
0.000349379
0.000349379
0.000349379
0.000349379
0.000349377
0.000349373
0.000349369
0.000349366
0.000349367
0.000347497
0.000347498
0.000347499
0.000347498
0.000347498
0.000347498
0.000347498
0.000347498
0.000347498
0.000347498
0.000347498
0.000347498
0.000347498
0.000347499
0.000347499
0.000347499
0.000347499
0.000347499
0.000347499
0.000347499
0.000347499
0.000347499
0.000347499
0.000347499
0.000347499
0.000347499
0.0003475
0.0003475
0.0003475
0.0003475
0.000347501
0.000347501
0.000347501
0.000347501
0.000347501
0.000347499
0.000347494
0.00034749
0.000347487
0.000347489
0.000344836
0.000344837
0.000344837
0.000344837
0.000344836
0.000344837
0.000344837
0.000344837
0.000344837
0.000344837
0.000344837
0.000344837
0.000344837
0.000344837
0.000344837
0.000344837
0.000344837
0.000344837
0.000344837
0.000344838
0.000344838
0.000344838
0.000344838
0.000344838
0.000344838
0.000344838
0.000344839
0.000344839
0.000344839
0.000344839
0.00034484
0.00034484
0.00034484
0.00034484
0.000344839
0.000344837
0.000344832
0.000344828
0.000344825
0.000344827
0.000341485
0.000341486
0.000341486
0.000341486
0.000341486
0.000341486
0.000341486
0.000341486
0.000341486
0.000341487
0.000341486
0.000341487
0.000341487
0.000341487
0.000341487
0.000341487
0.000341487
0.000341487
0.000341487
0.000341488
0.000341488
0.000341488
0.000341487
0.000341487
0.000341488
0.000341488
0.000341488
0.000341489
0.000341489
0.000341489
0.000341489
0.00034149
0.00034149
0.00034149
0.000341489
0.000341486
0.000341481
0.000341477
0.000341475
0.000341476
0.000337533
0.000337535
0.000337534
0.000337534
0.000337535
0.000337535
0.000337535
0.000337534
0.000337535
0.000337535
0.000337535
0.000337535
0.000337535
0.000337535
0.000337535
0.000337535
0.000337535
0.000337536
0.000337536
0.000337536
0.000337536
0.000337536
0.000337536
0.000337536
0.000337536
0.000337537
0.000337537
0.000337537
0.000337538
0.000337538
0.000337538
0.000337538
0.000337538
0.000337538
0.000337537
0.000337534
0.000337529
0.000337525
0.000337523
0.000337524
0.000333061
0.000333063
0.000333063
0.000333063
0.000333063
0.000333063
0.000333063
0.000333063
0.000333063
0.000333063
0.000333064
0.000333064
0.000333064
0.000333064
0.000333064
0.000333064
0.000333064
0.000333064
0.000333064
0.000333064
0.000333064
0.000333064
0.000333064
0.000333064
0.000333065
0.000333065
0.000333065
0.000333066
0.000333066
0.000333066
0.000333066
0.000333066
0.000333066
0.000333066
0.000333065
0.000333062
0.000333058
0.000333054
0.000333051
0.000333053
0.000328145
0.000328147
0.000328147
0.000328146
0.000328146
0.000328146
0.000328146
0.000328146
0.000328147
0.000328147
0.000328147
0.000328147
0.000328147
0.000328147
0.000328147
0.000328147
0.000328147
0.000328147
0.000328147
0.000328147
0.000328147
0.000328147
0.000328147
0.000328148
0.000328148
0.000328148
0.000328148
0.000328149
0.000328149
0.000328149
0.000328149
0.000328149
0.000328149
0.000328149
0.000328149
0.000328146
0.000328142
0.000328138
0.000328135
0.000328137
0.000322853
0.000322855
0.000322855
0.000322854
0.000322854
0.000322854
0.000322854
0.000322854
0.000322854
0.000322854
0.000322855
0.000322855
0.000322855
0.000322855
0.000322855
0.000322855
0.000322855
0.000322855
0.000322855
0.000322855
0.000322855
0.000322855
0.000322856
0.000322856
0.000322856
0.000322856
0.000322856
0.000322857
0.000322857
0.000322857
0.000322857
0.000322857
0.000322858
0.000322858
0.000322857
0.000322855
0.000322851
0.000322847
0.000322844
0.000322845
0.000317251
0.000317251
0.000317251
0.000317251
0.000317251
0.00031725
0.000317251
0.000317251
0.000317251
0.000317251
0.000317251
0.000317251
0.000317251
0.000317251
0.000317252
0.000317252
0.000317252
0.000317252
0.000317252
0.000317252
0.000317253
0.000317253
0.000317253
0.000317254
0.000317254
0.000317254
0.000317254
0.000317255
0.000317255
0.000317255
0.000317255
0.000317255
0.000317256
0.000317256
0.000317256
0.000317254
0.00031725
0.000317245
0.000317243
0.000317244
0.000311398
0.000311397
0.000311397
0.000311397
0.000311396
0.000311396
0.000311396
0.000311396
0.000311396
0.000311397
0.000311397
0.000311397
0.000311397
0.000311398
0.000311398
0.000311399
0.000311399
0.000311399
0.0003114
0.0003114
0.0003114
0.000311401
0.000311401
0.000311402
0.000311402
0.000311402
0.000311402
0.000311403
0.000311403
0.000311403
0.000311404
0.000311404
0.000311404
0.000311404
0.000311404
0.000311402
0.000311398
0.000311394
0.000311391
0.000311392
0.000305348
0.000305347
0.000305347
0.000305347
0.000305347
0.000305347
0.000305348
0.000305348
0.000305348
0.000305348
0.000305348
0.000305349
0.00030535
0.000305351
0.000305351
0.000305352
0.000305352
0.000305353
0.000305353
0.000305354
0.000305354
0.000305355
0.000305355
0.000305356
0.000305356
0.000305357
0.000305357
0.000305357
0.000305358
0.000305358
0.000305358
0.000305358
0.000305359
0.000305359
0.000305359
0.000305356
0.000305352
0.000305348
0.000305345
0.000305346
0.00029915
0.000299152
0.000299154
0.000299155
0.000299155
0.000299156
0.000299156
0.000299156
0.000299156
0.000299157
0.000299158
0.000299159
0.00029916
0.000299161
0.000299162
0.000299162
0.000299163
0.000299164
0.000299164
0.000299165
0.000299165
0.000299166
0.000299167
0.000299167
0.000299168
0.000299168
0.000299168
0.000299169
0.000299169
0.000299169
0.00029917
0.00029917
0.00029917
0.00029917
0.00029917
0.000299167
0.000299163
0.000299159
0.000299157
0.000299155
0.000292856
0.000292858
0.000292859
0.00029286
0.000292861
0.000292862
0.000292862
0.000292862
0.000292863
0.000292863
0.000292864
0.000292866
0.000292867
0.000292868
0.000292869
0.00029287
0.000292871
0.000292871
0.000292872
0.000292873
0.000292874
0.000292874
0.000292875
0.000292876
0.000292876
0.000292877
0.000292877
0.000292877
0.000292878
0.000292878
0.000292878
0.000292879
0.000292879
0.000292879
0.000292878
0.000292874
0.000292871
0.000292867
0.000292866
0.000292864
0.000286472
0.000286472
0.000286473
0.000286474
0.000286475
0.000286475
0.000286475
0.000286476
0.000286476
0.000286477
0.000286478
0.000286479
0.000286481
0.000286482
0.000286483
0.000286484
0.000286485
0.000286486
0.000286487
0.000286488
0.000286488
0.000286489
0.00028649
0.00028649
0.000286491
0.000286492
0.000286492
0.000286492
0.000286493
0.000286493
0.000286493
0.000286493
0.000286493
0.000286493
0.000286491
0.000286488
0.000286485
0.000286482
0.000286481
0.000286479
0.000279908
0.000279908
0.000279909
0.000279909
0.000279909
0.000279909
0.000279909
0.00027991
0.00027991
0.000279911
0.000279912
0.000279913
0.000279915
0.000279916
0.000279917
0.000279918
0.000279919
0.00027992
0.000279921
0.000279922
0.000279923
0.000279924
0.000279925
0.000279925
0.000279926
0.000279926
0.000279927
0.000279927
0.000279927
0.000279928
0.000279928
0.000279928
0.000279928
0.000279927
0.000279925
0.000279922
0.000279919
0.000279917
0.000279916
0.000279915
0.000272766
0.000272766
0.000272765
0.000272765
0.000272764
0.000272764
0.000272764
0.000272764
0.000272765
0.000272765
0.000272767
0.000272768
0.000272769
0.000272771
0.000272772
0.000272773
0.000272774
0.000272775
0.000272776
0.000272777
0.000272778
0.000272778
0.000272779
0.00027278
0.00027278
0.000272781
0.000272781
0.000272781
0.000272782
0.000272782
0.000272782
0.000272782
0.000272781
0.00027278
0.000272778
0.000272776
0.000272774
0.000272771
0.000272771
0.00027277
0.000263509
0.000263508
0.000263507
0.000263506
0.000263505
0.000263504
0.000263504
0.000263504
0.000263504
0.000263505
0.000263506
0.000263507
0.000263509
0.00026351
0.000263511
0.000263512
0.000263513
0.000263514
0.000263515
0.000263516
0.000263516
0.000263517
0.000263517
0.000263518
0.000263518
0.000263519
0.000263519
0.000263519
0.000263519
0.00026352
0.00026352
0.000263519
0.000263519
0.000263518
0.000263516
0.000263514
0.000263512
0.00026351
0.00026351
0.00026351
0.000245387
0.000245386
0.000245385
0.000245384
0.000245382
0.000245382
0.000245382
0.000245382
0.000245382
0.000245382
0.000245383
0.000245384
0.000245385
0.000245386
0.000245387
0.000245388
0.000245389
0.00024539
0.00024539
0.000245391
0.000245392
0.000245392
0.000245393
0.000245393
0.000245393
0.000245393
0.000245394
0.000245394
0.000245394
0.000245394
0.000245394
0.000245394
0.000245393
0.000245392
0.000245391
0.000245389
0.000245388
0.000245387
0.000245386
0.000245387
0.000149083
0.000149083
0.000149083
0.000149082
0.000149081
0.00014908
0.00014908
0.00014908
0.00014908
0.00014908
0.00014908
0.000149081
0.000149082
0.000149083
0.000149084
0.000149085
0.000149085
0.000149086
0.000149087
0.000149088
0.000149088
0.000149089
0.000149089
0.00014909
0.00014909
0.00014909
0.00014909
0.00014909
0.00014909
0.00014909
0.00014909
0.00014909
0.000149089
0.000149088
0.000149086
0.000149085
0.000149084
0.000149083
0.000149083
0.000149083
)
;

boundaryField
{
    bottomWall
    {
        type            kqRWallFunction;
        value           nonuniform List<scalar> 
40
(
0.000149094
0.000149094
0.000149094
0.000149094
0.000149094
0.000149094
0.000149094
0.000149094
0.000149094
0.000149095
0.000149095
0.000149096
0.000149097
0.000149098
0.000149099
0.000149099
0.0001491
0.0001491
0.000149101
0.000149101
0.000149101
0.000149101
0.000149101
0.000149101
0.000149101
0.000149101
0.000149101
0.000149101
0.000149101
0.000149101
0.000149101
0.0001491
0.000149099
0.000149097
0.000149096
0.000149095
0.000149094
0.000149094
0.000149093
0.000149094
)
;
    }
    topWall
    {
        type            kqRWallFunction;
        value           nonuniform List<scalar> 
40
(
0.000149083
0.000149083
0.000149083
0.000149082
0.000149081
0.00014908
0.00014908
0.00014908
0.00014908
0.00014908
0.00014908
0.000149081
0.000149082
0.000149083
0.000149084
0.000149085
0.000149085
0.000149086
0.000149087
0.000149088
0.000149088
0.000149089
0.000149089
0.00014909
0.00014909
0.00014909
0.00014909
0.00014909
0.00014909
0.00014909
0.00014909
0.00014909
0.000149089
0.000149088
0.000149086
0.000149085
0.000149084
0.000149083
0.000149083
0.000149083
)
;
    }
    sides1_half0
    {
        type            empty;
    }
    sides1_half1
    {
        type            empty;
    }
    sides2_half0
    {
        type            empty;
    }
    sides2_half1
    {
        type            empty;
    }
    inout1_half0
    {
        type            cyclic;
    }
    inout1_half1
    {
        type            cyclic;
    }
    inout2_half0
    {
        type            cyclic;
    }
    inout2_half1
    {
        type            cyclic;
    }
}


// ************************************************************************* //
