/*--------------------------------*- C++ -*----------------------------------*\
  =========                 |
  \\      /  F ield         | OpenFOAM: The Open Source CFD Toolbox
   \\    /   O peration     | Website:  https://openfoam.org
    \\  /    A nd           | Version:  dev
     \\/     M anipulation  |

   OpenFOAM for Windows 20.09 (v1)
   Built by CFD Support, www.cfdsupport.com (based on Symscape).
\*---------------------------------------------------------------------------*/
FoamFile
{
    version     2.0;
    format      ascii;
    class       volScalarField;
    location    "100";
    object      nut;
}
// * * * * * * * * * * * * * * * * * * * * * * * * * * * * * * * * * * * * * //

dimensions      [0 2 -1 0 0 0 0];

internalField   nonuniform List<scalar> 
1600
(
0.000100077
0.000100077
0.000100077
0.000100077
0.000100077
0.000100077
0.000100077
0.000100077
0.000100077
0.000100077
0.000100078
0.000100079
0.000100079
0.00010008
0.00010008
0.000100081
0.000100081
0.000100081
0.000100081
0.000100082
0.000100082
0.000100082
0.000100082
0.000100082
0.000100082
0.000100082
0.000100082
0.000100082
0.000100082
0.000100082
0.000100082
0.000100082
0.000100081
0.00010008
0.000100079
0.000100078
0.000100077
0.000100077
0.000100077
0.000100077
0.000338633
0.000338627
0.000338625
0.000338625
0.000338626
0.000338626
0.000338627
0.000338627
0.000338628
0.00033863
0.000338632
0.000338634
0.000338636
0.000338638
0.000338639
0.00033864
0.000338641
0.000338642
0.000338643
0.000338643
0.000338643
0.000338644
0.000338644
0.000338644
0.000338644
0.000338644
0.000338644
0.000338644
0.000338644
0.000338644
0.000338644
0.000338643
0.000338641
0.000338638
0.000338635
0.000338632
0.00033863
0.000338628
0.000338627
0.000338636
0.000530885
0.000530884
0.000530886
0.000530886
0.000530887
0.000530889
0.00053089
0.00053089
0.000530892
0.000530896
0.000530901
0.000530906
0.00053091
0.000530912
0.000530915
0.000530918
0.00053092
0.000530922
0.000530923
0.000530924
0.000530924
0.000530924
0.000530925
0.000530925
0.000530925
0.000530925
0.000530925
0.000530926
0.000530926
0.000530926
0.000530926
0.000530924
0.000530922
0.000530916
0.00053091
0.000530904
0.000530898
0.000530893
0.000530891
0.000530896
0.000726409
0.000726417
0.000726425
0.000726427
0.00072643
0.000726432
0.000726431
0.000726432
0.000726436
0.000726444
0.000726455
0.000726464
0.00072647
0.000726474
0.000726478
0.000726483
0.000726485
0.000726487
0.000726489
0.00072649
0.000726491
0.000726492
0.000726492
0.000726492
0.000726492
0.000726492
0.000726493
0.000726494
0.000726494
0.000726494
0.000726494
0.000726492
0.000726489
0.000726483
0.000726475
0.000726464
0.000726452
0.000726443
0.000726439
0.000726438
0.000926111
0.00092612
0.000926139
0.000926144
0.000926155
0.000926155
0.000926156
0.000926157
0.000926163
0.000926172
0.000926192
0.00092621
0.000926218
0.000926224
0.000926228
0.000926234
0.000926236
0.000926237
0.000926239
0.000926243
0.000926244
0.000926245
0.000926244
0.000926244
0.000926246
0.000926244
0.000926247
0.000926248
0.000926247
0.000926249
0.000926248
0.000926246
0.000926242
0.000926239
0.000926228
0.000926209
0.000926191
0.000926179
0.000926171
0.000926166
0.00112614
0.00112617
0.00112619
0.00112621
0.00112623
0.00112623
0.00112624
0.00112624
0.00112624
0.00112625
0.00112629
0.00112631
0.00112633
0.00112632
0.00112633
0.00112634
0.00112634
0.00112634
0.00112635
0.00112635
0.00112635
0.00112635
0.00112635
0.00112635
0.00112635
0.00112635
0.00112635
0.00112635
0.00112635
0.00112636
0.00112635
0.00112635
0.00112635
0.00112635
0.00112634
0.00112631
0.00112628
0.00112627
0.00112626
0.00112624
0.00132224
0.00132226
0.00132229
0.00132232
0.00132234
0.00132235
0.00132236
0.00132236
0.00132236
0.00132238
0.00132242
0.00132246
0.00132247
0.00132247
0.00132248
0.00132248
0.00132248
0.00132249
0.0013225
0.0013225
0.0013225
0.0013225
0.00132249
0.00132249
0.00132249
0.00132249
0.00132249
0.0013225
0.0013225
0.0013225
0.0013225
0.0013225
0.00132251
0.0013225
0.00132248
0.00132244
0.00132241
0.00132239
0.00132238
0.00132236
0.00151069
0.00151072
0.00151075
0.00151078
0.00151082
0.00151084
0.00151086
0.00151086
0.00151087
0.00151089
0.00151094
0.00151099
0.00151099
0.001511
0.001511
0.001511
0.001511
0.00151102
0.00151102
0.00151101
0.00151102
0.00151101
0.00151101
0.00151101
0.00151101
0.00151101
0.00151101
0.00151102
0.00151102
0.00151102
0.00151102
0.00151102
0.00151102
0.00151102
0.00151098
0.00151095
0.00151091
0.00151089
0.00151087
0.00151083
0.00168875
0.00168877
0.0016888
0.00168884
0.0016889
0.00168893
0.00168895
0.00168896
0.00168898
0.00168901
0.00168906
0.00168911
0.00168912
0.00168913
0.00168912
0.00168912
0.00168912
0.00168914
0.00168913
0.00168914
0.00168913
0.00168914
0.00168913
0.00168914
0.00168913
0.00168913
0.00168913
0.00168913
0.00168915
0.00168915
0.00168914
0.00168914
0.00168915
0.00168913
0.00168911
0.00168906
0.00168901
0.00168899
0.00168897
0.00168892
0.00185445
0.0018545
0.00185453
0.00185459
0.00185466
0.0018547
0.00185473
0.00185475
0.00185479
0.00185482
0.00185488
0.00185493
0.00185495
0.00185495
0.00185493
0.00185493
0.00185496
0.00185494
0.00185494
0.00185494
0.00185495
0.00185495
0.00185495
0.00185495
0.00185494
0.00185493
0.00185494
0.00185496
0.00185496
0.00185494
0.00185496
0.00185495
0.00185495
0.00185494
0.00185491
0.00185484
0.00185479
0.00185475
0.00185477
0.00185471
0.00200667
0.00200671
0.00200674
0.00200683
0.0020069
0.00200696
0.002007
0.00200703
0.00200707
0.00200712
0.00200718
0.00200724
0.00200727
0.00200725
0.00200724
0.00200726
0.00200724
0.00200723
0.00200725
0.00200724
0.00200724
0.00200725
0.00200725
0.00200725
0.00200724
0.00200722
0.00200725
0.00200723
0.00200723
0.00200724
0.00200723
0.00200723
0.00200722
0.00200723
0.00200719
0.00200711
0.00200706
0.00200706
0.00200703
0.002007
0.00214474
0.00214474
0.00214477
0.00214486
0.00214494
0.00214501
0.00214507
0.00214512
0.00214517
0.00214522
0.00214528
0.00214535
0.00214539
0.00214537
0.00214536
0.00214536
0.00214535
0.00214534
0.00214536
0.00214534
0.00214536
0.00214536
0.00214536
0.00214534
0.00214533
0.00214534
0.00214534
0.00214532
0.00214532
0.00214531
0.00214531
0.00214531
0.00214532
0.00214532
0.00214528
0.00214521
0.00214519
0.00214516
0.00214511
0.00214511
0.00226829
0.00226826
0.0022683
0.0022684
0.00226848
0.00226857
0.00226864
0.00226871
0.00226876
0.00226881
0.00226887
0.00226895
0.00226899
0.00226897
0.00226896
0.00226895
0.00226893
0.00226895
0.00226892
0.00226894
0.00226896
0.00226895
0.00226895
0.00226894
0.00226894
0.00226894
0.0022689
0.0022689
0.0022689
0.0022689
0.0022689
0.0022689
0.00226891
0.00226893
0.00226889
0.00226882
0.0022688
0.00226872
0.00226871
0.00226869
0.0023772
0.00237721
0.00237725
0.00237733
0.00237742
0.00237752
0.00237762
0.00237769
0.00237774
0.0023778
0.00237785
0.00237794
0.00237798
0.00237796
0.00237796
0.00237793
0.00237794
0.00237791
0.0023779
0.00237793
0.00237792
0.00237793
0.00237793
0.00237792
0.00237793
0.00237791
0.00237789
0.00237792
0.0023779
0.00237788
0.00237789
0.00237789
0.00237791
0.00237794
0.00237787
0.00237781
0.00237778
0.0023777
0.00237766
0.00237764
0.00247162
0.00247157
0.0024716
0.00247166
0.00247177
0.00247189
0.00247199
0.00247206
0.00247212
0.00247218
0.00247224
0.00247232
0.00247237
0.00247235
0.00247232
0.00247232
0.0024723
0.00247228
0.00247229
0.00247228
0.00247231
0.00247229
0.00247229
0.00247231
0.00247231
0.0024723
0.00247231
0.00247231
0.00247227
0.0024723
0.0024723
0.00247228
0.00247231
0.0024723
0.00247226
0.00247223
0.00247215
0.00247208
0.00247205
0.00247204
0.00255129
0.00255132
0.00255134
0.00255141
0.00255153
0.00255165
0.00255175
0.00255183
0.00255189
0.00255195
0.00255201
0.00255209
0.00255215
0.00255212
0.00255212
0.00255209
0.00255208
0.00255207
0.00255207
0.00255208
0.00255206
0.00255209
0.00255206
0.00255208
0.00255208
0.00255207
0.00255208
0.00255206
0.00255206
0.00255208
0.00255205
0.00255205
0.00255209
0.00255208
0.00255205
0.00255202
0.00255193
0.00255189
0.00255184
0.00255177
0.00261632
0.00261636
0.00261639
0.00261649
0.00261658
0.0026167
0.00261681
0.00261688
0.00261694
0.002617
0.00261706
0.00261714
0.00261719
0.00261721
0.00261715
0.00261716
0.00261715
0.00261714
0.00261712
0.00261711
0.00261715
0.00261711
0.00261712
0.00261712
0.00261711
0.00261712
0.00261712
0.00261712
0.00261711
0.00261709
0.00261709
0.00261713
0.00261715
0.00261712
0.00261711
0.00261705
0.00261703
0.00261696
0.00261691
0.0026168
0.00266635
0.00266641
0.00266646
0.00266654
0.00266663
0.00266674
0.00266684
0.00266691
0.00266697
0.00266703
0.00266708
0.00266716
0.00266723
0.00266721
0.00266722
0.0026672
0.00266719
0.00266717
0.00266718
0.00266717
0.00266716
0.00266715
0.00266717
0.00266715
0.00266716
0.00266714
0.00266716
0.00266713
0.00266713
0.00266714
0.00266713
0.00266716
0.00266714
0.00266718
0.00266715
0.00266714
0.00266707
0.00266701
0.00266694
0.00266684
0.00270082
0.00270089
0.00270094
0.00270102
0.0027011
0.0027012
0.00270129
0.00270136
0.00270142
0.00270147
0.00270153
0.0027016
0.00270167
0.00270167
0.00270167
0.00270166
0.00270165
0.00270163
0.00270162
0.00270164
0.00270164
0.00270165
0.00270162
0.00270165
0.00270162
0.0027016
0.00270158
0.00270161
0.00270161
0.00270158
0.00270159
0.00270158
0.00270162
0.00270161
0.00270162
0.00270159
0.00270155
0.00270146
0.00270141
0.00270131
0.00271882
0.00271886
0.00271895
0.00271897
0.00271904
0.00271914
0.00271923
0.0027193
0.00271935
0.0027194
0.00271945
0.00271953
0.0027196
0.00271962
0.0027196
0.00271959
0.00271958
0.00271958
0.00271959
0.00271959
0.00271958
0.00271957
0.00271958
0.00271957
0.00271954
0.00271952
0.00271954
0.00271955
0.00271952
0.00271954
0.00271952
0.00271953
0.00271954
0.00271957
0.00271957
0.00271954
0.00271948
0.00271943
0.00271937
0.00271929
0.00271883
0.00271886
0.00271893
0.00271895
0.00271903
0.00271914
0.00271923
0.00271929
0.00271934
0.00271939
0.00271944
0.00271952
0.00271959
0.00271962
0.00271959
0.00271959
0.00271959
0.00271958
0.00271956
0.00271955
0.00271956
0.00271955
0.00271955
0.00271954
0.00271951
0.0027195
0.00271953
0.00271951
0.00271952
0.00271951
0.00271952
0.00271955
0.00271953
0.00271956
0.00271955
0.00271951
0.00271949
0.00271944
0.0027194
0.00271928
0.00270085
0.00270089
0.00270092
0.00270098
0.0027011
0.0027012
0.00270129
0.00270134
0.00270138
0.00270144
0.0027015
0.00270157
0.00270164
0.00270167
0.00270164
0.00270163
0.00270162
0.0027016
0.00270161
0.00270159
0.00270159
0.0027016
0.00270158
0.00270155
0.00270155
0.00270154
0.00270157
0.00270156
0.00270155
0.00270159
0.00270157
0.00270156
0.00270158
0.00270158
0.00270156
0.00270154
0.00270153
0.00270148
0.00270144
0.0027013
0.00266634
0.00266638
0.00266643
0.00266653
0.00266665
0.00266676
0.00266683
0.00266688
0.00266692
0.00266697
0.00266703
0.0026671
0.00266718
0.00266719
0.00266714
0.00266716
0.00266715
0.00266714
0.00266712
0.00266712
0.00266713
0.00266711
0.00266708
0.00266707
0.00266708
0.0026671
0.00266708
0.00266707
0.00266711
0.00266709
0.00266707
0.00266711
0.00266711
0.00266711
0.00266707
0.00266708
0.002667
0.00266695
0.00266695
0.00266681
0.00261631
0.00261634
0.00261638
0.00261651
0.00261663
0.00261672
0.0026168
0.00261684
0.00261689
0.00261694
0.00261699
0.00261706
0.00261713
0.00261711
0.0026171
0.00261711
0.00261709
0.00261708
0.00261707
0.00261707
0.00261706
0.00261704
0.00261704
0.00261704
0.00261705
0.00261703
0.00261702
0.00261703
0.00261705
0.00261704
0.00261706
0.00261704
0.00261706
0.00261703
0.00261706
0.00261699
0.00261694
0.00261687
0.00261692
0.00261678
0.00255128
0.0025513
0.00255135
0.00255146
0.00255157
0.00255167
0.00255174
0.00255179
0.00255184
0.00255188
0.00255193
0.00255201
0.00255206
0.00255203
0.00255203
0.00255203
0.00255202
0.00255201
0.002552
0.00255199
0.00255196
0.002552
0.00255196
0.00255195
0.00255198
0.00255196
0.00255199
0.00255197
0.00255201
0.00255198
0.00255201
0.00255199
0.00255198
0.00255199
0.00255199
0.00255191
0.00255187
0.00255182
0.00255188
0.00255175
0.00247154
0.00247157
0.00247161
0.00247169
0.00247181
0.0024719
0.00247197
0.00247202
0.00247207
0.00247211
0.00247216
0.00247223
0.00247227
0.00247224
0.00247224
0.00247223
0.00247222
0.00247221
0.00247219
0.00247217
0.0024722
0.00247218
0.00247216
0.00247219
0.00247219
0.00247221
0.00247218
0.0024722
0.0024722
0.00247223
0.00247222
0.00247222
0.00247221
0.0024722
0.00247217
0.00247214
0.00247207
0.00247208
0.00247211
0.002472
0.00237719
0.00237721
0.00237724
0.00237731
0.00237743
0.00237752
0.00237759
0.00237764
0.00237768
0.00237772
0.00237776
0.00237784
0.00237787
0.00237784
0.00237784
0.00237783
0.00237782
0.0023778
0.00237779
0.0023778
0.0023778
0.00237779
0.00237778
0.00237777
0.00237778
0.00237777
0.00237778
0.00237782
0.0023778
0.00237783
0.00237783
0.0023778
0.0023778
0.0023778
0.00237778
0.00237775
0.00237768
0.00237772
0.00237773
0.00237763
0.00226824
0.00226823
0.00226826
0.00226836
0.00226846
0.00226854
0.00226861
0.00226866
0.0022687
0.00226873
0.00226877
0.00226884
0.00226886
0.00226884
0.00226885
0.00226882
0.00226881
0.00226882
0.0022688
0.00226881
0.0022688
0.00226878
0.00226877
0.00226877
0.00226877
0.00226877
0.00226881
0.00226879
0.00226882
0.00226883
0.0022688
0.0022688
0.00226882
0.00226879
0.0022688
0.00226875
0.00226873
0.00226873
0.00226873
0.00226864
0.00214467
0.00214466
0.0021447
0.0021448
0.00214489
0.00214496
0.00214502
0.00214507
0.0021451
0.00214513
0.00214516
0.00214522
0.00214525
0.00214526
0.00214523
0.00214522
0.00214523
0.00214522
0.00214521
0.0021452
0.00214519
0.0021452
0.00214519
0.00214518
0.00214519
0.00214519
0.00214518
0.00214521
0.00214522
0.00214522
0.0021452
0.00214523
0.00214521
0.00214521
0.00214521
0.00214518
0.00214515
0.00214513
0.00214511
0.00214503
0.0020066
0.0020066
0.00200664
0.00200675
0.00200682
0.00200688
0.00200694
0.00200697
0.00200699
0.00200701
0.00200703
0.00200708
0.00200712
0.00200713
0.00200711
0.00200711
0.00200711
0.0020071
0.00200708
0.00200708
0.00200709
0.00200709
0.00200708
0.0020071
0.00200709
0.00200709
0.00200708
0.00200711
0.00200711
0.0020071
0.00200712
0.00200711
0.0020071
0.00200712
0.00200712
0.00200709
0.00200705
0.002007
0.00200698
0.00200691
0.00185436
0.00185436
0.0018544
0.00185449
0.00185455
0.0018546
0.00185465
0.00185467
0.00185468
0.00185469
0.00185471
0.00185475
0.00185481
0.00185482
0.00185479
0.0018548
0.0018548
0.00185479
0.00185479
0.00185478
0.0018548
0.00185479
0.0018548
0.00185481
0.0018548
0.0018548
0.0018548
0.0018548
0.00185482
0.00185482
0.00185482
0.00185482
0.00185482
0.00185483
0.00185483
0.00185481
0.00185475
0.00185471
0.00185468
0.00185463
0.00168861
0.0016886
0.00168865
0.00168872
0.00168877
0.00168881
0.00168884
0.00168885
0.00168885
0.00168886
0.00168888
0.00168893
0.00168898
0.00168898
0.00168898
0.00168899
0.00168899
0.00168899
0.00168898
0.00168898
0.001689
0.00168899
0.00168901
0.00168901
0.001689
0.001689
0.001689
0.00168901
0.00168903
0.00168903
0.00168903
0.00168903
0.00168902
0.00168902
0.00168903
0.001689
0.00168895
0.0016889
0.0016889
0.00168886
0.00151051
0.00151053
0.00151058
0.00151064
0.00151068
0.00151072
0.00151073
0.00151074
0.00151075
0.00151075
0.00151077
0.00151081
0.00151085
0.00151086
0.00151087
0.00151087
0.00151088
0.00151087
0.00151087
0.00151087
0.00151088
0.00151088
0.0015109
0.0015109
0.0015109
0.0015109
0.00151091
0.00151091
0.00151092
0.00151093
0.00151093
0.00151092
0.00151091
0.00151093
0.00151092
0.00151089
0.00151084
0.00151081
0.00151082
0.00151077
0.00132208
0.00132209
0.00132213
0.00132218
0.00132221
0.00132223
0.00132225
0.00132225
0.00132226
0.00132226
0.00132228
0.00132231
0.00132234
0.00132235
0.00132235
0.00132236
0.00132236
0.00132236
0.00132237
0.00132237
0.00132237
0.00132239
0.00132239
0.00132239
0.0013224
0.00132241
0.00132241
0.00132241
0.00132242
0.00132242
0.00132242
0.00132241
0.00132242
0.00132242
0.00132241
0.00132237
0.00132234
0.00132233
0.00132234
0.00132229
0.00112606
0.00112605
0.00112606
0.00112609
0.00112611
0.00112612
0.00112613
0.00112614
0.00112614
0.00112614
0.00112616
0.00112618
0.0011262
0.00112621
0.00112621
0.00112622
0.00112622
0.00112623
0.00112624
0.00112624
0.00112625
0.00112625
0.00112626
0.00112626
0.00112627
0.00112627
0.00112627
0.00112628
0.00112628
0.00112628
0.00112628
0.00112628
0.00112628
0.00112627
0.00112626
0.00112623
0.00112622
0.00112621
0.00112621
0.00112618
0.00092604
0.00092603
0.000926036
0.000926048
0.000926054
0.00092606
0.000926064
0.000926067
0.000926071
0.000926077
0.000926087
0.000926102
0.000926113
0.000926119
0.000926126
0.000926132
0.000926138
0.000926146
0.00092615
0.000926156
0.00092616
0.000926163
0.000926167
0.00092617
0.000926172
0.000926173
0.000926174
0.000926175
0.000926176
0.000926177
0.000926177
0.000926176
0.000926174
0.000926169
0.000926155
0.000926145
0.000926133
0.000926124
0.000926124
0.000926116
0.000726364
0.000726357
0.000726355
0.000726354
0.000726354
0.000726354
0.000726356
0.000726357
0.00072636
0.000726364
0.000726371
0.00072638
0.000726387
0.000726393
0.000726398
0.000726404
0.000726409
0.000726413
0.000726417
0.000726421
0.000726424
0.000726426
0.000726428
0.000726429
0.000726431
0.000726432
0.000726433
0.000726433
0.000726434
0.000726434
0.000726434
0.000726433
0.000726431
0.000726426
0.00072642
0.000726411
0.000726403
0.000726396
0.000726394
0.000726397
0.00053088
0.000530862
0.00053085
0.000530842
0.000530838
0.000530836
0.000530835
0.000530836
0.000530837
0.000530839
0.000530843
0.000530849
0.000530853
0.000530857
0.000530861
0.000530864
0.000530867
0.00053087
0.000530873
0.000530875
0.000530877
0.000530878
0.00053088
0.000530881
0.000530881
0.000530882
0.000530883
0.000530883
0.000530884
0.000530884
0.000530883
0.000530883
0.000530882
0.000530878
0.000530874
0.000530868
0.000530863
0.000530858
0.000530857
0.00053088
0.000338625
0.000338618
0.000338611
0.000338604
0.000338601
0.000338599
0.000338598
0.000338598
0.000338599
0.0003386
0.000338602
0.000338604
0.000338606
0.000338608
0.00033861
0.000338612
0.000338614
0.000338615
0.000338616
0.000338617
0.000338618
0.000338619
0.00033862
0.00033862
0.000338621
0.000338621
0.000338622
0.000338622
0.000338622
0.000338622
0.000338622
0.000338622
0.000338621
0.000338619
0.000338616
0.000338613
0.000338611
0.000338609
0.000338608
0.000338619
0.00010007
0.00010007
0.00010007
0.000100069
0.000100069
0.000100068
0.000100068
0.000100068
0.000100068
0.000100068
0.000100068
0.000100068
0.000100069
0.00010007
0.00010007
0.000100071
0.000100071
0.000100072
0.000100072
0.000100073
0.000100073
0.000100074
0.000100074
0.000100074
0.000100074
0.000100075
0.000100075
0.000100075
0.000100075
0.000100075
0.000100075
0.000100074
0.000100074
0.000100073
0.000100072
0.000100071
0.000100071
0.00010007
0.00010007
0.00010007
)
;

boundaryField
{
    bottomWall
    {
        type            nutkWallFunction;
        Cmu             0.09;
        kappa           0.41;
        E               9.8;
        value           uniform 0;
    }
    topWall
    {
        type            nutkWallFunction;
        Cmu             0.09;
        kappa           0.41;
        E               9.8;
        value           uniform 0;
    }
    sides1_half0
    {
        type            empty;
    }
    sides1_half1
    {
        type            empty;
    }
    sides2_half0
    {
        type            empty;
    }
    sides2_half1
    {
        type            empty;
    }
    inout1_half0
    {
        type            cyclic;
    }
    inout1_half1
    {
        type            cyclic;
    }
    inout2_half0
    {
        type            cyclic;
    }
    inout2_half1
    {
        type            cyclic;
    }
}


// ************************************************************************* //
