/*--------------------------------*- C++ -*----------------------------------*\
  =========                 |
  \\      /  F ield         | OpenFOAM: The Open Source CFD Toolbox
   \\    /   O peration     | Website:  https://openfoam.org
    \\  /    A nd           | Version:  dev
     \\/     M anipulation  |

   OpenFOAM for Windows 20.09 (v1)
   Built by CFD Support, www.cfdsupport.com (based on Symscape).
\*---------------------------------------------------------------------------*/
FoamFile
{
    version     2.0;
    format      ascii;
    class       volScalarField;
    location    "100";
    object      p;
}
// * * * * * * * * * * * * * * * * * * * * * * * * * * * * * * * * * * * * * //

dimensions      [0 2 -2 0 0 0 0];

internalField   nonuniform List<scalar> 
1600
(
1.2883e-08
9.7665e-09
2.88517e-09
1.27487e-09
3.08906e-09
4.10739e-09
3.59742e-09
2.56989e-09
1.66994e-09
1.17255e-09
1.31998e-09
2.25312e-09
3.71648e-09
5.17208e-09
6.4555e-09
7.64607e-09
8.70645e-09
9.61495e-09
1.04309e-08
1.11287e-08
1.16943e-08
1.20675e-08
1.23593e-08
1.25794e-08
1.2845e-08
1.30871e-08
1.33384e-08
1.3493e-08
1.37519e-08
1.39664e-08
1.44275e-08
1.50003e-08
1.57813e-08
1.62483e-08
1.63782e-08
1.59409e-08
1.47643e-08
1.3748e-08
9.93686e-09
9.25689e-09
1.36773e-08
8.81423e-09
2.35388e-09
1.76934e-09
3.51259e-09
4.10029e-09
3.576e-09
2.72693e-09
2.01207e-09
1.65547e-09
1.89536e-09
2.84663e-09
4.25733e-09
5.61489e-09
6.79298e-09
7.88336e-09
8.85846e-09
9.69445e-09
1.04592e-08
1.11275e-08
1.16736e-08
1.20351e-08
1.23168e-08
1.25398e-08
1.28135e-08
1.30658e-08
1.33122e-08
1.35051e-08
1.37739e-08
1.39596e-08
1.41848e-08
1.43694e-08
1.48171e-08
1.51479e-08
1.55589e-08
1.51696e-08
1.46442e-08
1.36627e-08
9.55556e-09
1.03043e-08
1.44966e-08
7.22052e-09
1.74112e-09
2.42719e-09
3.94411e-09
4.09441e-09
3.57627e-09
2.89309e-09
2.27208e-09
1.88663e-09
2.10488e-09
3.07301e-09
4.44891e-09
5.74093e-09
6.86379e-09
7.90315e-09
8.83226e-09
9.63521e-09
1.03878e-08
1.10543e-08
1.15999e-08
1.19603e-08
1.22333e-08
1.24596e-08
1.27593e-08
1.30142e-08
1.32599e-08
1.34774e-08
1.37339e-08
1.38865e-08
1.40622e-08
1.41192e-08
1.44952e-08
1.47746e-08
1.53708e-08
1.49054e-08
1.47814e-08
1.34563e-08
9.13118e-09
1.21029e-08
1.51677e-08
5.78821e-09
1.42977e-09
3.12094e-09
4.26734e-09
4.07353e-09
3.58711e-09
3.09e-09
2.58366e-09
2.21076e-09
2.41312e-09
3.39848e-09
4.76445e-09
5.97748e-09
7.03164e-09
8.00489e-09
8.86568e-09
9.62951e-09
1.03683e-08
1.10238e-08
1.15574e-08
1.19076e-08
1.21565e-08
1.23985e-08
1.27263e-08
1.29535e-08
1.31896e-08
1.3422e-08
1.36538e-08
1.37782e-08
1.39139e-08
1.38516e-08
1.41305e-08
1.42993e-08
1.50508e-08
1.44517e-08
1.46505e-08
1.28948e-08
8.55863e-09
1.37898e-08
1.53933e-08
4.78274e-09
1.51172e-09
3.825e-09
4.52053e-09
4.03554e-09
3.63084e-09
3.33706e-09
2.96717e-09
2.69734e-09
2.91189e-09
3.85978e-09
5.1982e-09
6.30647e-09
7.26559e-09
8.15444e-09
8.94256e-09
9.67783e-09
1.03873e-08
1.10216e-08
1.15321e-08
1.18484e-08
1.20878e-08
1.23797e-08
1.26988e-08
1.2879e-08
1.31145e-08
1.33417e-08
1.35427e-08
1.36235e-08
1.36917e-08
1.35408e-08
1.37281e-08
1.37658e-08
1.45828e-08
1.37924e-08
1.42836e-08
1.21032e-08
8.03711e-09
1.50657e-08
1.49359e-08
4.14094e-09
1.97158e-09
4.55078e-09
4.74982e-09
4.01879e-09
3.71879e-09
3.59378e-09
3.41265e-09
3.35119e-09
3.60187e-09
4.45633e-09
5.67004e-09
6.6271e-09
7.50693e-09
8.33365e-09
9.04915e-09
9.73831e-09
1.04073e-08
1.10223e-08
1.15e-08
1.17676e-08
1.20396e-08
1.2383e-08
1.26466e-08
1.28081e-08
1.30627e-08
1.32497e-08
1.34121e-08
1.3425e-08
1.34362e-08
1.3245e-08
1.33396e-08
1.32523e-08
1.39999e-08
1.29981e-08
1.37691e-08
1.12129e-08
7.74417e-09
1.58032e-08
1.40141e-08
3.37191e-09
2.5364e-09
5.2383e-09
5.0096e-09
4.07306e-09
3.83964e-09
3.84954e-09
3.92316e-09
4.12225e-09
4.4151e-09
5.12314e-09
6.11025e-09
6.9457e-09
7.78591e-09
8.54207e-09
9.17219e-09
9.78926e-09
1.04093e-08
1.09756e-08
1.14054e-08
1.16907e-08
1.20168e-08
1.23517e-08
1.25935e-08
1.27497e-08
1.29865e-08
1.31637e-08
1.33017e-08
1.32289e-08
1.32125e-08
1.29757e-08
1.29589e-08
1.27334e-08
1.33042e-08
1.21307e-08
1.31544e-08
1.0341e-08
7.75462e-09
1.65085e-08
1.31117e-08
2.49218e-09
2.89163e-09
5.81293e-09
5.36448e-09
4.27481e-09
4.03959e-09
4.15381e-09
4.46575e-09
4.90408e-09
5.25614e-09
5.77619e-09
6.51263e-09
7.32892e-09
8.12067e-09
8.74667e-09
9.30495e-09
9.83838e-09
1.03626e-08
1.08551e-08
1.1271e-08
1.16431e-08
1.20023e-08
1.22864e-08
1.25279e-08
1.26703e-08
1.28929e-08
1.30977e-08
1.32088e-08
1.30687e-08
1.30188e-08
1.26983e-08
1.2571e-08
1.21351e-08
1.24786e-08
1.13141e-08
1.25192e-08
9.52866e-09
7.89865e-09
1.7195e-08
1.23176e-08
1.84469e-09
3.11498e-09
6.35503e-09
5.82986e-09
4.62542e-09
4.35723e-09
4.55771e-09
5.06094e-09
5.66774e-09
6.0547e-09
6.37063e-09
6.90113e-09
7.74966e-09
8.4536e-09
8.94445e-09
9.44578e-09
9.8562e-09
1.02825e-08
1.07373e-08
1.11891e-08
1.1619e-08
1.1941e-08
1.21921e-08
1.2433e-08
1.26155e-08
1.28433e-08
1.30019e-08
1.30684e-08
1.29163e-08
1.2812e-08
1.23806e-08
1.21295e-08
1.14618e-08
1.16374e-08
1.06009e-08
1.18631e-08
8.79006e-09
7.98197e-09
1.74306e-08
1.14592e-08
1.4745e-09
3.39124e-09
6.9206e-09
6.35753e-09
5.07162e-09
4.81494e-09
5.13419e-09
5.76373e-09
6.41545e-09
6.78906e-09
6.90708e-09
7.29381e-09
8.11991e-09
8.73652e-09
9.15965e-09
9.5409e-09
9.84557e-09
1.02486e-08
1.06791e-08
1.11322e-08
1.15504e-08
1.18672e-08
1.2119e-08
1.23418e-08
1.25835e-08
1.27795e-08
1.28707e-08
1.28948e-08
1.27058e-08
1.25126e-08
1.20016e-08
1.16695e-08
1.08462e-08
1.08866e-08
9.89513e-09
1.11152e-08
8.16938e-09
8.00134e-09
1.71271e-08
1.05442e-08
1.35298e-09
3.73919e-09
7.44377e-09
6.90639e-09
5.62788e-09
5.44708e-09
5.88484e-09
6.52739e-09
7.13671e-09
7.46183e-09
7.45153e-09
7.72776e-09
8.38089e-09
8.92294e-09
9.31897e-09
9.58905e-09
9.90227e-09
1.02962e-08
1.06442e-08
1.10341e-08
1.14454e-08
1.18178e-08
1.20635e-08
1.22698e-08
1.25347e-08
1.26743e-08
1.27022e-08
1.26804e-08
1.24324e-08
1.21465e-08
1.16144e-08
1.12185e-08
1.03273e-08
1.02025e-08
9.1828e-09
1.03518e-08
7.64705e-09
7.89935e-09
1.63637e-08
9.71349e-09
1.39795e-09
4.07028e-09
7.87329e-09
7.46536e-09
6.31724e-09
6.23867e-09
6.715e-09
7.28474e-09
7.81508e-09
8.08813e-09
8.03793e-09
8.16223e-09
8.57264e-09
9.03395e-09
9.37083e-09
9.64576e-09
1.00433e-08
1.03759e-08
1.06045e-08
1.09277e-08
1.13545e-08
1.17535e-08
1.19977e-08
1.22071e-08
1.24304e-08
1.25396e-08
1.2511e-08
1.24246e-08
1.21549e-08
1.18442e-08
1.12836e-08
1.07568e-08
9.84999e-09
9.58074e-09
8.56266e-09
9.6616e-09
7.12709e-09
7.52653e-09
1.52817e-08
9.00577e-09
1.53277e-09
4.32288e-09
8.21304e-09
8.04674e-09
7.11641e-09
7.09801e-09
7.53145e-09
8.00341e-09
8.43544e-09
8.67459e-09
8.60697e-09
8.54622e-09
8.74957e-09
9.11629e-09
9.41073e-09
9.72565e-09
1.01405e-08
1.04297e-08
1.06126e-08
1.08765e-08
1.12592e-08
1.16502e-08
1.19118e-08
1.2098e-08
1.22866e-08
1.2415e-08
1.2353e-08
1.21984e-08
1.19367e-08
1.16164e-08
1.09575e-08
1.03745e-08
9.45123e-09
9.01938e-09
8.05741e-09
8.99109e-09
6.55166e-09
6.91955e-09
1.40129e-08
8.40111e-09
1.63557e-09
4.42493e-09
8.46e-09
8.64493e-09
7.93859e-09
7.92557e-09
8.28143e-09
8.65804e-09
8.99835e-09
9.20717e-09
9.10497e-09
8.88464e-09
8.92913e-09
9.19569e-09
9.45993e-09
9.80836e-09
1.01849e-08
1.04433e-08
1.06317e-08
1.08451e-08
1.11767e-08
1.15364e-08
1.18043e-08
1.2016e-08
1.21981e-08
1.22788e-08
1.21795e-08
1.20078e-08
1.17711e-08
1.14009e-08
1.06998e-08
1.01124e-08
9.09384e-09
8.50989e-09
7.60437e-09
8.31761e-09
6.00438e-09
6.31598e-09
1.2778e-08
7.96775e-09
1.59409e-09
4.32425e-09
8.61186e-09
9.20703e-09
8.68879e-09
8.65779e-09
8.93563e-09
9.2312e-09
9.4927e-09
9.66008e-09
9.51606e-09
9.19923e-09
9.12082e-09
9.26827e-09
9.51429e-09
9.88007e-09
1.02133e-08
1.04286e-08
1.05987e-08
1.08159e-08
1.1152e-08
1.14828e-08
1.17327e-08
1.19614e-08
1.20991e-08
1.21132e-08
1.20092e-08
1.1851e-08
1.16163e-08
1.11978e-08
1.05362e-08
9.88537e-09
8.761e-09
8.10603e-09
7.19303e-09
7.7046e-09
5.58079e-09
5.77712e-09
1.17541e-08
7.66803e-09
1.57246e-09
4.14893e-09
8.68788e-09
9.66984e-09
9.30906e-09
9.25901e-09
9.47336e-09
9.70426e-09
9.89601e-09
1.00152e-08
9.8513e-09
9.4878e-09
9.29838e-09
9.3413e-09
9.58432e-09
9.92643e-09
1.02032e-08
1.04053e-08
1.06024e-08
1.08739e-08
1.11772e-08
1.14248e-08
1.16505e-08
1.18645e-08
1.1981e-08
1.19967e-08
1.19018e-08
1.17262e-08
1.14442e-08
1.10013e-08
1.03886e-08
9.67807e-09
8.52748e-09
7.82946e-09
6.85057e-09
7.16896e-09
5.24616e-09
5.2949e-09
1.08391e-08
7.46889e-09
1.73936e-09
4.00966e-09
8.67575e-09
9.99764e-09
9.76886e-09
9.70515e-09
9.87544e-09
1.0063e-08
1.02038e-08
1.02801e-08
1.012e-08
9.73866e-09
9.45304e-09
9.42818e-09
9.64111e-09
9.93378e-09
1.01792e-08
1.04073e-08
1.06765e-08
1.09593e-08
1.11711e-08
1.13542e-08
1.15818e-08
1.17781e-08
1.18894e-08
1.19021e-08
1.18086e-08
1.16124e-08
1.12806e-08
1.08423e-08
1.02487e-08
9.49852e-09
8.39002e-09
7.63734e-09
6.59455e-09
6.73184e-09
4.97035e-09
4.87472e-09
9.95516e-09
7.38289e-09
1.99356e-09
3.86852e-09
8.56652e-09
1.01754e-08
1.0054e-08
9.98663e-09
1.01365e-08
1.03035e-08
1.04183e-08
1.04675e-08
1.03202e-08
9.94167e-09
9.59615e-09
9.52032e-09
9.6962e-09
9.9378e-09
1.01667e-08
1.04256e-08
1.07212e-08
1.09725e-08
1.11497e-08
1.13525e-08
1.15769e-08
1.17231e-08
1.18002e-08
1.18059e-08
1.17151e-08
1.15189e-08
1.11717e-08
1.07186e-08
1.01039e-08
9.36298e-09
8.3322e-09
7.5147e-09
6.42693e-09
6.42109e-09
4.79722e-09
4.53045e-09
9.1868e-09
7.35334e-09
2.21609e-09
3.70227e-09
8.38509e-09
1.02122e-08
1.01792e-08
1.01182e-08
1.02641e-08
1.04285e-08
1.05351e-08
1.05753e-08
1.04433e-08
1.00775e-08
9.71871e-09
9.61363e-09
9.74258e-09
9.95571e-09
1.01804e-08
1.04333e-08
1.07064e-08
1.09535e-08
1.11658e-08
1.1388e-08
1.15826e-08
1.16948e-08
1.17448e-08
1.17418e-08
1.16486e-08
1.14442e-08
1.10888e-08
1.0616e-08
1.00093e-08
9.29605e-09
8.30696e-09
7.45841e-09
6.3557e-09
6.24859e-09
4.73643e-09
4.29251e-09
8.59016e-09
7.30376e-09
2.32138e-09
3.54975e-09
8.20057e-09
1.01578e-08
1.0176e-08
1.01151e-08
1.02647e-08
1.04416e-08
1.05559e-08
1.05991e-08
1.04806e-08
1.01383e-08
9.78939e-09
9.66506e-09
9.76007e-09
9.96683e-09
1.01969e-08
1.04381e-08
1.0697e-08
1.09521e-08
1.11879e-08
1.14103e-08
1.15934e-08
1.17061e-08
1.17506e-08
1.17329e-08
1.16236e-08
1.13987e-08
1.10368e-08
1.05705e-08
9.96925e-09
9.25356e-09
8.29181e-09
7.46597e-09
6.38948e-09
6.20325e-09
4.75137e-09
4.17407e-09
8.21221e-09
7.17898e-09
2.18419e-09
3.43563e-09
8.11288e-09
1.00695e-08
1.00611e-08
9.98738e-09
1.01471e-08
1.03437e-08
1.04771e-08
1.05363e-08
1.04292e-08
1.01054e-08
9.77461e-09
9.65297e-09
9.74127e-09
9.9532e-09
1.02005e-08
1.04502e-08
1.07152e-08
1.09757e-08
1.12191e-08
1.14451e-08
1.16339e-08
1.17551e-08
1.18031e-08
1.17798e-08
1.16478e-08
1.13974e-08
1.10281e-08
1.05644e-08
9.95747e-09
9.24728e-09
8.31264e-09
7.50849e-09
6.435e-09
6.25544e-09
4.81597e-09
4.19399e-09
8.14519e-09
6.97542e-09
1.80188e-09
3.36361e-09
8.12456e-09
9.94091e-09
9.84437e-09
9.76125e-09
9.93403e-09
1.01457e-08
1.03023e-08
1.0384e-08
1.02878e-08
9.97255e-09
9.67303e-09
9.59428e-09
9.70164e-09
9.92498e-09
1.01917e-08
1.04602e-08
1.0745e-08
1.10329e-08
1.12978e-08
1.15187e-08
1.16901e-08
1.18172e-08
1.18846e-08
1.18552e-08
1.17036e-08
1.14388e-08
1.10552e-08
1.05977e-08
1.00018e-08
9.30984e-09
8.38378e-09
7.56607e-09
6.467e-09
6.38552e-09
4.92598e-09
4.34561e-09
8.38417e-09
6.7504e-09
1.30636e-09
3.28381e-09
8.12266e-09
9.73336e-09
9.55106e-09
9.47618e-09
9.65332e-09
9.86091e-09
1.00281e-08
1.01403e-08
1.00654e-08
9.76019e-09
9.519e-09
9.51835e-09
9.65099e-09
9.87459e-09
1.01611e-08
1.04741e-08
1.07999e-08
1.11296e-08
1.13975e-08
1.15917e-08
1.17639e-08
1.19088e-08
1.19734e-08
1.19409e-08
1.18032e-08
1.15252e-08
1.11244e-08
1.06984e-08
1.01183e-08
9.43716e-09
8.49033e-09
7.64323e-09
6.52269e-09
6.59947e-09
5.06297e-09
4.56243e-09
8.81017e-09
6.60381e-09
7.4725e-10
3.12705e-09
8.03208e-09
9.45278e-09
9.20948e-09
9.14384e-09
9.30615e-09
9.48678e-09
9.65494e-09
9.82153e-09
9.79158e-09
9.51245e-09
9.34584e-09
9.41327e-09
9.5774e-09
9.83964e-09
1.01649e-08
1.05086e-08
1.08607e-08
1.11922e-08
1.14495e-08
1.16712e-08
1.18896e-08
1.20311e-08
1.20639e-08
1.20571e-08
1.19275e-08
1.16307e-08
1.12637e-08
1.08757e-08
1.02868e-08
9.59932e-09
8.6043e-09
7.77616e-09
6.68951e-09
6.91854e-09
5.16482e-09
4.74888e-09
9.35951e-09
6.61986e-09
2.97136e-10
2.93084e-09
7.89119e-09
9.12889e-09
8.82041e-09
8.74819e-09
8.8798e-09
9.02424e-09
9.2091e-09
9.46579e-09
9.49643e-09
9.26765e-09
9.1716e-09
9.27291e-09
9.50984e-09
9.85867e-09
1.02215e-08
1.05449e-08
1.08521e-08
1.11618e-08
1.14933e-08
1.17976e-08
1.2014e-08
1.21451e-08
1.21818e-08
1.21682e-08
1.19961e-08
1.17515e-08
1.14843e-08
1.11059e-08
1.04884e-08
9.79337e-09
8.75764e-09
8.02094e-09
6.98059e-09
7.27594e-09
5.18384e-09
4.90272e-09
1.00376e-08
6.73755e-09
8.98547e-15
2.9121e-09
7.81097e-09
8.78409e-09
8.37738e-09
8.27595e-09
8.36236e-09
8.48332e-09
8.72435e-09
9.07823e-09
9.18506e-09
9.05017e-09
9.01512e-09
9.13672e-09
9.45371e-09
9.88923e-09
1.02435e-08
1.0541e-08
1.08303e-08
1.11594e-08
1.15814e-08
1.18934e-08
1.20752e-08
1.2232e-08
1.22987e-08
1.22277e-08
1.20565e-08
1.19371e-08
1.17349e-08
1.13685e-08
1.074e-08
1.00285e-08
8.97394e-09
8.3893e-09
7.32089e-09
7.5535e-09
5.13948e-09
5.09307e-09
1.0841e-08
6.91508e-09
-1.10006e-10
3.20201e-09
7.81426e-09
8.41261e-09
7.87239e-09
7.70391e-09
7.74665e-09
7.88336e-09
8.20615e-09
8.64185e-09
8.86101e-09
8.86325e-09
8.86786e-09
9.0037e-09
9.39798e-09
9.85262e-09
1.01952e-08
1.05587e-08
1.09025e-08
1.12565e-08
1.1624e-08
1.19013e-08
1.21269e-08
1.2329e-08
1.23997e-08
1.22869e-08
1.21936e-08
1.21675e-08
1.19791e-08
1.16473e-08
1.09999e-08
1.02754e-08
9.25734e-09
8.82497e-09
7.60897e-09
7.74356e-09
5.12766e-09
5.37072e-09
1.17504e-08
7.33903e-09
1.04694e-10
3.52567e-09
7.72743e-09
7.97856e-09
7.27656e-09
7.02687e-09
7.05465e-09
7.2514e-09
7.64661e-09
8.16137e-09
8.52355e-09
8.66728e-09
8.71108e-09
8.88091e-09
9.31031e-09
9.72431e-09
1.01574e-08
1.06473e-08
1.10191e-08
1.13649e-08
1.16522e-08
1.19186e-08
1.22011e-08
1.2457e-08
1.25028e-08
1.23928e-08
1.23907e-08
1.23883e-08
1.2209e-08
1.18781e-08
1.12032e-08
1.05565e-08
9.62308e-09
9.24403e-09
7.79708e-09
7.9784e-09
5.28193e-09
5.72953e-09
1.27071e-08
8.01756e-09
4.72675e-10
3.67248e-09
7.50472e-09
7.46602e-09
6.59118e-09
6.28193e-09
6.33352e-09
6.60094e-09
7.0778e-09
7.6618e-09
8.16024e-09
8.41103e-09
8.50644e-09
8.75639e-09
9.19545e-09
9.63249e-09
1.01694e-08
1.07008e-08
1.10919e-08
1.14615e-08
1.17407e-08
1.20045e-08
1.23151e-08
1.25472e-08
1.25725e-08
1.25614e-08
1.26099e-08
1.26024e-08
1.23779e-08
1.20198e-08
1.13933e-08
1.09008e-08
1.00149e-08
9.59856e-09
7.99961e-09
8.41854e-09
5.68081e-09
6.13627e-09
1.36541e-08
8.77708e-09
7.85683e-10
3.65173e-09
7.2126e-09
6.91682e-09
5.87411e-09
5.52732e-09
5.64741e-09
5.98865e-09
6.54326e-09
7.17406e-09
7.73061e-09
8.03744e-09
8.22052e-09
8.60898e-09
9.12309e-09
9.61002e-09
1.01459e-08
1.06721e-08
1.11324e-08
1.15302e-08
1.18189e-08
1.21271e-08
1.24549e-08
1.25922e-08
1.26417e-08
1.27801e-08
1.28142e-08
1.27749e-08
1.2468e-08
1.2136e-08
1.1639e-08
1.12693e-08
1.03568e-08
9.93024e-09
8.38935e-09
9.17477e-09
6.33183e-09
6.51718e-09
1.44776e-08
9.58318e-09
1.12967e-09
3.52442e-09
6.8889e-09
6.39067e-09
5.20385e-09
4.86239e-09
5.07868e-09
5.49181e-09
6.0681e-09
6.66169e-09
7.1481e-09
7.50117e-09
7.8856e-09
8.46915e-09
9.01812e-09
9.51488e-09
1.00648e-08
1.0615e-08
1.11507e-08
1.15348e-08
1.18535e-08
1.22544e-08
1.25306e-08
1.26207e-08
1.27598e-08
1.29621e-08
1.2976e-08
1.28961e-08
1.2574e-08
1.23293e-08
1.19147e-08
1.1596e-08
1.06351e-08
1.03501e-08
9.01479e-09
1.01475e-08
7.16783e-09
6.81569e-09
1.50665e-08
1.06048e-08
1.63755e-09
3.29628e-09
6.49593e-09
5.88699e-09
4.62621e-09
4.39062e-09
4.7026e-09
5.09599e-09
5.56917e-09
6.00304e-09
6.3835e-09
6.86978e-09
7.53537e-09
8.25007e-09
8.79253e-09
9.36146e-09
9.97241e-09
1.05283e-08
1.10901e-08
1.14965e-08
1.1869e-08
1.23155e-08
1.25155e-08
1.26455e-08
1.28809e-08
1.30583e-08
1.30826e-08
1.30171e-08
1.27716e-08
1.26141e-08
1.21561e-08
1.18532e-08
1.09263e-08
1.08919e-08
9.80723e-09
1.11681e-08
8.08098e-09
7.066e-09
1.55212e-08
1.20711e-08
2.20186e-09
2.83509e-09
5.89315e-09
5.33107e-09
4.17525e-09
4.10298e-09
4.41501e-09
4.68889e-09
4.97128e-09
5.23276e-09
5.57026e-09
6.24219e-09
7.11422e-09
7.8778e-09
8.52496e-09
9.22283e-09
9.83952e-09
1.03855e-08
1.09479e-08
1.14178e-08
1.18657e-08
1.22572e-08
1.24446e-08
1.26804e-08
1.29387e-08
1.31064e-08
1.31636e-08
1.31641e-08
1.30205e-08
1.28781e-08
1.23581e-08
1.21112e-08
1.129e-08
1.15223e-08
1.06682e-08
1.21314e-08
9.01984e-09
7.40912e-09
1.62479e-08
1.38616e-08
2.83666e-09
2.21013e-09
5.0756e-09
4.75574e-09
3.85138e-09
3.86172e-09
4.07207e-09
4.23541e-09
4.40844e-09
4.53264e-09
4.816e-09
5.60428e-09
6.60652e-09
7.47993e-09
8.27085e-09
9.01375e-09
9.62035e-09
1.0202e-08
1.07764e-08
1.13041e-08
1.17719e-08
1.21152e-08
1.23739e-08
1.26865e-08
1.29363e-08
1.31566e-08
1.32631e-08
1.33335e-08
1.32285e-08
1.30635e-08
1.25779e-08
1.2398e-08
1.17324e-08
1.22252e-08
1.15202e-08
1.29085e-08
9.95941e-09
7.93009e-09
1.71878e-08
1.55408e-08
3.79409e-09
1.72839e-09
4.2649e-09
4.3039e-09
3.63858e-09
3.60292e-09
3.71849e-09
3.82705e-09
3.92837e-09
3.90539e-09
4.13246e-09
5.00028e-09
6.11864e-09
7.11351e-09
7.95617e-09
8.6897e-09
9.33313e-09
9.98042e-09
1.05866e-08
1.11527e-08
1.1606e-08
1.19792e-08
1.23257e-08
1.2672e-08
1.29487e-08
1.32294e-08
1.33709e-08
1.34771e-08
1.33675e-08
1.32394e-08
1.28359e-08
1.27116e-08
1.22868e-08
1.29301e-08
1.22476e-08
1.34254e-08
1.09179e-08
8.52972e-09
1.76616e-08
1.67744e-08
5.13742e-09
1.58163e-09
3.63298e-09
4.03697e-09
3.54614e-09
3.39568e-09
3.40371e-09
3.4495e-09
3.43991e-09
3.32986e-09
3.57875e-09
4.50624e-09
5.6733e-09
6.70626e-09
7.55775e-09
8.3148e-09
9.02608e-09
9.74098e-09
1.03908e-08
1.09909e-08
1.14816e-08
1.19143e-08
1.23092e-08
1.26869e-08
1.29921e-08
1.32972e-08
1.34543e-08
1.35721e-08
1.34908e-08
1.34296e-08
1.31076e-08
1.30904e-08
1.28836e-08
1.34857e-08
1.2811e-08
1.37709e-08
1.18826e-08
9.08226e-09
1.73416e-08
1.73214e-08
6.78535e-09
1.89694e-09
3.21595e-09
3.92023e-09
3.58171e-09
3.29069e-09
3.14203e-09
3.07546e-09
2.97535e-09
2.85765e-09
3.15867e-09
4.09245e-09
5.23718e-09
6.27989e-09
7.16838e-09
7.98617e-09
8.77472e-09
9.54995e-09
1.02461e-08
1.08913e-08
1.14266e-08
1.19072e-08
1.23276e-08
1.27237e-08
1.30335e-08
1.3338e-08
1.35051e-08
1.36383e-08
1.35996e-08
1.35869e-08
1.33601e-08
1.34492e-08
1.33674e-08
1.38591e-08
1.33157e-08
1.40228e-08
1.27052e-08
9.56304e-09
1.63694e-08
1.68607e-08
8.83651e-09
2.98569e-09
3.12745e-09
3.94571e-09
3.73808e-09
3.28225e-09
2.95217e-09
2.76591e-09
2.59489e-09
2.47603e-09
2.80692e-09
3.73153e-09
4.86989e-09
5.95213e-09
6.91086e-09
7.80807e-09
8.6567e-09
9.47288e-09
1.02005e-08
1.08769e-08
1.14412e-08
1.19465e-08
1.23724e-08
1.27707e-08
1.30721e-08
1.33641e-08
1.3529e-08
1.36711e-08
1.36631e-08
1.36699e-08
1.35139e-08
1.36638e-08
1.36895e-08
1.41155e-08
1.37592e-08
1.4098e-08
1.32628e-08
9.83473e-09
1.43654e-08
1.55967e-08
1.10528e-08
4.67038e-09
3.38223e-09
4.09993e-09
3.97596e-09
3.32267e-09
2.80907e-09
2.51865e-09
2.25821e-09
2.12397e-09
2.47623e-09
3.42431e-09
4.61065e-09
5.76234e-09
6.79829e-09
7.75978e-09
8.652e-09
9.49905e-09
1.02512e-08
1.09439e-08
1.15237e-08
1.20347e-08
1.24516e-08
1.28347e-08
1.31161e-08
1.33847e-08
1.35243e-08
1.36596e-08
1.3664e-08
1.36819e-08
1.35861e-08
1.3796e-08
1.39328e-08
1.4286e-08
1.4091e-08
1.39717e-08
1.34964e-08
9.88593e-09
1.1555e-08
1.45261e-08
1.22777e-08
5.94342e-09
3.76639e-09
4.45511e-09
4.46205e-09
3.62499e-09
2.84653e-09
2.40163e-09
1.95161e-09
1.60785e-09
1.91858e-09
2.91321e-09
4.14748e-09
5.3296e-09
6.39484e-09
7.38468e-09
8.314e-09
9.20666e-09
1.00094e-08
1.0752e-08
1.13794e-08
1.19328e-08
1.23682e-08
1.27671e-08
1.30415e-08
1.33156e-08
1.34313e-08
1.3568e-08
1.35616e-08
1.37286e-08
1.39013e-08
1.442e-08
1.47748e-08
1.50581e-08
1.50192e-08
1.42319e-08
1.37775e-08
1.01102e-08
9.91789e-09
)
;

boundaryField
{
    bottomWall
    {
        type            zeroGradient;
    }
    topWall
    {
        type            zeroGradient;
    }
    sides1_half0
    {
        type            empty;
    }
    sides1_half1
    {
        type            empty;
    }
    sides2_half0
    {
        type            empty;
    }
    sides2_half1
    {
        type            empty;
    }
    inout1_half0
    {
        type            cyclic;
    }
    inout1_half1
    {
        type            cyclic;
    }
    inout2_half0
    {
        type            cyclic;
    }
    inout2_half1
    {
        type            cyclic;
    }
}


// ************************************************************************* //
