/*--------------------------------*- C++ -*----------------------------------*\
  =========                 |
  \\      /  F ield         | OpenFOAM: The Open Source CFD Toolbox
   \\    /   O peration     | Website:  https://openfoam.org
    \\  /    A nd           | Version:  dev
     \\/     M anipulation  |

   OpenFOAM for Windows 20.09 (v1)
   Built by CFD Support, www.cfdsupport.com (based on Symscape).
\*---------------------------------------------------------------------------*/
FoamFile
{
    version     2.0;
    format      ascii;
    class       surfaceScalarField;
    location    "100";
    object      phi;
}
// * * * * * * * * * * * * * * * * * * * * * * * * * * * * * * * * * * * * * //

dimensions      [0 3 -1 0 0 0 0];

internalField   nonuniform List<scalar> 
3120
(
0.000588336
-1.21197e-09
0.000588336
-1.99479e-10
0.000588335
7.30813e-10
0.000588335
3.12067e-10
0.000588335
-7.39297e-11
0.000588335
-1.06735e-10
0.000588335
-7.06723e-11
0.000588335
-9.57915e-11
0.000588335
-1.36499e-10
0.000588335
-1.69778e-10
0.000588336
-2.30151e-10
0.000588336
-3.43872e-10
0.000588336
-4.53321e-10
0.000588337
-5.00456e-10
0.000588337
-4.91897e-10
0.000588338
-4.55571e-10
0.000588338
-4.03799e-10
0.000588339
-3.54353e-10
0.000588339
-3.0784e-10
0.000588339
-2.67564e-10
0.000588339
-2.303e-10
0.00058834
-1.89426e-10
0.00058834
-1.67718e-10
0.00058834
-1.3346e-10
0.00058834
-1.21568e-10
0.00058834
-7.25618e-11
0.00058834
-4.48827e-11
0.00058834
5.93718e-11
0.00058834
1.0601e-10
0.00058834
2.86363e-10
0.000588339
3.38605e-10
0.000588339
5.61951e-10
0.000588338
5.69616e-10
0.000588338
6.75902e-10
0.000588337
5.97301e-10
0.000588336
5.30374e-10
0.000588336
6.19133e-10
0.000588336
1.51119e-10
0.000588335
9.79273e-10
3.15698e-10
0.000705726
-1.33996e-09
0.000705726
2.70074e-10
0.000705725
1.16527e-09
0.000705725
5.36793e-10
0.000705725
2.94179e-11
0.000705725
-1.08782e-10
0.000705725
-1.47301e-10
0.000705725
-2.06768e-10
0.000705725
-2.49627e-10
0.000705725
-2.74602e-10
0.000705725
-3.5101e-10
0.000705726
-5.22814e-10
0.000705726
-7.02289e-10
0.000705726
-7.94386e-10
0.000705726
-7.98556e-10
0.000705727
-7.56903e-10
0.000705727
-6.85487e-10
0.000705727
-6.14997e-10
0.000705728
-5.44866e-10
0.000705728
-4.86415e-10
0.000705728
-4.21189e-10
0.000705728
-3.56142e-10
0.000705728
-3.105e-10
0.000705728
-2.57681e-10
0.000705728
-2.20247e-10
0.000705729
-1.44272e-10
0.000705729
-7.12621e-11
0.000705729
8.33303e-11
0.000705728
1.98696e-10
0.000705728
4.44978e-10
0.000705728
5.46617e-10
0.000705728
8.1247e-10
0.000705728
8.21455e-10
0.000705727
9.62112e-10
0.000705727
8.28474e-10
0.000705727
8.48197e-10
0.000705726
8.97754e-10
0.000705726
5.43217e-10
0.000705726
1.35616e-09
2.10449e-11
0.000781435
-9.02435e-10
0.000781434
8.37389e-10
0.000781434
1.40856e-09
0.000781434
7.05318e-10
0.000781434
1.55116e-10
0.000781434
-8.40247e-11
0.000781434
-2.13865e-10
0.000781434
-3.26735e-10
0.000781434
-3.83513e-10
0.000781434
-4.01907e-10
0.000781434
-4.70579e-10
0.000781435
-6.62657e-10
0.000781435
-8.87372e-10
0.000781435
-1.00784e-09
0.000781435
-1.02264e-09
0.000781435
-9.82404e-10
0.000781436
-9.03172e-10
0.000781436
-8.21698e-10
0.000781436
-7.40586e-10
0.000781436
-6.71548e-10
0.000781436
-5.85738e-10
0.000781437
-5.02756e-10
0.000781437
-4.37504e-10
0.000781437
-3.70486e-10
0.000781437
-3.09886e-10
0.000781437
-2.08389e-10
0.000781437
-9.31749e-11
0.000781437
9.50423e-11
0.000781437
2.68686e-10
0.000781437
5.44159e-10
0.000781437
6.86362e-10
0.000781437
9.48734e-10
0.000781436
9.64604e-10
0.000781436
1.09124e-09
0.000781436
9.46678e-10
0.000781436
1.05196e-09
0.000781436
1.07386e-09
0.000781435
9.02439e-10
0.000781435
1.44521e-09
-1.34449e-10
0.000844867
-2.20396e-10
0.000844867
1.31934e-09
0.000844867
1.53406e-09
0.000844866
8.12486e-10
0.000844866
2.57151e-10
0.000844866
-5.95099e-11
0.000844866
-2.75215e-10
0.000844867
-4.38497e-10
0.000844867
-5.1566e-10
0.000844867
-5.40511e-10
0.000844867
-5.97304e-10
0.000844867
-7.85905e-10
0.000844867
-1.03262e-09
0.000844867
-1.16395e-09
0.000844868
-1.18208e-09
0.000844868
-1.14551e-09
0.000844868
-1.06693e-09
0.000844868
-9.82388e-10
0.000844868
-8.96184e-10
0.000844868
-8.21288e-10
0.000844868
-7.2334e-10
0.000844869
-6.28566e-10
0.000844869
-5.50012e-10
0.000844869
-4.71927e-10
0.000844869
-3.87821e-10
0.000844869
-2.62714e-10
0.000844869
-1.13769e-10
0.000844869
9.74991e-11
0.000844869
3.19243e-10
0.000844869
6.07492e-10
0.000844869
7.86148e-10
0.000844869
1.02582e-09
0.000844869
1.04833e-09
0.000844869
1.13182e-09
0.000844868
1.01206e-09
0.000844868
1.16902e-09
0.000844868
1.18414e-09
0.000844868
1.1692e-09
0.000844868
1.41792e-09
-2.96227e-11
0.00090249
4.76569e-10
0.00090249
1.65892e-09
0.00090249
1.57781e-09
0.000902489
8.76753e-10
0.000902489
3.30617e-10
0.000902489
-4.20245e-11
0.000902489
-3.22369e-10
0.000902489
-5.25451e-10
0.00090249
-6.30456e-10
0.00090249
-6.68001e-10
0.00090249
-7.12098e-10
0.00090249
-8.92789e-10
0.00090249
-1.13879e-09
0.00090249
-1.26686e-09
0.00090249
-1.29231e-09
0.00090249
-1.2626e-09
0.000902491
-1.1854e-09
0.000902491
-1.09772e-09
0.000902491
-1.01233e-09
0.000902491
-9.37709e-10
0.000902491
-8.36308e-10
0.000902491
-7.35064e-10
0.000902491
-6.46567e-10
0.000902491
-5.55869e-10
0.000902491
-4.52044e-10
0.000902491
-3.12036e-10
0.000902491
-1.37182e-10
0.000902491
9.64822e-11
0.000902491
3.56027e-10
0.000902491
6.48335e-10
0.000902491
8.56745e-10
0.000902491
1.07179e-09
0.000902491
1.09853e-09
0.000902491
1.13011e-09
0.000902491
1.04751e-09
0.000902491
1.21614e-09
0.000902491
1.24793e-09
0.000902491
1.33737e-09
0.000902491
1.37308e-09
2.61248e-10
0.000957176
1.02166e-09
0.000957176
1.86957e-09
0.000957176
1.5913e-09
0.000957175
9.27876e-10
0.000957175
3.86745e-10
0.000957175
-2.85248e-11
0.000957175
-3.53854e-10
0.000957176
-5.8894e-10
0.000957176
-7.19623e-10
0.000957176
-7.62754e-10
0.000957176
-7.9339e-10
0.000957176
-9.6253e-10
0.000957176
-1.20233e-09
0.000957176
-1.33334e-09
0.000957176
-1.36564e-09
0.000957176
-1.33869e-09
0.000957176
-1.2623e-09
0.000957176
-1.17402e-09
0.000957176
-1.09348e-09
0.000957176
-1.01881e-09
0.000957177
-9.19828e-10
0.000957177
-8.22707e-10
0.000957177
-7.22157e-10
0.000957177
-6.19336e-10
0.000957177
-5.08249e-10
0.000957177
-3.51033e-10
0.000957177
-1.5135e-10
0.000957177
9.42071e-11
0.000957177
3.77303e-10
0.000957177
6.71354e-10
0.000957177
9.03964e-10
0.000957177
1.09543e-09
0.000957177
1.12532e-09
0.000957177
1.11015e-09
0.000957177
1.05737e-09
0.000957177
1.21046e-09
0.000957177
1.27282e-09
0.000957177
1.4249e-09
0.000957177
1.35532e-09
5.97142e-10
0.00101048
1.36527e-09
0.00101048
1.95276e-09
0.00101048
1.594e-09
0.00101048
9.68704e-10
0.00101048
4.25876e-10
0.00101048
-2.10724e-11
0.00101048
-3.75753e-10
0.00101048
-6.33269e-10
0.00101048
-7.77613e-10
0.00101048
-8.16124e-10
0.00101048
-8.29588e-10
0.00101048
-9.85876e-10
0.00101048
-1.2243e-09
0.00101048
-1.36547e-09
0.00101048
-1.40395e-09
0.00101048
-1.37683e-09
0.00101048
-1.30344e-09
0.00101048
-1.21911e-09
0.00101048
-1.1405e-09
0.00101048
-1.06942e-09
0.00101048
-9.81054e-10
0.00101048
-8.86037e-10
0.00101048
-7.74183e-10
0.00101048
-6.65794e-10
0.00101048
-5.45694e-10
0.00101048
-3.72342e-10
0.00101048
-1.59417e-10
0.00101048
9.39964e-11
0.00101048
3.91675e-10
0.00101048
6.84935e-10
0.00101048
9.3025e-10
0.00101048
1.09623e-09
0.00101048
1.1308e-09
0.00101048
1.08118e-09
0.00101048
1.03964e-09
0.00101048
1.15428e-09
0.00101048
1.26556e-09
0.00101048
1.46052e-09
0.00101048
1.37215e-09
9.19017e-10
0.00106333
1.56014e-09
0.00106333
1.91743e-09
0.00106333
1.55209e-09
0.00106333
9.80833e-10
0.00106333
4.48608e-10
0.00106333
-1.40814e-11
0.00106333
-3.90999e-10
0.00106333
-6.64472e-10
0.00106333
-8.12241e-10
0.00106333
-8.35044e-10
0.00106333
-8.23473e-10
0.00106333
-9.6441e-10
0.00106333
-1.20396e-09
0.00106333
-1.35703e-09
0.00106333
-1.40276e-09
0.00106333
-1.38089e-09
0.00106333
-1.31607e-09
0.00106333
-1.23368e-09
0.00106333
-1.16156e-09
0.00106333
-1.10047e-09
0.00106333
-1.02034e-09
0.00106333
-9.1886e-10
0.00106333
-8.00138e-10
0.00106333
-6.92571e-10
0.00106333
-5.62138e-10
0.00106333
-3.82248e-10
0.00106333
-1.59642e-10
0.00106333
1.0459e-10
0.00106333
4.07597e-10
0.00106333
6.90998e-10
0.00106333
9.34405e-10
0.00106333
1.07966e-09
0.00106333
1.11864e-09
0.00106333
1.03092e-09
0.00106333
9.86146e-10
0.00106333
1.07246e-09
0.00106333
1.23699e-09
0.00106333
1.45567e-09
0.00106333
1.40846e-09
1.21146e-09
0.00111632
1.65301e-09
0.00111632
1.80704e-09
0.00111633
1.45928e-09
0.00111633
9.60433e-10
0.00111633
4.56907e-10
0.00111633
-8.40541e-12
0.00111633
-4.03838e-10
0.00111633
-6.86243e-10
0.00111633
-8.24875e-10
0.00111633
-8.23505e-10
0.00111633
-7.84196e-10
0.00111632
-9.0428e-10
0.00111632
-1.14513e-09
0.00111632
-1.30794e-09
0.00111632
-1.36375e-09
0.00111632
-1.35628e-09
0.00111632
-1.29713e-09
0.00111632
-1.22159e-09
0.00111632
-1.16165e-09
0.00111632
-1.10706e-09
0.00111632
-1.02679e-09
0.00111632
-9.21352e-10
0.00111632
-8.09778e-10
0.00111632
-6.97877e-10
0.00111632
-5.55915e-10
0.00111632
-3.72093e-10
0.00111632
-1.45169e-10
0.00111632
1.156e-10
0.00111632
4.13942e-10
0.00111632
6.89184e-10
0.00111632
9.22529e-10
0.00111632
1.04711e-09
0.00111632
1.07887e-09
0.00111632
9.55545e-10
0.00111632
9.09743e-10
0.00111633
9.8275e-10
0.00111633
1.18859e-09
0.00111633
1.41181e-09
0.00111633
1.435e-09
1.43751e-09
0.00116987
1.64644e-09
0.00116987
1.64741e-09
0.00116987
1.33665e-09
0.00116987
9.15515e-10
0.00116987
4.47645e-10
0.00116987
-1.22416e-11
0.00116987
-4.13088e-10
0.00116987
-6.87729e-10
0.00116987
-8.06852e-10
0.00116987
-7.83892e-10
0.00116987
-7.18922e-10
0.00116987
-8.18048e-10
0.00116987
-1.05486e-09
0.00116987
-1.22164e-09
0.00116987
-1.2908e-09
0.00116987
-1.29959e-09
0.00116987
-1.25209e-09
0.00116987
-1.19043e-09
0.00116987
-1.13866e-09
0.00116987
-1.08357e-09
0.00116987
-1.00202e-09
0.00116987
-9.02097e-10
0.00116987
-7.92693e-10
0.00116987
-6.7493e-10
0.00116987
-5.31774e-10
0.00116987
-3.4778e-10
0.00116987
-1.26182e-10
0.00116987
1.23052e-10
0.00116987
4.08499e-10
0.00116987
6.7152e-10
0.00116987
8.89676e-10
0.00116987
9.9655e-10
0.00116987
1.01954e-09
0.00116987
8.69546e-10
0.00116987
8.21849e-10
0.00116987
8.79213e-10
0.00116987
1.11193e-09
0.00116987
1.3421e-09
0.00116987
1.44551e-09
1.57724e-09
0.00122423
1.55661e-09
0.00122423
1.45642e-09
0.00122423
1.1971e-09
0.00122423
8.49924e-10
0.00122423
4.20625e-10
0.00122423
-2.24855e-11
0.00122423
-4.08442e-10
0.00122423
-6.59707e-10
0.00122423
-7.57532e-10
0.00122423
-7.18957e-10
0.00122423
-6.34308e-10
0.00122423
-7.10279e-10
0.00122423
-9.35199e-10
0.00122423
-1.11061e-09
0.00122423
-1.19352e-09
0.00122423
-1.21433e-09
0.00122423
-1.18569e-09
0.00122423
-1.1392e-09
0.00122423
-1.091e-09
0.00122423
-1.0343e-09
0.00122423
-9.56451e-10
0.00122423
-8.59077e-10
0.00122423
-7.46996e-10
0.00122423
-6.3135e-10
0.00122423
-4.9443e-10
0.00122423
-3.17829e-10
0.00122423
-1.10318e-10
0.00122423
1.22853e-10
0.00122423
3.90926e-10
0.00122423
6.34558e-10
0.00122423
8.31228e-10
0.00122423
9.27554e-10
0.00122423
9.44872e-10
0.00122423
7.7871e-10
0.00122423
7.24329e-10
0.00122423
7.67308e-10
0.00122423
1.01566e-09
0.00122423
1.25359e-09
0.00122423
1.43253e-09
1.62722e-09
0.00127961
1.41559e-09
0.00127961
1.24405e-09
0.00127961
1.04153e-09
0.00127961
7.65194e-10
0.00127961
3.81667e-10
0.00127961
-2.77462e-11
0.00127961
-3.81298e-10
0.00127961
-6.03424e-10
0.00127961
-6.82204e-10
0.00127961
-6.32918e-10
0.00127961
-5.34791e-10
0.00127961
-5.85692e-10
0.00127961
-7.95933e-10
0.00127961
-9.80001e-10
0.00127961
-1.07746e-09
0.00127961
-1.11233e-09
0.00127961
-1.09629e-09
0.00127961
-1.06201e-09
0.00127961
-1.02266e-09
0.00127961
-9.68949e-10
0.00127961
-8.92962e-10
0.00127961
-7.94704e-10
0.00127961
-6.8763e-10
0.0012796
-5.7659e-10
0.0012796
-4.46571e-10
0.0012796
-2.89163e-10
0.0012796
-9.89984e-11
0.0012796
1.1581e-10
0.0012796
3.61453e-10
0.0012796
5.80799e-10
0.00127961
7.56549e-10
0.00127961
8.45128e-10
0.00127961
8.45539e-10
0.00127961
6.7689e-10
0.00127961
6.24634e-10
0.00127961
6.57126e-10
0.00127961
9.11636e-10
0.00127961
1.14624e-09
0.00127961
1.37832e-09
1.60218e-09
0.00133613
1.24701e-09
0.00133613
1.02707e-09
0.00133613
8.78888e-10
0.00133613
6.69112e-10
0.00133613
3.41014e-10
0.00133613
-1.85328e-11
0.00133613
-3.30617e-10
0.00133613
-5.23894e-10
0.00133613
-5.86655e-10
0.00133613
-5.31927e-10
0.00133613
-4.27202e-10
0.00133613
-4.55599e-10
0.00133613
-6.48174e-10
0.00133613
-8.35794e-10
0.00133613
-9.4568e-10
0.00133613
-9.90427e-10
0.00133613
-9.87489e-10
0.00133613
-9.6591e-10
0.00133613
-9.33703e-10
0.00133613
-8.84673e-10
0.00133613
-8.12854e-10
0.00133613
-7.23611e-10
0.00133613
-6.24395e-10
0.00133613
-5.19847e-10
0.00133613
-4.04668e-10
0.00133613
-2.61538e-10
0.00133613
-8.48902e-11
0.00133613
1.09539e-10
0.00133613
3.2699e-10
0.00133613
5.19453e-10
0.00133613
6.71139e-10
0.00133613
7.41213e-10
0.00133613
7.29918e-10
0.00133613
5.71614e-10
0.00133613
5.23589e-10
0.00133613
5.47757e-10
0.00133613
7.95298e-10
0.00133613
1.01405e-09
0.00133613
1.27253e-09
1.51191e-09
0.00139389
1.06188e-09
0.0013939
8.17221e-10
0.0013939
7.17583e-10
0.0013939
5.7233e-10
0.0013939
3.08246e-10
0.0013939
6.93705e-12
0.0013939
-2.60832e-10
0.0013939
-4.27034e-10
0.0013939
-4.77222e-10
0.0013939
-4.22505e-10
0.00139389
-3.19104e-10
0.00139389
-3.30337e-10
0.00139389
-5.02413e-10
0.00139389
-6.85005e-10
0.00139389
-8.00591e-10
0.00139389
-8.5462e-10
0.00139389
-8.62371e-10
0.00139389
-8.52934e-10
0.00139389
-8.28005e-10
0.00139389
-7.83621e-10
0.00139389
-7.2338e-10
0.00139389
-6.50256e-10
0.00139389
-5.61793e-10
0.00139389
-4.64764e-10
0.00139389
-3.5849e-10
0.00139389
-2.28408e-10
0.00139389
-7.34007e-11
0.00139389
9.72598e-11
0.00139389
2.86442e-10
0.00139389
4.5024e-10
0.00139389
5.72261e-10
0.00139389
6.24185e-10
0.00139389
6.07037e-10
0.00139389
4.62264e-10
0.00139389
4.17241e-10
0.00139389
4.3646e-10
0.00139389
6.65591e-10
0.00139389
8.63063e-10
0.00139389
1.13136e-09
1.36949e-09
0.00145294
8.75958e-10
0.00145294
6.10111e-10
0.00145294
5.55277e-10
0.00145294
4.79205e-10
0.00145294
2.84445e-10
0.00145294
4.29549e-11
0.00145294
-1.79802e-10
0.00145294
-3.20135e-10
0.00145294
-3.60897e-10
0.00145294
-3.10993e-10
0.00145294
-2.16441e-10
0.00145294
-2.1716e-10
0.00145294
-3.63252e-10
0.00145294
-5.34055e-10
0.00145294
-6.51081e-10
0.00145294
-7.08403e-10
0.00145294
-7.24122e-10
0.00145294
-7.25242e-10
0.00145294
-7.11362e-10
0.00145294
-6.77811e-10
0.00145294
-6.28886e-10
0.00145294
-5.67815e-10
0.00145294
-4.90305e-10
0.00145294
-4.01646e-10
0.00145294
-3.07235e-10
0.00145294
-1.98443e-10
0.00145294
-6.98448e-11
0.00145294
7.53924e-11
0.00145294
2.34967e-10
0.00145294
3.6931e-10
0.00145294
4.64837e-10
0.00145294
5.01661e-10
0.00145294
4.75823e-10
0.00145294
3.47568e-10
0.00145294
3.10228e-10
0.00145294
3.2576e-10
0.00145294
5.33305e-10
0.00145294
7.06338e-10
0.00145294
9.68406e-10
1.20339e-09
0.00151329
6.97655e-10
0.00151329
4.20434e-10
0.00151329
4.03146e-10
0.00151329
3.92592e-10
0.00151329
2.64147e-10
0.00151329
8.09084e-11
0.00151329
-9.64509e-11
0.00151329
-2.11257e-10
0.00151329
-2.44761e-10
0.00151329
-2.03361e-10
0.00151329
-1.23813e-10
0.00151329
-1.18522e-10
0.00151329
-2.38347e-10
0.00151329
-3.90234e-10
0.00151329
-4.99952e-10
0.00151329
-5.5528e-10
0.00151329
-5.77965e-10
0.00151329
-5.88723e-10
0.00151329
-5.84895e-10
0.00151329
-5.62408e-10
0.00151329
-5.22358e-10
0.00151329
-4.74317e-10
0.00151329
-4.12049e-10
0.00151329
-3.38037e-10
0.00151329
-2.608e-10
0.00151329
-1.72668e-10
0.00151329
-6.92479e-11
0.00151329
4.73329e-11
0.00151329
1.74495e-10
0.00151329
2.77924e-10
0.00151329
3.48627e-10
0.00151329
3.72379e-10
0.00151329
3.42566e-10
0.00151329
2.35598e-10
0.00151329
2.07423e-10
0.00151329
2.2065e-10
0.00151329
4.01874e-10
0.00151329
5.48438e-10
0.00151329
7.90701e-10
1.01856e-09
0.00157491
5.30374e-10
0.00157491
2.68194e-10
0.00157491
2.77855e-10
0.00157491
3.14996e-10
0.00157491
2.42158e-10
0.00157491
1.12867e-10
0.00157491
-1.93944e-11
0.00157491
-1.07744e-10
0.00157491
-1.34416e-10
0.00157491
-1.03384e-10
0.00157491
-4.25566e-11
0.00157491
-3.59404e-11
0.00157491
-1.29579e-10
0.00157491
-2.55493e-10
0.00157491
-3.50014e-10
0.00157491
-4.02186e-10
0.00157491
-4.28059e-10
0.00157491
-4.44742e-10
0.00157491
-4.4841e-10
0.00157491
-4.33905e-10
0.00157491
-4.06996e-10
0.00157491
-3.77022e-10
0.00157491
-3.33643e-10
0.00157491
-2.77257e-10
0.00157491
-2.17153e-10
0.00157491
-1.49963e-10
0.00157491
-7.37141e-11
0.00157491
1.32736e-11
0.00157491
1.07108e-10
0.00157491
1.79954e-10
0.00157491
2.27917e-10
0.00157491
2.39511e-10
0.00157491
2.09245e-10
0.00157491
1.27912e-10
0.00157491
1.1129e-10
0.00157491
1.25892e-10
0.00157491
2.76429e-10
0.00157491
3.92048e-10
0.00157491
6.01562e-10
8.12994e-10
0.00163775
3.75965e-10
0.00163775
1.58901e-10
0.00163775
1.84686e-10
0.00163775
2.4507e-10
0.00163775
2.1317e-10
0.00163775
1.32461e-10
0.00163775
4.53405e-11
0.00163775
-1.42836e-11
0.00163775
-3.29766e-11
0.00163775
-1.23611e-11
0.00163775
2.81218e-11
0.00163775
3.32099e-11
0.00163774
-3.34592e-11
0.00163774
-1.28938e-10
0.00163774
-2.03586e-10
0.00163774
-2.47504e-10
0.00163774
-2.74971e-10
0.00163774
-2.96174e-10
0.00163774
-3.05891e-10
0.00163774
-3.02399e-10
0.00163774
-2.91601e-10
0.00163774
-2.78567e-10
0.00163774
-2.52621e-10
0.00163774
-2.15351e-10
0.00163774
-1.76274e-10
0.00163774
-1.33507e-10
0.00163774
-8.40723e-11
0.00163774
-2.66871e-11
0.00163774
3.48216e-11
0.00163774
7.89946e-11
0.00163774
1.03699e-10
0.00163774
1.02938e-10
0.00163774
7.82612e-11
0.00163774
2.73848e-11
0.00163774
2.44982e-11
0.00163774
4.40552e-11
0.00163774
1.61338e-10
0.00163774
2.44408e-10
0.00163774
4.05415e-10
5.88494e-10
0.00170169
2.27736e-10
0.00170169
9.81125e-11
0.00170169
1.25329e-10
0.00170169
1.78338e-10
0.00170169
1.7259e-10
0.00170169
1.3752e-10
0.00170169
9.70026e-11
0.00170169
6.82525e-11
0.00170169
5.90575e-11
0.00170169
7.0219e-11
0.00170169
9.04111e-11
0.00170169
9.20179e-11
0.00170169
5.25625e-11
0.00170169
-7.4678e-12
0.00170169
-5.80666e-11
0.00170169
-9.24682e-11
0.00170169
-1.18342e-10
0.00170169
-1.4293e-10
0.00170169
-1.61405e-10
0.00170169
-1.71971e-10
0.00170169
-1.76484e-10
0.00170169
-1.77082e-10
0.00170169
-1.6883e-10
0.00170169
-1.54705e-10
0.00170169
-1.39149e-10
0.00170169
-1.21768e-10
0.00170169
-1.002e-10
0.00170169
-7.3524e-11
0.00170169
-4.44307e-11
0.00170169
-2.75378e-11
0.00170169
-2.49431e-11
0.00170169
-3.21629e-11
0.00170169
-4.7201e-11
0.00170169
-6.76566e-11
0.00170169
-5.29824e-11
0.00170169
-2.22229e-11
0.00170169
5.9771e-11
0.00170169
1.10536e-10
0.00170169
2.07403e-10
3.36676e-10
0.0017666
7.71188e-11
0.0017666
8.35131e-11
0.0017666
9.66216e-11
0.0017666
1.10125e-10
0.0017666
1.21232e-10
0.0017666
1.31627e-10
0.0017666
1.38519e-10
0.0017666
1.42072e-10
0.0017666
1.44325e-10
0.0017666
1.47714e-10
0.0017666
1.47762e-10
0.0017666
1.44599e-10
0.0017666
1.32482e-10
0.0017666
1.10472e-10
0.0017666
8.59671e-11
0.0017666
6.3613e-11
0.0017666
4.1217e-11
0.0017666
1.32604e-11
0.0017666
-1.45383e-11
0.0017666
-3.91909e-11
0.0017666
-5.97086e-11
0.0017666
-7.54658e-11
0.0017666
-8.63123e-11
0.0017666
-9.57931e-11
0.0017666
-1.04336e-10
0.0017666
-1.13024e-10
0.0017666
-1.21758e-10
0.0017666
-1.27125e-10
0.0017666
-1.2967e-10
0.0017666
-1.39282e-10
0.0017666
-1.55482e-10
0.0017666
-1.68083e-10
0.0017666
-1.73379e-10
0.0017666
-1.60456e-10
0.0017666
-1.228e-10
0.0017666
-7.35718e-11
0.0017666
-3.06647e-11
0.0017666
-9.9104e-12
0.0017666
1.38159e-11
5.45026e-11
0.0017666
-5.8961e-11
0.0017666
8.58193e-11
0.0017666
7.68078e-11
0.0017666
4.36614e-11
0.0017666
6.84482e-11
0.0017666
1.2076e-10
0.0017666
1.72594e-10
0.0017666
2.08909e-10
0.0017666
2.25651e-10
0.0017666
2.23695e-10
0.0017666
2.04031e-10
0.0017666
1.94784e-10
0.0017666
2.08891e-10
0.0017666
2.23501e-10
0.0017666
2.24202e-10
0.0017666
2.15116e-10
0.0017666
1.9644e-10
0.0017666
1.66943e-10
0.0017666
1.3127e-10
0.0017666
9.08017e-11
0.0017666
5.33472e-11
0.0017666
2.17476e-11
0.0017666
-6.80837e-12
0.0017666
-3.68485e-11
0.0017666
-7.04803e-11
0.0017666
-1.07336e-10
0.0017666
-1.46243e-10
0.0017666
-1.82694e-10
0.0017666
-2.16427e-10
0.0017666
-2.51357e-10
0.0017666
-2.86663e-10
0.0017666
-3.05984e-10
0.0017666
-3.01275e-10
0.0017666
-2.54374e-10
0.0017666
-1.91115e-10
0.0017666
-1.18405e-10
0.0017666
-1.12096e-10
0.0017666
-1.21292e-10
0.0017666
-1.70466e-10
-2.18588e-10
0.0017017
-1.65252e-10
0.0017017
6.63921e-11
0.0017017
3.83946e-11
0.0017017
-1.98906e-11
0.0017017
1.96076e-11
0.0017017
1.07738e-10
0.0017017
2.01494e-10
0.0017017
2.72536e-10
0.0017017
3.07832e-10
0.0017017
3.02511e-10
0.0017017
2.62489e-10
0.0017017
2.46088e-10
0.0017017
2.84009e-10
0.00170169
3.30771e-10
0.00170169
3.54229e-10
0.00170169
3.59243e-10
0.00170169
3.4587e-10
0.00170169
3.13997e-10
0.00170169
2.67899e-10
0.00170169
2.12181e-10
0.00170169
1.60162e-10
0.00170169
1.15656e-10
0.00170169
7.11951e-11
0.00170169
1.86437e-11
0.00170169
-4.07851e-11
0.00170169
-1.03744e-10
0.00170169
-1.71062e-10
0.00170169
-2.38569e-10
0.00170169
-3.00901e-10
0.00170169
-3.58599e-10
0.00170169
-4.15852e-10
0.00170169
-4.42369e-10
0.00170169
-4.29428e-10
0.00170169
-3.5324e-10
0.00170169
-2.6433e-10
0.00170169
-1.65817e-10
0.00170169
-1.86152e-10
0.00170169
-2.23803e-10
0.00170169
-3.37048e-10
-4.42089e-10
0.00163775
-2.6e-10
0.00163775
1.00433e-11
0.00163775
-2.77164e-11
0.00163775
-8.81191e-11
0.00163775
-2.83578e-11
0.00163775
9.45203e-11
0.00163775
2.31139e-10
0.00163775
3.39781e-10
0.00163775
3.95481e-10
0.00163775
3.86405e-10
0.00163775
3.24149e-10
0.00163775
2.99899e-10
0.00163775
3.60563e-10
0.00163775
4.36397e-10
0.00163775
4.81125e-10
0.00163775
4.99259e-10
0.00163775
4.88112e-10
0.00163775
4.52163e-10
0.00163775
3.96586e-10
0.00163775
3.29363e-10
0.00163775
2.66918e-10
0.00163775
2.09815e-10
0.00163775
1.45676e-10
0.00163775
6.85139e-11
0.00163775
-1.42111e-11
0.00163775
-1.00375e-10
0.00163775
-1.96423e-10
0.00163775
-2.91004e-10
0.00163775
-3.77805e-10
0.00163775
-4.6109e-10
0.00163775
-5.41685e-10
0.00163775
-5.75531e-10
0.00163775
-5.58328e-10
0.00163775
-4.56904e-10
0.00163775
-3.44768e-10
0.00163775
-2.2054e-10
0.00163775
-2.5568e-10
0.00163775
-3.14017e-10
0.00163775
-4.80948e-10
-6.22398e-10
0.00157491
-3.65033e-10
0.00157491
-7.88387e-11
0.00157491
-1.21763e-10
0.00157491
-1.65907e-10
0.00157491
-7.65498e-11
0.00157491
8.50918e-11
0.00157491
2.66617e-10
0.00157491
4.12651e-10
0.00157491
4.87945e-10
0.00157491
4.73925e-10
0.00157491
3.8819e-10
0.00157491
3.5722e-10
0.00157491
4.40433e-10
0.00157491
5.4329e-10
0.00157491
6.07995e-10
0.00157491
6.35886e-10
0.00157491
6.24427e-10
0.00157491
5.84266e-10
0.00157491
5.22567e-10
0.00157491
4.47583e-10
0.00157491
3.74017e-10
0.00157491
2.97787e-10
0.00157491
2.1306e-10
0.00157491
1.18977e-10
0.00157491
1.45172e-11
0.00157491
-9.62884e-11
0.00157491
-2.15562e-10
0.00157491
-3.31494e-10
0.00157491
-4.46785e-10
0.00157491
-5.58917e-10
0.00157491
-6.62059e-10
0.00157491
-7.05214e-10
0.00157491
-6.87683e-10
0.00157491
-5.6358e-10
0.00157491
-4.29522e-10
0.00157491
-2.77527e-10
0.00157491
-3.18304e-10
0.00157491
-3.97448e-10
0.00157491
-6.14801e-10
-7.83161e-10
0.00151329
-4.86914e-10
0.00151329
-2.0021e-10
0.00151329
-2.38281e-10
0.00151329
-2.54254e-10
0.00151329
-1.24178e-10
0.00151329
7.99025e-11
0.00151329
3.06584e-10
0.00151329
4.89331e-10
0.00151329
5.83966e-10
0.00151329
5.64434e-10
0.00151329
4.55906e-10
0.00151329
4.20377e-10
0.00151329
5.25111e-10
0.00151329
6.5201e-10
0.00151329
7.35429e-10
0.00151329
7.71845e-10
0.00151329
7.59731e-10
0.00151329
7.17637e-10
0.00151329
6.46992e-10
0.00151329
5.5985e-10
0.00151329
4.70939e-10
0.00151329
3.77928e-10
0.00151329
2.83782e-10
0.00151329
1.74275e-10
0.00151329
4.52272e-11
0.00151329
-8.71286e-11
0.00151329
-2.25016e-10
0.00151329
-3.64959e-10
0.00151329
-5.10534e-10
0.00151329
-6.47677e-10
0.00151329
-7.74928e-10
0.00151329
-8.30197e-10
0.00151329
-8.12774e-10
0.00151329
-6.67368e-10
0.00151329
-5.12912e-10
0.00151329
-3.31809e-10
0.00151329
-3.77297e-10
0.00151329
-4.85991e-10
0.00151329
-7.512e-10
-9.37623e-10
0.00145295
-6.21106e-10
0.00145295
-3.49074e-10
0.00145295
-3.76134e-10
0.00145295
-3.49522e-10
0.00145295
-1.69368e-10
0.00145295
7.68535e-11
0.00145295
3.48347e-10
0.00145295
5.67465e-10
0.00145295
6.80946e-10
0.00145295
6.55515e-10
0.00145295
5.26794e-10
0.00145295
4.8901e-10
0.00145295
6.13899e-10
0.00145295
7.64393e-10
0.00145295
8.65187e-10
0.00145295
9.07167e-10
0.00145295
8.96088e-10
0.00145295
8.49295e-10
0.00145295
7.63304e-10
0.00145295
6.61266e-10
0.00145295
5.60387e-10
0.00145295
4.60958e-10
0.00145295
3.56227e-10
0.00145294
2.26745e-10
0.00145294
7.70948e-11
0.00145294
-7.16092e-11
0.00145294
-2.27577e-10
0.00145294
-3.93364e-10
0.00145295
-5.63948e-10
0.00145295
-7.22658e-10
0.00145295
-8.74855e-10
0.00145295
-9.40055e-10
0.00145295
-9.23831e-10
0.00145295
-7.62322e-10
0.00145295
-5.92747e-10
0.00145295
-3.88589e-10
0.00145295
-4.4483e-10
0.00145295
-5.91326e-10
0.00145295
-8.94822e-10
-1.0892e-09
0.0013939
-7.70586e-10
0.0013939
-5.28741e-10
0.0013939
-5.23158e-10
0.0013939
-4.37238e-10
0.0013939
-2.1286e-10
0.0013939
7.42828e-11
0.0013939
3.88157e-10
0.0013939
6.40258e-10
0.0013939
7.69882e-10
0.0013939
7.39443e-10
0.0013939
5.95021e-10
0.0013939
5.59375e-10
0.0013939
7.05465e-10
0.0013939
8.80573e-10
0.0013939
9.97105e-10
0.0013939
1.04167e-09
0.0013939
1.02843e-09
0.0013939
9.69788e-10
0.0013939
8.71118e-10
0.0013939
7.60277e-10
0.0013939
6.49287e-10
0.0013939
5.39877e-10
0.0013939
4.23029e-10
0.0013939
2.80366e-10
0.0013939
1.13546e-10
0.0013939
-4.7673e-11
0.0013939
-2.20908e-10
0.0013939
-4.09295e-10
0.0013939
-6.00166e-10
0.0013939
-7.79774e-10
0.0013939
-9.51612e-10
0.0013939
-1.02659e-09
0.0013939
-1.0195e-09
0.0013939
-8.48295e-10
0.0013939
-6.71611e-10
0.0013939
-4.59852e-10
0.0013939
-5.35075e-10
0.0013939
-7.18162e-10
0.0013939
-1.03871e-09
-1.22714e-09
0.00133614
-9.14798e-10
0.00133614
-7.24067e-10
0.00133614
-6.7999e-10
0.00133614
-5.25559e-10
0.00133614
-2.57915e-10
0.00133614
6.73829e-11
0.00133614
4.1707e-10
0.00133614
6.94979e-10
0.00133614
8.37766e-10
0.00133614
8.05275e-10
0.00133614
6.54759e-10
0.00133614
6.29592e-10
0.00133614
8.01918e-10
0.00133614
1.0014e-09
0.00133614
1.12666e-09
0.00133614
1.16752e-09
0.00133614
1.14543e-09
0.00133614
1.08083e-09
0.00133614
9.77478e-10
0.00133614
8.58536e-10
0.00133614
7.36445e-10
0.00133614
6.16212e-10
0.00133614
4.91455e-10
0.00133614
3.38778e-10
0.00133614
1.62751e-10
0.00133614
-1.02957e-11
0.00133614
-2.03792e-10
0.00133614
-4.09664e-10
0.00133614
-6.18313e-10
0.00133614
-8.13739e-10
0.00133614
-1.00329e-09
0.00133614
-1.09335e-09
0.00133614
-1.09893e-09
0.00133614
-9.25569e-10
0.00133614
-7.55174e-10
0.00133614
-5.54186e-10
0.00133614
-6.49645e-10
0.00133614
-8.62386e-10
0.00133614
-1.17428e-09
-1.33729e-09
0.00127961
-1.03979e-09
0.00127961
-9.3516e-10
0.00127961
-8.50589e-10
0.00127961
-6.21814e-10
0.00127961
-3.10744e-10
0.00127961
4.77688e-11
0.00127961
4.23516e-10
0.00127961
7.18202e-10
0.00127961
8.73798e-10
0.00127961
8.46895e-10
0.00127961
7.04539e-10
0.00127961
7.02591e-10
0.00127961
9.0441e-10
0.00127961
1.12261e-09
0.00127961
1.24677e-09
0.00127961
1.27748e-09
0.00127961
1.2529e-09
0.00127961
1.18914e-09
0.00127961
1.07998e-09
0.00127961
9.54507e-10
0.00127961
8.28404e-10
0.00127961
7.03757e-10
0.00127961
5.66668e-10
0.00127961
4.03201e-10
0.00127961
2.21805e-10
0.00127961
3.58516e-11
0.00127961
-1.74167e-10
0.00127961
-3.92785e-10
0.00127961
-6.18444e-10
0.00127961
-8.28479e-10
0.00127961
-1.03816e-09
0.00127961
-1.14469e-09
0.00127961
-1.16088e-09
0.00127961
-9.95659e-10
0.00127961
-8.43864e-10
0.00127961
-6.69927e-10
0.00127961
-7.80765e-10
0.00127961
-1.01217e-09
0.00127961
-1.2888e-09
-1.3979e-09
0.00122423
-1.15249e-09
0.00122423
-1.17358e-09
0.00122423
-1.03489e-09
0.00122423
-7.24953e-10
0.00122423
-3.72988e-10
0.00122423
1.08291e-11
0.00122423
3.99234e-10
0.00122423
7.03766e-10
0.00122423
8.75035e-10
0.00122423
8.6603e-10
0.00122423
7.49553e-10
0.00122423
7.8136e-10
0.00122423
1.00725e-09
0.00122423
1.23106e-09
0.00122423
1.35114e-09
0.00122423
1.38309e-09
0.00122423
1.36021e-09
0.00122423
1.29111e-09
0.00122423
1.17779e-09
0.00122423
1.05086e-09
0.00122423
9.26702e-10
0.00122423
7.98266e-10
0.00122423
6.49717e-10
0.00122423
4.80425e-10
0.00122423
2.85772e-10
0.00122423
8.59974e-11
0.00122423
-1.31167e-10
0.00122423
-3.63111e-10
0.00122423
-6.06257e-10
0.00122423
-8.34719e-10
0.00122423
-1.06333e-09
0.00122423
-1.18245e-09
0.00122423
-1.20933e-09
0.00122423
-1.06163e-09
0.00122423
-9.35599e-10
0.00122423
-7.94475e-10
0.00122423
-9.06036e-10
0.00122423
-1.14772e-09
0.00122423
-1.37257e-09
-1.39789e-09
0.00116987
-1.25905e-09
0.00116987
-1.43589e-09
0.00116987
-1.22332e-09
0.00116987
-8.23591e-10
0.00116987
-4.34428e-10
0.00116987
-4.03867e-11
0.00116987
3.43971e-10
0.00116987
6.56849e-10
0.00116987
8.52746e-10
0.00116987
8.74514e-10
0.00116987
7.93174e-10
0.00116987
8.54698e-10
0.00116987
1.09324e-09
0.00116987
1.31847e-09
0.00116987
1.4437e-09
0.00116987
1.47996e-09
0.00116987
1.45395e-09
0.00116987
1.383e-09
0.00116987
1.27352e-09
0.00116987
1.15165e-09
0.00116987
1.02615e-09
0.00116987
8.93569e-10
0.00116987
7.3826e-10
0.00116987
5.61452e-10
0.00116987
3.51871e-10
0.00116987
1.41196e-10
0.00116987
-8.18385e-11
0.00116987
-3.27644e-10
0.00116987
-5.88309e-10
0.00116987
-8.36532e-10
0.00116987
-1.08101e-09
0.00116987
-1.21066e-09
0.00116987
-1.24908e-09
0.00116987
-1.13207e-09
0.00116987
-1.02498e-09
0.00116987
-9.12999e-10
0.00116987
-1.00208e-09
0.00116987
-1.24916e-09
0.00116987
-1.428e-09
-1.34492e-09
0.00111633
-1.33628e-09
0.00111633
-1.67422e-09
0.00111633
-1.38922e-09
0.00111633
-9.0012e-10
0.00111633
-4.84287e-10
0.00111633
-1.00858e-10
0.00111633
2.73196e-10
0.00111633
5.99649e-10
0.00111633
8.20221e-10
0.00111633
8.67521e-10
0.00111633
8.13563e-10
0.00111633
8.97507e-10
0.00111633
1.1453e-09
0.00111633
1.38266e-09
0.00111633
1.51648e-09
0.00111633
1.54997e-09
0.00111633
1.52632e-09
0.00111633
1.46525e-09
0.00111633