/*--------------------------------*- C++ -*----------------------------------*\
  =========                 |
  \\      /  F ield         | OpenFOAM: The Open Source CFD Toolbox
   \\    /   O peration     | Website:  https://openfoam.org
    \\  /    A nd           | Version:  dev
     \\/     M anipulation  |

   OpenFOAM for Windows 20.09 (v1)
   Built by CFD Support, www.cfdsupport.com (based on Symscape).
\*---------------------------------------------------------------------------*/
FoamFile
{
    version     2.0;
    format      ascii;
    class       surfaceScalarField;
    location    "10";
    object      alphaPhi0.water;
}
// * * * * * * * * * * * * * * * * * * * * * * * * * * * * * * * * * * * * * //

dimensions      [0 3 -1 0 0 0 0];

internalField   nonuniform List<scalar> 
217
(
3.90018e-08
-3.71008e-10
3.89871e-08
7.84166e-11
3.8936e-08
4.65717e-10
9.54367e-10
3.88612e-08
3.99273e-08
-3.97543e-10
3.99133e-08
9.24382e-11
3.98592e-08
5.19841e-10
1.02603e-09
3.97875e-08
4.07439e-08
-4.23935e-10
4.07305e-08
1.05777e-10
4.06747e-08
5.75663e-10
1.09468e-09
4.06061e-08
4.14634e-08
-4.49837e-10
4.14508e-08
1.1833e-10
4.13939e-08
6.32634e-10
1.16025e-09
4.13283e-08
4.20963e-08
-4.75187e-10
4.20845e-08
1.30171e-10
4.20268e-08
6.90361e-10
1.2223e-09
4.19647e-08
4.26527e-08
-5.00125e-10
4.26415e-08
1.41314e-10
4.25835e-08
7.48417e-10
1.28069e-09
4.25251e-08
4.31414e-08
-5.24641e-10
4.3131e-08
1.51705e-10
4.3073e-08
8.06421e-10
1.33495e-09
4.30188e-08
4.35713e-08
-5.49015e-10
4.35617e-08
1.61331e-10
4.35041e-08
8.64026e-10
1.38477e-09
4.34543e-08
4.39502e-08
-5.73276e-10
4.39413e-08
1.70213e-10
4.38846e-08
9.20694e-10
1.42967e-09
4.38397e-08
4.42855e-08
-5.97342e-10
4.42773e-08
1.78414e-10
4.4222e-08
9.75959e-10
1.46907e-09
4.41826e-08
4.45842e-08
-6.21013e-10
4.45769e-08
1.85711e-10
4.45235e-08
1.02931e-09
1.5025e-09
4.44901e-08
4.48533e-08
-6.44194e-10
4.48465e-08
1.92469e-10
4.47955e-08
1.08032e-09
1.52934e-09
4.47687e-08
4.50985e-08
-6.66089e-10
4.50925e-08
1.98545e-10
4.50445e-08
1.12829e-09
1.54891e-09
4.50249e-08
4.53268e-08
-6.86008e-10
4.53205e-08
2.04874e-10
4.52759e-08
1.17287e-09
1.56043e-09
4.52644e-08
4.5542e-08
4.55406e-08
4.54923e-08
4.55e-08
3.88199e-08
7.16951e-10
3.889e-08
-8.483e-10
3.89472e-08
-6.33742e-10
-3.6911e-10
3.97469e-08
7.57527e-10
3.98177e-08
-9.19077e-10
3.98717e-08
-6.87789e-10
-3.98176e-10
4.05681e-08
7.95512e-10
4.06378e-08
-9.8881e-10
4.06911e-08
-7.41119e-10
-4.24521e-10
4.12923e-08
8.3155e-10
4.13607e-08
-1.05729e-09
4.14135e-08
-7.93922e-10
-4.48447e-10
4.19309e-08
8.65352e-10
4.1998e-08
-1.12442e-09
4.20498e-08
-8.45686e-10
-4.69598e-10
4.24933e-08
8.97194e-10
4.25587e-08
-1.18994e-09
4.26092e-08
-8.96119e-10
-4.88135e-10
4.2989e-08
9.26979e-10
4.30523e-08
-1.25328e-09
4.31008e-08
-9.44593e-10
-5.04221e-10
4.34264e-08
9.54785e-10
4.34872e-08
-1.31402e-09
4.35333e-08
-9.90731e-10
-5.17824e-10
4.38139e-08
9.80596e-10
4.38714e-08
-1.37148e-09
4.39147e-08
-1.03405e-09
-5.29036e-10
4.41586e-08
1.00459e-09
4.42122e-08
-1.42507e-09
4.42524e-08
-1.07419e-09
-5.38081e-10
4.4468e-08
1.02668e-09
4.45171e-08
-1.47417e-09
4.45538e-08
-1.11081e-09
-5.44859e-10
4.47484e-08
1.04701e-09
4.47924e-08
-1.51818e-09
4.48253e-08
-1.14371e-09
-5.49686e-10
4.50064e-08
1.06552e-09
4.50451e-08
-1.55684e-09
4.50743e-08
-1.17296e-09
-5.52036e-10
4.52478e-08
1.08214e-09
4.52808e-08
-1.58994e-09
4.53064e-08
-1.19858e-09
-5.52503e-10
4.54751e-08
4.55105e-08
4.55294e-08
)
;

boundaryField
{
    topWall
    {
        type            calculated;
        value           nonuniform List<scalar> 0();
    }
    botWall
    {
        type            calculated;
        value           nonuniform List<scalar> 0();
    }
    inlet
    {
        type            cyclic;
        value           nonuniform List<scalar> 
15
(
-4.55265e-08
-4.53069e-08
-4.50766e-08
-4.48301e-08
-4.45605e-08
-4.42614e-08
-4.39259e-08
-4.35469e-08
-4.31169e-08
-4.26277e-08
-4.20709e-08
-4.14375e-08
-4.07175e-08
-3.99008e-08
-3.89759e-08
)
;
    }
    outlet
    {
        type            cyclic;
        value           nonuniform List<scalar> 
15
(
4.55265e-08
4.53069e-08
4.50766e-08
4.48301e-08
4.45605e-08
4.42614e-08
4.39259e-08
4.35469e-08
4.31169e-08
4.26277e-08
4.20709e-08
4.14375e-08
4.07175e-08
3.99008e-08
3.89759e-08
)
;
    }
    fixWall
    {
        type            empty;
        value           nonuniform List<scalar> 0();
    }
    procBoundary1to0
    {
        type            processor;
        value           nonuniform List<scalar> 8(3.45407e-10 -6.42643e-11 -4.16953e-10 -8.79828e-10 -6.75772e-10 7.79285e-10 5.76624e-10 3.39809e-10);
    }
    procBoundary1to2
    {
        type            processor;
        value           nonuniform List<scalar> 8(-7.00706e-10 2.06162e-10 1.22114e-09 1.55162e-09 1.10808e-09 -1.62713e-09 -1.21817e-09 -5.48936e-10);
    }
}


// ************************************************************************* //
