/*--------------------------------*- C++ -*----------------------------------*\
  =========                 |
  \\      /  F ield         | OpenFOAM: The Open Source CFD Toolbox
   \\    /   O peration     | Website:  https://openfoam.org
    \\  /    A nd           | Version:  dev
     \\/     M anipulation  |

   OpenFOAM for Windows 20.09 (v1)
   Built by CFD Support, www.cfdsupport.com (based on Symscape).
\*---------------------------------------------------------------------------*/
FoamFile
{
    version     2.0;
    format      ascii;
    class       volSymmTensorField;
    location    "10";
    object      devReff;
}
// * * * * * * * * * * * * * * * * * * * * * * * * * * * * * * * * * * * * * //

dimensions      [0 2 -2 0 0 0 0];

internalField   nonuniform List<symmTensor> 
120
(
(-2.37714e-07 -0.000272122 -0 2.30214e-07 -0 7.50038e-09)
(1.50546e-07 -0.000272859 -0 -1.61836e-07 -0 1.12897e-08)
(4.14053e-07 -0.000272296 -0 -4.18598e-07 -0 4.54509e-09)
(6.95947e-07 -0.000271669 -0 -6.80324e-07 -0 -1.56228e-08)
(-2.45188e-07 -0.000240746 -0 2.44317e-07 -0 8.70852e-10)
(1.44699e-07 -0.00024166 -0 -1.51594e-07 -0 6.89532e-09)
(4.37865e-07 -0.000240924 -0 -4.4428e-07 -0 6.41552e-09)
(6.6851e-07 -0.000240532 -0 -6.50028e-07 -0 -1.84813e-08)
(-2.58267e-07 -0.000212548 -0 2.69961e-07 -0 -1.1694e-08)
(1.32753e-07 -0.000213447 -0 -1.3186e-07 -0 -8.92236e-10)
(4.51414e-07 -0.000212826 -0 -4.563e-07 -0 4.88637e-09)
(6.43825e-07 -0.00021264 -0 -6.2588e-07 -0 -1.7945e-08)
(-2.49131e-07 -0.000187348 -0 2.5473e-07 -0 -5.59874e-09)
(1.24903e-07 -0.000188206 -0 -1.20916e-07 -0 -3.98705e-09)
(4.64091e-07 -0.000187671 -0 -4.70551e-07 -0 6.4602e-09)
(6.15021e-07 -0.00018766 -0 -5.98288e-07 -0 -1.67332e-08)
(-2.43526e-07 -0.000164932 -0 2.45709e-07 -0 -2.18274e-09)
(1.26186e-07 -0.00016575 -0 -1.29131e-07 -0 2.94493e-09)
(4.70847e-07 -0.00016529 -0 -4.77774e-07 -0 6.92671e-09)
(5.81853e-07 -0.00016545 -0 -5.62526e-07 -0 -1.93266e-08)
(-2.4382e-07 -0.000145118 -0 2.49448e-07 -0 -5.62817e-09)
(1.20806e-07 -0.000145885 -0 -1.24262e-07 -0 3.45627e-09)
(4.72734e-07 -0.000145482 -0 -4.78757e-07 -0 6.02358e-09)
(5.48814e-07 -0.000145801 -0 -5.31225e-07 -0 -1.7589e-08)
(-2.38102e-07 -0.000127725 -0 2.40298e-07 -0 -2.19533e-09)
(1.15176e-07 -0.000128454 -0 -1.18814e-07 -0 3.63884e-09)
(4.7225e-07 -0.000128111 -0 -4.78829e-07 -0 6.57907e-09)
(5.10957e-07 -0.000128591 -0 -4.92362e-07 -0 -1.85944e-08)
(-2.38881e-07 -0.000112603 -0 2.43788e-07 -0 -4.9066e-09)
(1.08541e-07 -0.000113279 -0 -1.12158e-07 -0 3.61664e-09)
(4.67915e-07 -0.000112989 -0 -4.74875e-07 -0 6.96053e-09)
(4.69432e-07 -0.000113641 -0 -4.50528e-07 -0 -1.8904e-08)
(-2.35263e-07 -9.95939e-05 -0 2.38285e-07 -0 -3.02197e-09)
(1.02989e-07 -0.000100202 -0 -1.06877e-07 -0 3.88822e-09)
(4.582e-07 -9.99911e-05 -0 -4.64114e-07 -0 5.91423e-09)
(4.25463e-07 -0.000100828 -0 -4.07436e-07 -0 -1.8027e-08)
(-2.35241e-07 -8.8598e-05 -0 2.4158e-07 -0 -6.33852e-09)
(9.38422e-08 -8.9112e-05 -0 -9.55578e-08 -0 1.71561e-09)
(4.42149e-07 -8.8969e-05 -0 -4.45651e-07 -0 3.50186e-09)
(3.74314e-07 -9.00078e-05 -0 -3.55195e-07 -0 -1.91191e-08)
(-2.3028e-07 -7.94862e-05 -0 2.3589e-07 -0 -5.61067e-09)
(9.152e-08 -7.98832e-05 -0 -9.58571e-08 -0 4.33709e-09)
(4.34098e-07 -7.98288e-05 -0 -4.47339e-07 -0 1.32412e-08)
(3.1886e-07 -8.10717e-05 -0 -2.99417e-07 -0 -1.94435e-08)
(-2.14972e-07 -7.22468e-05 -0 2.1447e-07 -0 5.01245e-10)
(8.86968e-08 -7.24315e-05 -0 -9.62264e-08 -0 7.52956e-09)
(4.01173e-07 -7.24359e-05 -0 -4.05006e-07 -0 3.83385e-09)
(2.57939e-07 -7.38746e-05 -0 -2.38549e-07 -0 -1.93895e-08)
(-2.1243e-07 -6.67302e-05 -0 2.22772e-07 -0 -1.03423e-08)
(7.94392e-08 -6.66117e-05 -0 -7.75439e-08 -0 -1.89526e-09)
(3.79511e-07 -6.67017e-05 -0 -3.88111e-07 -0 8.59935e-09)
(1.88668e-07 -6.83696e-05 -0 -1.67727e-07 -0 -2.09405e-08)
(-1.79015e-07 -6.29727e-05 -0 1.83257e-07 -0 -4.24202e-09)
(8.88321e-08 -6.2389e-05 -0 -9.50905e-08 -0 6.25846e-09)
(3.56169e-07 -6.25673e-05 -0 -3.75519e-07 -0 1.93497e-08)
(1.0917e-07 -6.43988e-05 -0 -8.29201e-08 -0 -2.62504e-08)
(-1.31055e-07 -6.05114e-05 -0 1.28696e-07 -0 2.35833e-09)
(1.00003e-07 -5.84834e-05 -0 -1.04709e-07 -0 4.70569e-09)
(3.01159e-07 -5.95971e-05 -0 -3.00473e-07 -0 -6.85808e-10)
(2.75761e-08 -6.1905e-05 -0 3.55741e-10 -0 -2.79319e-08)
(3.67454e-07 -0.00027332 -0 -3.88679e-07 -0 2.1225e-08)
(-6.08644e-07 -0.000273353 -0 6.3029e-07 -0 -2.16456e-08)
(-5.11314e-07 -0.000273258 -0 5.12106e-07 -0 -7.91623e-10)
(-2.69397e-07 -0.000273028 -0 2.74966e-07 -0 -5.56937e-09)
(3.32386e-07 -0.000242321 -0 -3.4869e-07 -0 1.63046e-08)
(-6.21764e-07 -0.000242005 -0 6.63378e-07 -0 -4.16139e-08)
(-5.00934e-07 -0.000241884 -0 5.00395e-07 -0 5.38391e-10)
(-2.47435e-07 -0.000241601 -0 2.50225e-07 -0 -2.79046e-09)
(3.20992e-07 -0.000214379 -0 -3.47025e-07 -0 2.60327e-08)
(-5.80705e-07 -0.000213902 -0 5.91822e-07 -0 -1.11166e-08)
(-4.78289e-07 -0.000213805 -0 4.61663e-07 -0 1.66261e-08)
(-2.27864e-07 -0.000213502 -0 2.29902e-07 -0 -2.03792e-09)
(3.06599e-07 -0.000189378 -0 -3.41455e-07 -0 3.48559e-08)
(-5.58857e-07 -0.000188832 -0 5.59782e-07 -0 -9.25241e-10)
(-4.66436e-07 -0.000188695 -0 4.47032e-07 -0 1.94048e-08)
(-2.02338e-07 -0.000188339 -0 2.01963e-07 -0 3.74958e-10)
(2.76721e-07 -0.000167132 -0 -2.99943e-07 -0 2.32218e-08)
(-5.67143e-07 -0.000166518 -0 5.90735e-07 -0 -2.35923e-08)
(-4.65528e-07 -0.000166297 -0 4.54979e-07 -0 1.05488e-08)
(-1.81248e-07 -0.000165885 -0 1.81627e-07 -0 -3.78534e-10)
(2.56665e-07 -0.000147506 -0 -2.79648e-07 -0 2.29828e-08)
(-5.45753e-07 -0.000146858 -0 5.64926e-07 -0 -1.91733e-08)
(-4.51582e-07 -0.000146496 -0 4.40964e-07 -0 1.06184e-08)
(-1.60432e-07 -0.000146021 -0 1.63692e-07 -0 -3.2596e-09)
(2.40405e-07 -0.000130322 -0 -2.65094e-07 -0 2.46885e-08)
(-5.26487e-07 -0.000129609 -0 5.46827e-07 -0 -2.034e-08)
(-4.34065e-07 -0.000129073 -0 4.2265e-07 -0 1.14153e-08)
(-1.35187e-07 -0.000128551 -0 1.35432e-07 -0 -2.4578e-10)
(2.19448e-07 -0.000115435 -0 -2.41784e-07 -0 2.2336e-08)
(-5.02228e-07 -0.000114651 -0 5.23441e-07 -0 -2.1213e-08)
(-4.1371e-07 -0.000113916 -0 4.03329e-07 -0 1.03815e-08)
(-1.14575e-07 -0.000113356 -0 1.16905e-07 -0 -2.32946e-09)
(2.04606e-07 -0.000102697 -0 -2.29871e-07 -0 2.52653e-08)
(-4.71213e-07 -0.000101811 -0 4.91034e-07 -0 -1.98206e-08)
(-3.8759e-07 -0.000100884 -0 3.75794e-07 -0 1.17955e-08)
(-9.14676e-08 -0.00010032 -0 9.17368e-08 -0 -2.69143e-10)
(1.89632e-07 -9.19786e-05 -0 -2.17674e-07 -0 2.80427e-08)
(-4.33052e-07 -9.09748e-05 -0 4.49849e-07 -0 -1.67968e-08)
(-3.60702e-07 -8.98451e-05 -0 3.50071e-07 -0 1.0631e-08)
(-7.04602e-08 -8.93021e-05 -0 7.16158e-08 -0 -1.15554e-09)
(1.56667e-07 -8.31618e-05 -0 -1.69038e-07 -0 1.23703e-08)
(-4.07019e-07 -8.20423e-05 -0 4.38268e-07 -0 -3.12489e-08)
(-3.32468e-07 -8.07492e-05 -0 3.2445e-07 -0 8.0172e-09)
(-5.19826e-08 -8.02465e-05 -0 5.42486e-08 -0 -2.26594e-09)
(1.53549e-07 -7.6143e-05 -0 -1.80727e-07 -0 2.7178e-08)
(-3.41783e-07 -7.49417e-05 -0 3.52394e-07 -0 -1.0611e-08)
(-2.90573e-07 -7.34606e-05 -0 2.72908e-07 -0 1.76646e-08)
(-2.45355e-08 -7.30666e-05 -0 2.17471e-08 -0 2.78843e-09)
(1.35274e-07 -7.0803e-05 -0 -1.64694e-07 -0 2.94203e-08)
(-3.01004e-07 -6.95471e-05 -0 3.20479e-07 -0 -1.94746e-08)
(-2.60649e-07 -6.80469e-05 -0 2.4662e-07 -0 1.40292e-08)
(-9.30164e-09 -6.77882e-05 -0 9.19053e-09 -0 1.11106e-10)
(1.07804e-07 -6.70319e-05 -0 -1.31423e-07 -0 2.36193e-08)
(-2.69719e-07 -6.58469e-05 -0 3.05058e-07 -0 -3.53396e-08)
(-2.38116e-07 -6.44184e-05 -0 2.30001e-07 -0 8.11482e-09)
(9.10422e-09 -6.44016e-05 -0 -1.82375e-09 -0 -7.28047e-09)
(1.07106e-07 -6.50382e-05 -0 -1.59564e-07 -0 5.24576e-08)
(-2.00312e-07 -6.43587e-05 -0 2.11266e-07 -0 -1.09541e-08)
(-2.15291e-07 -6.23136e-05 -0 2.07502e-07 -0 7.7896e-09)
(4.3005e-08 -6.27725e-05 -0 -4.74578e-08 -0 4.4528e-09)
)
;

boundaryField
{
    topWall
    {
        type            calculated;
        value           nonuniform List<symmTensor> 0();
    }
    botWall
    {
        type            calculated;
        value           nonuniform List<symmTensor> 0();
    }
    inlet
    {
        type            cyclic;
    }
    outlet
    {
        type            cyclic;
    }
    fixWall
    {
        type            empty;
    }
    procBoundary1to0
    {
        type            processor;
        value           nonuniform List<symmTensor> 8((-2.55494e-07 -0.000306829 -0 2.58743e-07 -0 -3.24972e-09) (1.51986e-07 -0.000307375 -0 -1.60723e-07 -0 8.73729e-09) (4.01114e-07 -0.000306919 -0 -4.09992e-07 -0 8.87793e-09) (7.05239e-07 -0.000306223 -0 -6.86354e-07 -0 -1.88846e-08) (3.93242e-07 -0.000307674 -0 -4.12191e-07 -0 1.89493e-08) (-6.22814e-07 -0.000307834 -0 6.60819e-07 -0 -3.80053e-08) (-5.19203e-07 -0.000307728 -0 5.24121e-07 -0 -4.91805e-09) (-2.84221e-07 -0.000307629 -0 2.85879e-07 -0 -1.65795e-09));
    }
    procBoundary1to2
    {
        type            processor;
        value           nonuniform List<symmTensor> 8((-5.49707e-08 -5.95528e-05 -0 7.97757e-08 -0 -2.4805e-08) (1.15945e-07 -5.67843e-05 -0 -1.18424e-07 -0 2.47917e-09) (2.26877e-07 -5.86187e-05 -0 -2.33141e-07 -0 6.26372e-09) (-6.10246e-08 -6.1234e-05 -0 7.08057e-08 -0 -9.78103e-09) (1.49223e-08 -6.44492e-05 -0 -3.04217e-08 -0 1.54994e-08) (-1.67087e-07 -6.39729e-05 -0 1.95738e-07 -0 -2.86503e-08) (-2.04681e-07 -6.10505e-05 -0 2.19492e-07 -0 -1.48104e-08) (7.29857e-08 -6.17385e-05 -0 -6.97563e-08 -0 -3.22945e-09));
    }
}


// ************************************************************************* //
