/*--------------------------------*- C++ -*----------------------------------*\
  =========                 |
  \\      /  F ield         | OpenFOAM: The Open Source CFD Toolbox
   \\    /   O peration     | Website:  https://openfoam.org
    \\  /    A nd           | Version:  dev
     \\/     M anipulation  |

   OpenFOAM for Windows 20.09 (v1)
   Built by CFD Support, www.cfdsupport.com (based on Symscape).
\*---------------------------------------------------------------------------*/
FoamFile
{
    version     2.0;
    format      ascii;
    class       volScalarField;
    location    "10";
    object      epsilon;
}
// * * * * * * * * * * * * * * * * * * * * * * * * * * * * * * * * * * * * * //

dimensions      [0 2 -3 0 0 0 0];

internalField   nonuniform List<scalar> 
120
(
3.76753e-14
3.7474e-14
3.7225e-14
3.71066e-14
4.15455e-14
4.13235e-14
4.10485e-14
4.09185e-14
4.56909e-14
4.54468e-14
4.51441e-14
4.50018e-14
5.01399e-14
4.98725e-14
4.95404e-14
4.93851e-14
5.49226e-14
5.46305e-14
5.42673e-14
5.40984e-14
6.00709e-14
5.97529e-14
5.93569e-14
5.91736e-14
6.56222e-14
6.52766e-14
6.48461e-14
6.46477e-14
7.16225e-14
7.12475e-14
7.07802e-14
7.05655e-14
7.81284e-14
7.77217e-14
7.72147e-14
7.69826e-14
8.52072e-14
8.4766e-14
8.42162e-14
8.39651e-14
9.29369e-14
9.24583e-14
9.1862e-14
9.15902e-14
1.01409e-13
1.00889e-13
1.00242e-13
9.99477e-14
1.10728e-13
1.10164e-13
1.09462e-13
1.09143e-13
1.21022e-13
1.20408e-13
1.19645e-13
1.19298e-13
1.32437e-13
1.31768e-13
1.30938e-13
1.30562e-13
3.71741e-14
3.7443e-14
3.76738e-14
3.77544e-14
4.09928e-14
4.12873e-14
4.15424e-14
4.1633e-14
4.50833e-14
4.54047e-14
4.56858e-14
4.57872e-14
4.94742e-14
4.98237e-14
5.01324e-14
5.02458e-14
5.41954e-14
5.45742e-14
5.49121e-14
5.50385e-14
5.9279e-14
5.96881e-14
6.00569e-14
6.01975e-14
6.47617e-14
6.52026e-14
6.5604e-14
6.576e-14
7.06887e-14
7.11631e-14
7.15995e-14
7.17725e-14
7.71157e-14
7.76258e-14
7.80999e-14
7.82917e-14
8.41089e-14
8.46575e-14
8.51724e-14
8.53849e-14
9.17457e-14
9.23359e-14
9.28951e-14
9.31306e-14
1.00116e-13
1.00751e-13
1.01359e-13
1.0162e-13
1.09325e-13
1.1001e-13
1.1067e-13
1.10959e-13
1.19496e-13
1.20235e-13
1.20954e-13
1.21275e-13
1.30776e-13
1.31576e-13
1.32358e-13
1.32714e-13
)
;

boundaryField
{
    topWall
    {
        type            epsilonWallFunction;
        value           nonuniform List<scalar> 0();
    }
    botWall
    {
        type            epsilonWallFunction;
        value           nonuniform List<scalar> 0();
    }
    inlet
    {
        type            cyclic;
    }
    outlet
    {
        type            cyclic;
    }
    fixWall
    {
        type            empty;
    }
    procBoundary1to0
    {
        type            processor;
        value           nonuniform List<scalar> 8(3.40591e-14 3.3877e-14 3.36522e-14 3.35448e-14 3.36059e-14 3.38506e-14 3.40588e-14 3.41306e-14);
    }
    procBoundary1to2
    {
        type            processor;
        value           nonuniform List<scalar> 8(1.45261e-13 1.44531e-13 1.43628e-13 1.43217e-13 1.43451e-13 1.44317e-13 1.45171e-13 1.45568e-13);
    }
}


// ************************************************************************* //
