/*--------------------------------*- C++ -*----------------------------------*\
  =========                 |
  \\      /  F ield         | OpenFOAM: The Open Source CFD Toolbox
   \\    /   O peration     | Website:  https://openfoam.org
    \\  /    A nd           | Version:  dev
     \\/     M anipulation  |

   OpenFOAM for Windows 20.09 (v1)
   Built by CFD Support, www.cfdsupport.com (based on Symscape).
\*---------------------------------------------------------------------------*/
FoamFile
{
    version     2.0;
    format      ascii;
    class       volTensorField;
    location    "10";
    object      gradU;
}
// * * * * * * * * * * * * * * * * * * * * * * * * * * * * * * * * * * * * * //

dimensions      [0 0 -1 0 0 0 0];

internalField   nonuniform List<tensor> 
120
(
(0.000649818 9.4454e-05 0 1.44215 -0.00059019 0 0 0 0)
(-0.00036903 0.000142017 0 1.44601 0.000458783 0 0 0 0)
(-0.0010852 0.00014777 0 1.44302 0.00112133 0 0 0 0)
(-0.00188566 6.65952e-05 0 1.43978 0.00176146 0 0 0 0)
(0.000652055 0.000104126 0 1.27585 -0.000645132 0 0 0 0)
(-0.00036518 0.000156978 0 1.28064 0.000419998 0 0 0 0)
(-0.00114334 0.000158541 0 1.27674 0.00119434 0 0 0 0)
(-0.00182053 6.53652e-05 0 1.27475 0.0016736 0 0 0 0)
(0.000653417 0.000112629 0 1.12639 -0.000746385 0 0 0 0)
(-0.000354159 0.000172675 0 1.13109 0.000347065 0 0 0 0)
(-0.0011833 0.000168663 0 1.12781 0.00122214 0 0 0 0)
(-0.00175369 6.28101e-05 0 1.12693 0.00161103 0 0 0 0)
(0.000645361 0.000120155 0 0.992825 -0.000689871 0 0 0 0)
(-0.00034156 0.000189787 0 0.9973 0.000309863 0 0 0 0)
(-0.00121272 0.000179607 0 0.994479 0.00126408 0 0 0 0)
(-0.00167415 6.14729e-05 0 0.994534 0.00154112 0 0 0 0)
(0.00063956 0.000126697 0 0.874011 -0.000656913 0 0 0 0)
(-0.000326589 0.000205241 0 0.878271 0.000350002 0 0 0 0)
(-0.00122939 0.000189184 0 0.875846 0.00128446 0 0 0 0)
(-0.00159312 5.83625e-05 0 0.876828 0.00143948 0 0 0 0)
(0.000631208 0.000134027 0 0.768994 -0.000675952 0 0 0 0)
(-0.000310976 0.000222143 0 0.77297 0.000338454 0 0 0 0)
(-0.00123678 0.000197765 0 0.770855 0.00128467 0 0 0 0)
(-0.00150097 5.43384e-05 0 0.772691 0.00136113 0 0 0 0)
(0.000625153 0.000139711 0 0.676804 -0.000642606 0 0 0 0)
(-0.000295572 0.000237918 0 0.680567 0.000324501 0 0 0 0)
(-0.00123403 0.000206229 0 0.67878 0.00128633 0 0 0 0)
(-0.00140331 5.03175e-05 0 0.681483 0.00125549 0 0 0 0)
(0.000620032 0.000145427 0 0.59665 -0.00065904 0 0 0 0)
(-0.00027805 0.000254292 0 0.600123 0.000306802 0 0 0 0)
(-0.00122153 0.000213282 0 0.598628 0.00127687 0 0 0 0)
(-0.00129409 4.56983e-05 0 0.602251 0.0011438 0 0 0 0)
(0.000615438 0.000150091 0 0.527698 -0.000639462 0 0 0 0)
(-0.000262618 0.000270183 0 0.530801 0.000293529 0 0 0 0)
(-0.00119856 0.000220179 0 0.529733 0.00124558 0 0 0 0)
(-0.00117525 4.07017e-05 0 0.534348 0.00103193 0 0 0 0)
(0.000606593 0.000154383 0 0.469415 -0.000656984 0 0 0 0)
(-0.000244136 0.000285709 0 0.472008 0.000257775 0 0 0 0)
(-0.00116241 0.000225588 0 0.47131 0.00119025 0 0 0 0)
(-0.0010426 3.62072e-05 0 0.477005 0.0008906 0 0 0 0)
(0.000595372 0.000157601 0 0.421119 -0.000639977 0 0 0 0)
(-0.000231035 0.00030097 0 0.42308 0.000265515 0 0 0 0)
(-0.00111527 0.000230726 0 0.422862 0.00122054 0 0 0 0)
(-0.000896505 3.17166e-05 0 0.429648 0.000741928 0 0 0 0)
(0.000571003 0.000161304 0 0.382747 -0.000567018 0 0 0 0)
(-0.000215093 0.000316718 0 0.38357 0.000274953 0 0 0 0)
(-0.00105295 0.000233529 0 0.383677 0.00108343 0 0 0 0)
(-0.00073492 2.38771e-05 0 0.391512 0.000580773 0 0 0 0)
(0.000535532 0.000163021 0 0.353507 -0.000617753 0 0 0 0)
(-0.000215536 0.000328478 0 0.352713 0.000200469 0 0 0 0)
(-0.000982916 0.000235823 0 0.353283 0.00105128 0 0 0 0)
(-0.000555461 2.2842e-05 0 0.362336 0.000388985 0 0 0 0)
(0.000463148 0.000165047 0 0.33359 -0.000496872 0 0 0 0)
(-0.00021882 0.000344535 0 0.330317 0.000268575 0 0 0 0)
(-0.000892571 0.000236671 0 0.33137 0.0010464 0 0 0 0)
(-0.000358865 1.49291e-05 0 0.341299 0.000150175 0 0 0 0)
(0.000353544 0.000167738 0 0.320543 -0.000334796 0 0 0 0)
(-0.000252538 0.000354199 0 0.309608 0.000289948 0 0 0 0)
(-0.00079989 0.00023385 0 0.315631 0.000794437 0 0 0 0)
(-0.000147096 1.22497e-05 0 0.328084 -7.49622e-05 0 0 0 0)
(-0.000917506 -0.000328371 0 1.44892 0.00108625 0 0 0 0)
(0.00155555 -0.000262435 0 1.44903 -0.00172763 0 0 0 0)
(0.00135288 8.61472e-05 0 1.44818 -0.00135918 0 0 0 0)
(0.000699144 5.38226e-05 0 1.447 -0.00074342 0 0 0 0)
(-0.000837615 -0.000357875 0 1.28466 0.000967236 0 0 0 0)
(0.0015374 -0.000282551 0 1.28291 -0.00186823 0 0 0 0)
(0.0013289 9.52077e-05 0 1.28189 -0.00132462 0 0 0 0)
(0.000648308 6.02076e-05 0 1.28042 -0.000670492 0 0 0 0)
(-0.000781643 -0.000387402 0 1.13659 0.000988603 0 0 0 0)
(0.00150941 -0.000300633 0 1.13398 -0.00159779 0 0 0 0)
(0.00131152 0.000106109 0 1.13306 -0.00117935 0 0 0 0)
(0.000598439 6.51474e-05 0 1.1315 -0.00061464 0 0 0 0)
(-0.000720119 -0.000411355 0 1.00411 0.000997223 0 0 0 0)
(0.00147852 -0.000318684 0 1.00113 -0.00148587 0 0 0 0)
(0.00128748 0.000111593 0 0.999973 -0.00113321 0 0 0 0)
(0.000537189 6.74236e-05 0 0.998131 -0.000534208 0 0 0 0)
(-0.000671774 -0.000437852 0 0.886237 0.000856387 0 0 0 0)
(0.00144041 -0.00033614 0 0.882879 -0.00162797 0 0 0 0)
(0.0012616 0.000121971 0 0.881251 -0.00117774 0 0 0 0)
(0.000479305 7.25364e-05 0 0.87912 -0.000482314 0 0 0 0)
(-0.000619258 -0.00046248 0 0.782243 0.000801971 0 0 0 0)
(0.00139544 -0.000352586 0 0.778699 -0.00154786 0 0 0 0)
(0.00122483 0.000130688 0 0.776296 -0.00114042 0 0 0 0)
(0.000416508 7.61041e-05 0 0.773834 -0.000442422 0 0 0 0)
(-0.00057165 -0.000486335 0 0.691192 0.000767923 0 0 0 0)
(0.00134129 -0.000368513 0 0.687297 -0.00150299 0 0 0 0)
(0.00118052 0.000140395 0 0.683948 -0.00108977 0 0 0 0)
(0.000357593 8.02774e-05 0 0.681238 -0.000359547 0 0 0 0)
(-0.000522346 -0.000508454 0 0.612311 0.000699917 0 0 0 0)
(0.00127469 -0.000383547 0 0.608035 -0.00144333 0 0 0 0)
(0.00112384 0.000149745 0 0.603605 -0.00104131 0 0 0 0)
(0.000297451 8.35568e-05 0 0.600706 -0.000315971 0 0 0 0)
(-0.000475252 -0.000529454 0 0.544822 0.000676111 0 0 0 0)
(0.00119619 -0.000397533 0 0.539996 -0.00135376 0 0 0 0)
(0.00105837 0.000159184 0 0.534525 -0.000964597 0 0 0 0)
(0.000241676 8.66486e-05 0 0.531608 -0.000243816 0 0 0 0)
(-0.000428211 -0.000548216 0 0.488035 0.000651151 0 0 0 0)
(0.00110308 -0.000410892 0 0.482577 -0.00123661 0 0 0 0)
(0.000984032 0.000168244 0 0.476011 -0.000899516 0 0 0 0)
(0.000183657 8.89758e-05 0 0.473212 -0.000192844 0 0 0 0)
(-0.000382387 -0.000564907 0 0.441323 0.000480731 0 0 0 0)
(0.00099579 -0.000423378 0 0.435248 -0.00124422 0 0 0 0)
(0.000902285 0.00017658 0 0.427794 -0.000838548 0 0 0 0)
(0.000131749 9.06908e-05 0 0.425216 -0.000149763 0 0 0 0)
(-0.000334884 -0.000581318 0 0.404139 0.000550949 0 0 0 0)
(0.000877605 -0.00043288 0 0.397624 -0.000961962 0 0 0 0)
(0.000816829 0.000186485 0 0.389155 -0.000676395 0 0 0 0)
(7.24084e-05 9.22853e-05 0 0.387161 -5.02405e-05 0 0 0 0)
(-0.000280512 -0.00059062 0 0.375847 0.000514404 0 0 0 0)
(0.000746054 -0.000443833 0 0.369044 -0.000900877 0 0 0 0)
(0.000727897 0.000191775 0 0.360457 -0.000616365 0 0 0 0)
(2.49438e-05 9.25137e-05 0 0.359185 -2.40605e-05 0 0 0 0)
(-0.000223088 -0.000602816 0 0.355872 0.000410862 0 0 0 0)
(0.000621105 -0.000451726 0 0.34944 -0.000902055 0 0 0 0)
(0.000652512 0.000201099 0 0.341217 -0.000588 0 0 0 0)
(-4.34194e-05 9.22621e-05 0 0.341236 -1.44603e-05 0 0 0 0)
(-0.000144819 -0.000608157 0 0.34531 0.000561857 0 0 0 0)
(0.000501797 -0.000460481 0 0.341561 -0.000588882 0 0 0 0)
(0.000591165 0.000206569 0 0.330056 -0.000529237 0 0 0 0)
(-0.000102163 9.40325e-05 0 0.3326 0.000137563 0 0 0 0)
)
;

boundaryField
{
    topWall
    {
        type            extrapolatedCalculated;
        value           nonuniform List<tensor> 0();
    }
    botWall
    {
        type            extrapolatedCalculated;
        value           nonuniform List<tensor> 0();
    }
    inlet
    {
        type            cyclic;
    }
    outlet
    {
        type            cyclic;
    }
    fixWall
    {
        type            empty;
    }
    procBoundary1to0
    {
        type            processor;
        value           nonuniform List<tensor> 8((0.000668446 8.40894e-05 0 1.62611 -0.000694282 0 0 0 0) (-0.000379609 0.000128453 0 1.62896 0.00044907 0 0 0 0) (-0.00103943 0.00013683 0 1.62654 0.00111001 0 0 0 0) (-0.00191893 6.595e-05 0 1.62292 0.0017688 0 0 0 0) (-0.000991876 -0.000299724 0 1.63097 0.00114252 0 0 0 0) (0.00154974 -0.000241794 0 1.63176 -0.00185189 0 0 0 0) (0.00136286 7.88042e-05 0 1.63088 -0.00140195 0 0 0 0) (0.000748793 4.73911e-05 0 1.63039 -0.000761974 0 0 0 0));
    }
    procBoundary1to2
    {
        type            processor;
        value           nonuniform List<tensor> 8((7.9939e-05 0.000167586 0 0.315462 -0.000277139 0 0 0 0) (-0.000300684 0.000363356 0 0.300593 0.000320393 0 0 0 0) (-0.000584626 0.000230589 0 0.310449 0.000634423 0 0 0 0) (0.000135796 1.10528e-05 0 0.324529 -0.000213555 0 0 0 0) (1.52918e-06 -0.000611381 0 0.342192 0.000121691 0 0 0 0) (0.000366859 -0.000469911 0 0.339526 -0.000594628 0 0 0 0) (0.000503158 0.000213206 0 0.323354 -0.0006209 0 0 0 0) (-0.00020197 9.55028e-05 0 0.327118 0.000176296 0 0 0 0));
    }
}


// ************************************************************************* //
