/*--------------------------------*- C++ -*----------------------------------*\
  =========                 |
  \\      /  F ield         | OpenFOAM: The Open Source CFD Toolbox
   \\    /   O peration     | Website:  https://openfoam.org
    \\  /    A nd           | Version:  dev
     \\/     M anipulation  |

   OpenFOAM for Windows 20.09 (v1)
   Built by CFD Support, www.cfdsupport.com (based on Symscape).
\*---------------------------------------------------------------------------*/
FoamFile
{
    version     2.0;
    format      ascii;
    class       volVectorField;
    location    "10";
    object      gradp;
}
// * * * * * * * * * * * * * * * * * * * * * * * * * * * * * * * * * * * * * //

dimensions      [1 -2 -2 0 0 0 0];

internalField   nonuniform List<vector> 
120
(
(3.74541 -98.1214 0)
(-1.24706 -98.0965 0)
(-1.2245 -98.1976 0)
(-1.24518 -98.3232 0)
(3.74301 -98.3725 0)
(-1.2476 -98.2884 0)
(-1.23095 -98.4189 0)
(-1.24741 -98.6873 0)
(3.74329 -98.0791 0)
(-1.24784 -98.0903 0)
(-1.23115 -98.0961 0)
(-1.24759 -98.1014 0)
(3.74344 -98.0798 0)
(-1.24788 -98.0956 0)
(-1.23114 -98.096 0)
(-1.24778 -98.1017 0)
(3.74353 -98.0692 0)
(-1.24811 -98.088 0)
(-1.23125 -98.0958 0)
(-1.24797 -98.1019 0)
(3.74362 -98.0639 0)
(-1.24833 -98.088 0)
(-1.23137 -98.0956 0)
(-1.24817 -98.1019 0)
(3.74359 -98.0655 0)
(-1.24864 -98.0836 0)
(-1.23148 -98.0951 0)
(-1.24837 -98.1017 0)
(3.74381 -98.0718 0)
(-1.24882 -98.0884 0)
(-1.23167 -98.0927 0)
(-1.24857 -98.0979 0)
(3.74382 -98.0712 0)
(-1.24898 -98.0934 0)
(-1.23164 -98.1008 0)
(-1.24873 -98.1001 0)
(3.7439 -98.0711 0)
(-1.24932 -98.089 0)
(-1.23178 -98.103 0)
(-1.24888 -98.1041 0)
(3.74397 -98.0713 0)
(-1.24952 -98.089 0)
(-1.23189 -98.0948 0)
(-1.24908 -98.1022 0)
(3.74405 -98.0713 0)
(-1.24971 -98.0889 0)
(-1.232 -98.0944 0)
(-1.2493 -98.1023 0)
(3.74412 -98.0714 0)
(-1.2499 -98.0887 0)
(-1.23211 -98.0943 0)
(-1.24952 -98.1024 0)
(3.74369 -97.9094 0)
(-1.25009 -97.5347 0)
(-1.23223 -96.2884 0)
(-1.24973 -97.0857 0)
(3.75256 -98.1125 0)
(-1.22288 -98.0841 0)
(-1.22463 -97.013 0)
(-1.24917 -97.3879 0)
(-1.24574 -98.122 0)
(-1.24614 -98.1541 0)
(-1.27517 -98.4779 0)
(3.73838 -98.2058 0)
(-1.24569 -98.5635 0)
(-1.2485 -98.6956 0)
(-1.26637 -98.7041 0)
(3.74351 -98.1613 0)
(-1.24588 -98.1183 0)
(-1.24848 -98.1258 0)
(-1.26626 -98.1161 0)
(3.74391 -98.1162 0)
(-1.24609 -98.1193 0)
(-1.24846 -98.1269 0)
(-1.26621 -98.1169 0)
(3.74413 -98.11 0)
(-1.2463 -98.1194 0)
(-1.24844 -98.1267 0)
(-1.26598 -98.117 0)
(3.74453 -98.0988 0)
(-1.24651 -98.1194 0)
(-1.24842 -98.1263 0)
(-1.26575 -98.1168 0)
(3.74493 -98.0915 0)
(-1.24671 -98.1192 0)
(-1.2484 -98.121 0)
(-1.2654 -98.116 0)
(3.74541 -98.0953 0)
(-1.24683 -98.1144 0)
(-1.24837 -98.1207 0)
(-1.26532 -98.1204 0)
(3.74577 -98.1024 0)
(-1.24709 -98.119 0)
(-1.2485 -98.1257 0)
(-1.2651 -98.1215 0)
(3.74622 -98.0984 0)
(-1.24725 -98.124 0)
(-1.24841 -98.1255 0)
(-1.26486 -98.1174 0)
(3.74661 -98.0981 0)
(-1.24744 -98.12 0)
(-1.24839 -98.1252 0)
(-1.26464 -98.1175 0)
(3.74699 -98.098 0)
(-1.24764 -98.1204 0)
(-1.24837 -98.1252 0)
(-1.26441 -98.1175 0)
(3.74738 -98.0979 0)
(-1.24782 -98.1202 0)
(-1.24834 -98.1252 0)
(-1.26418 -98.1177 0)
(3.74776 -98.0672 0)
(-1.24802 -96.2678 0)
(-1.24833 -97.4016 0)
(-1.26344 -97.0469 0)
(3.74815 -98.0412 0)
(-1.25309 -96.5793 0)
(-1.26133 -97.6971 0)
(-1.27484 -97.432 0)
(3.73339 -97.8304 0)
)
;

boundaryField
{
    topWall
    {
        type            extrapolatedCalculated;
        value           nonuniform List<vector> 0();
    }
    botWall
    {
        type            extrapolatedCalculated;
        value           nonuniform List<vector> 0();
    }
    inlet
    {
        type            cyclic;
    }
    outlet
    {
        type            cyclic;
    }
    fixWall
    {
        type            empty;
    }
    procBoundary1to0
    {
        type            processor;
        value           nonuniform List<vector> 8((3.74118 -97.8214 0) (-1.24633 -97.8922 0) (-1.22717 -97.8756 0) (-1.24867 -97.7366 0) (-1.2485 -97.6699 0) (-1.24257 -97.5722 0) (-1.26551 -97.8833 0) (3.73757 -98.1009 0));
    }
    procBoundary1to2
    {
        type            processor;
        value           nonuniform List<vector> 8((3.73946 -98.3125 0) (-1.23176 -98.6397 0) (-1.22063 -98.821 0) (-1.2425 -98.4046 0) (-1.25317 -98.4335 0) (-1.26254 -98.424 0) (-1.26566 -98.5067 0) (3.7368 -98.0558 0));
    }
}


// ************************************************************************* //
