/*--------------------------------*- C++ -*----------------------------------*\
  =========                 |
  \\      /  F ield         | OpenFOAM: The Open Source CFD Toolbox
   \\    /   O peration     | Website:  https://openfoam.org
    \\  /    A nd           | Version:  dev
     \\/     M anipulation  |

   OpenFOAM for Windows 20.09 (v1)
   Built by CFD Support, www.cfdsupport.com (based on Symscape).
\*---------------------------------------------------------------------------*/
FoamFile
{
    version     2.0;
    format      ascii;
    class       volVectorField;
    location    "10";
    object      gradp_rgh;
}
// * * * * * * * * * * * * * * * * * * * * * * * * * * * * * * * * * * * * * //

dimensions      [1 -2 -2 0 0 0 0];

internalField   nonuniform List<vector> 
120
(
(-1.25463 -0.0207846 0)
(-1.24692 0.00348796 0)
(-1.22432 -0.0989197 0)
(-1.24514 -0.226037 0)
(-1.257 -0.268402 0)
(-1.2476 -0.185519 0)
(-1.23095 -0.323344 0)
(-1.2474 -0.595422 0)
(-1.25671 0.0207222 0)
(-1.24784 0.00959737 0)
(-1.23115 0.00378661 0)
(-1.24758 -0.00167215 0)
(-1.25656 0.0197155 0)
(-1.24788 0.00406902 0)
(-1.23113 0.00367227 0)
(-1.24778 -0.00199208 0)
(-1.25647 0.0302514 0)
(-1.24811 0.0115161 0)
(-1.23125 0.00368204 0)
(-1.24797 -0.00231733 0)
(-1.25638 0.0356404 0)
(-1.24833 0.0115689 0)
(-1.23137 0.00398547 0)
(-1.24817 -0.00234541 0)
(-1.25641 0.0343392 0)
(-1.24863 0.0161476 0)
(-1.23148 0.00451303 0)
(-1.24837 -0.00225523 0)
(-1.25619 0.0282261 0)
(-1.24882 0.0114711 0)
(-1.23167 0.0069858 0)
(-1.24857 0.00162852 0)
(-1.25618 0.0290753 0)
(-1.24899 0.00672407 0)
(-1.23165 -0.000777903 0)
(-1.24873 -0.000256387 0)
(-1.25611 0.0292979 0)
(-1.24932 0.0112108 0)
(-1.23179 -0.00268758 0)
(-1.24888 -0.00389866 0)
(-1.25603 0.0291937 0)
(-1.24952 0.0112973 0)
(-1.2319 0.00570944 0)
(-1.24908 -0.00164598 0)
(-1.25596 0.0290064 0)
(-1.24971 0.0115215 0)
(-1.232 0.00628754 0)
(-1.2493 -0.00141437 0)
(-1.25588 0.0291339 0)
(-1.2499 0.0120152 0)
(-1.23211 0.00675903 0)
(-1.24951 -0.000995432 0)
(-1.25632 0.195318 0)
(-1.25008 0.580074 0)
(-1.23222 1.85902 0)
(-1.24973 1.04151 0)
(-1.24722 -0.0136615 0)
(-1.22217 0.0160184 0)
(-1.22442 1.11598 0)
(-1.24915 0.731257 0)
(-1.24574 -0.0221073 0)
(-1.24611 -0.0546068 0)
(-1.27531 -0.382529 0)
(-1.26182 -0.106415 0)
(-1.24569 -0.469803 0)
(-1.2485 -0.603643 0)
(-1.26637 -0.612311 0)
(-1.25649 -0.060756 0)
(-1.24588 -0.0186542 0)
(-1.24848 -0.026096 0)
(-1.26626 -0.0164937 0)
(-1.25609 -0.016583 0)
(-1.24609 -0.0195365 0)
(-1.24847 -0.0272098 0)
(-1.26621 -0.0173045 0)
(-1.25587 -0.0104293 0)
(-1.2463 -0.0197773 0)
(-1.24845 -0.0271589 0)
(-1.26598 -0.0175225 0)
(-1.25548 0.000661599 0)
(-1.24651 -0.0198381 0)
(-1.24843 -0.0268366 0)
(-1.26575 -0.0173279 0)
(-1.25508 0.00803779 0)
(-1.24671 -0.0197153 0)
(-1.24841 -0.021377 0)
(-1.2654 -0.0162889 0)
(-1.25459 0.00450428 0)
(-1.24683 -0.0147751 0)
(-1.24837 -0.0208632 0)
(-1.26532 -0.0204345 0)
(-1.25423 -0.00226826 0)
(-1.24708 -0.0190971 0)
(-1.2485 -0.0256474 0)
(-1.26509 -0.0212184 0)
(-1.25378 0.00191163 0)
(-1.24725 -0.023743 0)
(-1.24841 -0.0250775 0)
(-1.26486 -0.0169237 0)
(-1.25339 0.00232779 0)
(-1.24744 -0.0194622 0)
(-1.24839 -0.0245024 0)
(-1.26463 -0.016906 0)
(-1.25301 0.00247921 0)
(-1.24763 -0.019598 0)
(-1.24836 -0.0245011 0)
(-1.26441 -0.016996 0)
(-1.25263 0.00245969 0)
(-1.24782 -0.0188961 0)
(-1.24834 -0.023718 0)
(-1.26418 -0.0162178 0)
(-1.25224 0.0337246 0)
(-1.24801 1.88101 0)
(-1.24832 0.718366 0)
(-1.26345 1.0822 0)
(-1.25187 0.0602691 0)
(-1.25321 1.56199 0)
(-1.26166 0.41455 0)
(-1.27515 0.686591 0)
(-1.26703 0.263859 0)
)
;

boundaryField
{
    topWall
    {
        type            extrapolatedCalculated;
        value           nonuniform List<vector> 0();
    }
    botWall
    {
        type            extrapolatedCalculated;
        value           nonuniform List<vector> 0();
    }
    inlet
    {
        type            cyclic;
    }
    outlet
    {
        type            cyclic;
    }
    fixWall
    {
        type            empty;
    }
    procBoundary1to0
    {
        type            processor;
        value           nonuniform List<vector> 8((-1.25883 0.274242 0) (-1.2463 0.205079 0) (-1.22712 0.229192 0) (-1.24868 0.371723 0) (-1.24854 0.436467 0) (-1.24249 0.535743 0) (-1.26551 0.224826 0) (-1.26252 -0.00167356 0));
    }
    procBoundary1to2
    {
        type            processor;
        value           nonuniform List<vector> 8((-1.26045 -0.216803 0) (-1.23126 -0.553811 0) (-1.2203 -0.766821 0) (-1.24229 -0.32983 0) (-1.25329 -0.380772 0) (-1.26291 -0.343217 0) (-1.26596 -0.435351 0) (-1.26354 0.0430606 0));
    }
}


// ************************************************************************* //
