/*--------------------------------*- C++ -*----------------------------------*\
  =========                 |
  \\      /  F ield         | OpenFOAM: The Open Source CFD Toolbox
   \\    /   O peration     | Website:  https://openfoam.org
    \\  /    A nd           | Version:  dev
     \\/     M anipulation  |

   OpenFOAM for Windows 20.09 (v1)
   Built by CFD Support, www.cfdsupport.com (based on Symscape).
\*---------------------------------------------------------------------------*/
FoamFile
{
    version     2.0;
    format      ascii;
    class       volScalarField;
    location    "10";
    object      k;
}
// * * * * * * * * * * * * * * * * * * * * * * * * * * * * * * * * * * * * * //

dimensions      [0 2 -2 0 0 0 0];

internalField   nonuniform List<scalar> 
120
(
4.57086e-15
4.54642e-15
4.51632e-15
4.50168e-15
5.73679e-15
5.70616e-15
5.66843e-15
5.65011e-15
7.12114e-15
7.08318e-15
7.0364e-15
7.01374e-15
8.75518e-15
8.7086e-15
8.65117e-15
8.62342e-15
1.06742e-14
1.06176e-14
1.05477e-14
1.0514e-14
1.29183e-14
1.28499e-14
1.27655e-14
1.27249e-14
1.55325e-14
1.54505e-14
1.53492e-14
1.53007e-14
1.85681e-14
1.84702e-14
1.83495e-14
1.82918e-14
2.20827e-14
2.19666e-14
2.18235e-14
2.17553e-14
2.61418e-14
2.60049e-14
2.58361e-14
2.57558e-14
3.08197e-14
3.06589e-14
3.04607e-14
3.03665e-14
3.62003e-14
3.60122e-14
3.57804e-14
3.56704e-14
4.23789e-14
4.21596e-14
4.18897e-14
4.17616e-14
4.94636e-14
4.92089e-14
4.88956e-14
4.8747e-14
5.75773e-14
5.72824e-14
5.69198e-14
5.67477e-14
4.50991e-15
4.54334e-15
4.57088e-15
4.58041e-15
5.66042e-15
5.70214e-15
5.73666e-15
5.74876e-15
7.02651e-15
7.07799e-15
7.12077e-15
7.13598e-15
8.63908e-15
8.70196e-15
8.75446e-15
8.77342e-15
1.0533e-14
1.06092e-14
1.06731e-14
1.06965e-14
1.27478e-14
1.28393e-14
1.29165e-14
1.29452e-14
1.53282e-14
1.54373e-14
1.55299e-14
1.55649e-14
1.83245e-14
1.84539e-14
1.85643e-14
1.86068e-14
2.1794e-14
2.19465e-14
2.20775e-14
2.21289e-14
2.58014e-14
2.59802e-14
2.61349e-14
2.61967e-14
3.042e-14
3.06287e-14
3.08105e-14
3.08845e-14
3.57329e-14
3.59754e-14
3.61884e-14
3.62767e-14
4.18344e-14
4.2115e-14
4.23636e-14
4.24686e-14
4.88313e-14
4.91551e-14
4.94443e-14
4.95688e-14
5.68452e-14
5.72174e-14
5.7553e-14
5.77003e-14
)
;

boundaryField
{
    topWall
    {
        type            kqRWallFunction;
        value           nonuniform List<scalar> 0();
    }
    botWall
    {
        type            kqRWallFunction;
        value           nonuniform List<scalar> 0();
    }
    inlet
    {
        type            cyclic;
    }
    outlet
    {
        type            cyclic;
    }
    fixWall
    {
        type            empty;
    }
    procBoundary1to0
    {
        type            processor;
        value           nonuniform List<scalar> 8(3.59572e-15 3.57647e-15 3.55278e-15 3.54123e-15 3.54772e-15 3.57415e-15 3.59584e-15 3.60325e-15);
    }
    procBoundary1to2
    {
        type            processor;
        value           nonuniform List<scalar> 8(6.68608e-14 6.65202e-14 6.61019e-14 6.5903e-14 6.60156e-14 6.64422e-14 6.68305e-14 6.70044e-14);
    }
}


// ************************************************************************* //
