/*--------------------------------*- C++ -*----------------------------------*\
  =========                 |
  \\      /  F ield         | OpenFOAM: The Open Source CFD Toolbox
   \\    /   O peration     | Website:  https://openfoam.org
    \\  /    A nd           | Version:  dev
     \\/     M anipulation  |

   OpenFOAM for Windows 20.09 (v1)
   Built by CFD Support, www.cfdsupport.com (based on Symscape).
\*---------------------------------------------------------------------------*/
FoamFile
{
    version     2.0;
    format      ascii;
    class       volScalarField;
    location    "10";
    object      nut;
}
// * * * * * * * * * * * * * * * * * * * * * * * * * * * * * * * * * * * * * //

dimensions      [0 2 -1 0 0 0 0];

internalField   nonuniform List<scalar> 
120
(
4.99093e-17
4.96423e-17
4.93149e-17
4.91519e-17
7.12946e-17
7.09143e-17
7.04483e-17
7.0216e-17
9.98878e-17
9.93565e-17
9.87058e-17
9.83812e-17
1.37591e-16
1.3686e-16
1.35967e-16
1.35521e-16
1.86709e-16
1.8572e-16
1.84509e-16
1.83905e-16
2.50029e-16
2.48703e-16
2.47083e-16
2.46276e-16
3.30885e-16
3.2913e-16
3.26987e-16
3.2592e-16
4.33238e-16
4.30939e-16
4.28133e-16
4.26738e-16
5.61742e-16
5.58763e-16
5.55127e-16
5.53323e-16
7.21836e-16
7.18013e-16
7.13349e-16
7.11039e-16
9.19838e-16
9.14976e-16
9.09047e-16
9.06114e-16
1.16303e-15
1.1569e-15
1.14943e-15
1.14574e-15
1.45977e-15
1.4521e-15
1.44276e-15
1.43815e-15
1.8195e-15
1.80999e-15
1.79841e-15
1.79268e-15
2.25287e-15
2.24117e-15
2.22691e-15
2.21985e-15
4.92423e-17
4.96162e-17
4.99119e-17
5.0013e-17
7.03448e-17
7.08766e-17
7.12966e-17
7.1442e-17
9.85612e-17
9.9303e-17
9.98884e-17
1.00093e-16
1.35768e-16
1.36786e-16
1.37589e-16
1.37873e-16
1.84241e-16
1.85617e-16
1.86703e-16
1.87093e-16
2.46726e-16
2.48564e-16
2.50016e-16
2.50544e-16
3.26516e-16
3.28942e-16
3.30862e-16
3.3157e-16
4.2752e-16
4.30687e-16
4.33201e-16
4.3414e-16
5.54337e-16
5.58427e-16
5.61683e-16
5.62919e-16
7.1234e-16
7.17566e-16
7.21747e-16
7.23358e-16
9.0777e-16
9.14384e-16
9.19704e-16
9.2179e-16
1.14783e-15
1.15612e-15
1.16284e-15
1.16552e-15
1.44076e-15
1.45106e-15
1.45948e-15
1.4629e-15
1.79592e-15
1.80862e-15
1.8191e-15
1.82344e-15
2.22383e-15
2.23936e-15
2.25231e-15
2.25778e-15
)
;

boundaryField
{
    topWall
    {
        type            nutkWallFunction;
        Cmu             0.09;
        kappa           0.41;
        E               9.8;
        value           nonuniform List<scalar> 0();
    }
    botWall
    {
        type            nutkWallFunction;
        Cmu             0.09;
        kappa           0.41;
        E               9.8;
        value           nonuniform List<scalar> 0();
    }
    inlet
    {
        type            cyclic;
    }
    outlet
    {
        type            cyclic;
    }
    fixWall
    {
        type            empty;
    }
    procBoundary1to0
    {
        type            processor;
        value           nonuniform List<scalar> 8(3.4165e-17 3.39818e-17 3.37571e-17 3.36454e-17 3.37074e-17 3.39642e-17 3.41675e-17 3.42363e-17);
    }
    procBoundary1to2
    {
        type            processor;
        value           nonuniform List<scalar> 8(2.76974e-15 2.75543e-15 2.73799e-15 2.72935e-15 2.73421e-15 2.75304e-15 2.76893e-15 2.77578e-15);
    }
}


// ************************************************************************* //
