/*--------------------------------*- C++ -*----------------------------------*\
  =========                 |
  \\      /  F ield         | OpenFOAM: The Open Source CFD Toolbox
   \\    /   O peration     | Website:  https://openfoam.org
    \\  /    A nd           | Version:  dev
     \\/     M anipulation  |

   OpenFOAM for Windows 20.09 (v1)
   Built by CFD Support, www.cfdsupport.com (based on Symscape).
\*---------------------------------------------------------------------------*/
FoamFile
{
    version     2.0;
    format      ascii;
    class       volScalarField;
    location    "10";
    object      omega;
}
// * * * * * * * * * * * * * * * * * * * * * * * * * * * * * * * * * * * * * //

dimensions      [0 0 -1 0 0 0 0];

internalField   nonuniform List<scalar> 
120
(
91.5832
91.5836
91.5813
91.5871
80.466
80.4656
80.4623
80.4675
71.2914
71.2906
71.2866
71.2915
63.6321
63.6313
63.6271
63.6317
57.1704
57.1699
57.1662
57.1707
51.6673
51.6675
51.6645
51.6692
46.9424
46.9433
46.9414
46.9462
42.8588
42.8603
42.8593
42.8641
39.3111
39.313
39.3127
39.3175
36.2157
36.2179
36.2181
36.2228
33.5056
33.5079
33.5084
33.5129
31.1258
31.1281
31.1288
31.1331
29.0313
29.0335
29.0344
29.0385
27.1853
27.1874
27.1883
27.1922
25.5573
25.5591
25.56
25.5638
91.5861
91.5697
91.5791
91.5844
80.4668
80.4517
80.4619
80.4675
71.2908
71.2768
71.2872
71.2932
63.631
63.6175
63.6278
63.6339
57.1698
57.1562
57.1659
57.172
51.668
51.654
51.6626
51.6685
46.9446
46.9301
46.9375
46.9431
42.8623
42.8475
42.8538
42.8591
39.3154
39.3006
39.3059
39.3109
36.2206
36.206
36.2106
36.2153
33.5107
33.4965
33.5005
33.5049
31.1309
31.1174
31.1208
31.1249
29.0364
29.0236
29.0265
29.0304
27.1902
27.1782
27.1807
27.1843
25.5619
25.5508
25.5529
25.5563
)
;

boundaryField
{
    topWall
    {
        beta1           0.075;
        blended         0;
        type            omegaWallFunction;
        value           nonuniform List<scalar> 0();
    }
    botWall
    {
        beta1           0.075;
        blended         0;
        type            omegaWallFunction;
        value           nonuniform List<scalar> 0();
    }
    inlet
    {
        type            cyclic;
    }
    outlet
    {
        type            cyclic;
    }
    fixWall
    {
        type            empty;
    }
    procBoundary1to0
    {
        type            processor;
        value           nonuniform List<scalar> 8(105.246 105.247 105.245 105.252 105.25 105.233 105.241 105.246);
    }
    procBoundary1to2
    {
        type            processor;
        value           nonuniform List<scalar> 8(24.1398 24.1415 24.1425 24.1461 24.1443 24.1341 24.1358 24.139);
    }
}


// ************************************************************************* //
