/*--------------------------------*- C++ -*----------------------------------*\
  =========                 |
  \\      /  F ield         | OpenFOAM: The Open Source CFD Toolbox
   \\    /   O peration     | Website:  https://openfoam.org
    \\  /    A nd           | Version:  dev
     \\/     M anipulation  |

   OpenFOAM for Windows 20.09 (v1)
   Built by CFD Support, www.cfdsupport.com (based on Symscape).
\*---------------------------------------------------------------------------*/
FoamFile
{
    version     2.0;
    format      ascii;
    class       volScalarField;
    location    "10";
    object      p;
}
// * * * * * * * * * * * * * * * * * * * * * * * * * * * * * * * * * * * * * //

dimensions      [1 -1 -2 0 0 0 0];

internalField   nonuniform List<scalar> 
120
(
-1.24257
-1.30559
-1.36728
-1.42804
-1.3248
-1.38767
-1.44956
-1.51077
-1.40652
-1.4694
-1.53131
-1.59252
-1.48827
-1.55116
-1.61306
-1.67427
-1.56999
-1.6329
-1.6948
-1.75602
-1.65172
-1.71464
-1.77655
-1.83777
-1.73343
-1.79638
-1.85829
-1.91953
-1.81516
-1.87811
-1.94004
-2.00128
-1.89688
-1.95986
-2.02178
-2.08302
-1.97861
-2.0416
-2.10354
-2.16478
-2.06034
-2.12334
-2.18529
-2.24653
-2.14206
-2.20508
-2.26703
-2.32828
-2.22379
-2.28682
-2.34878
-2.41003
-2.30551
-2.36856
-2.43052
-2.49178
-2.38697
-2.44938
-2.50926
-2.57184
-1.49179
-1.55261
-1.61641
-1.68013
-1.5743
-1.63534
-1.69915
-1.76197
-1.65607
-1.71711
-1.78092
-1.84373
-1.73783
-1.79888
-1.86268
-1.9255
-1.8196
-1.88065
-1.94444
-2.00725
-1.90137
-1.96242
-2.02621
-2.089
-1.98313
-2.0442
-2.10797
-2.17074
-2.0649
-2.12596
-2.18973
-2.25249
-2.14666
-2.20773
-2.27151
-2.33424
-2.22843
-2.2895
-2.35327
-2.41599
-2.3102
-2.37127
-2.43503
-2.49774
-2.39196
-2.45304
-2.5168
-2.57949
-2.47373
-2.53482
-2.59856
-2.66123
-2.5555
-2.61659
-2.68033
-2.74293
-2.63418
-2.69715
-2.76031
-2.82464
)
;

boundaryField
{
    topWall
    {
        type            calculated;
        value           nonuniform List<scalar> 0();
    }
    botWall
    {
        type            calculated;
        value           nonuniform List<scalar> 0();
    }
    inlet
    {
        type            cyclic;
    }
    outlet
    {
        type            cyclic;
    }
    fixWall
    {
        type            empty;
    }
    procBoundary1to0
    {
        type            processor;
        value           nonuniform List<scalar> 8(-1.16127 -1.22418 -1.2859 -1.3469 -1.41077 -1.47175 -1.53502 -1.5983);
    }
    procBoundary1to2
    {
        type            processor;
        value           nonuniform List<scalar> 8(-2.46904 -2.53204 -2.59221 -2.6541 -2.71646 -2.77941 -2.84272 -2.90598);
    }
}


// ************************************************************************* //
