/*--------------------------------*- C++ -*----------------------------------*\
  =========                 |
  \\      /  F ield         | OpenFOAM: The Open Source CFD Toolbox
   \\    /   O peration     | Website:  https://openfoam.org
    \\  /    A nd           | Version:  dev
     \\/     M anipulation  |

   OpenFOAM for Windows 20.09 (v1)
   Built by CFD Support, www.cfdsupport.com (based on Symscape).
\*---------------------------------------------------------------------------*/
FoamFile
{
    version     2.0;
    format      ascii;
    class       volScalarField;
    location    "10";
    object      p_rgh;
}
// * * * * * * * * * * * * * * * * * * * * * * * * * * * * * * * * * * * * * //

dimensions      [1 -1 -2 0 0 0 0];

internalField   nonuniform List<scalar> 
120
(
0.0245473
-0.0384707
-0.100145
-0.160902
0.0240731
-0.0387987
-0.100687
-0.161893
0.0240999
-0.0387799
-0.100684
-0.161895
0.0241076
-0.0387828
-0.100681
-0.161896
0.0241328
-0.0387732
-0.100678
-0.161898
0.024158
-0.0387636
-0.100675
-0.1619
0.0241922
-0.0387539
-0.100671
-0.161902
0.0242152
-0.0387366
-0.100667
-0.161904
0.0242392
-0.0387348
-0.100659
-0.161899
0.0242637
-0.0387254
-0.100668
-0.161904
0.0242881
-0.0387161
-0.100664
-0.161906
0.0243124
-0.0387066
-0.100659
-0.161907
0.0243364
-0.0386969
-0.100653
-0.161908
0.0243609
-0.0386866
-0.100648
-0.161909
0.0246619
-0.0377301
-0.0975551
-0.160172
-0.224659
-0.285477
-0.34927
-0.413008
-0.225427
-0.286462
-0.350278
-0.413099
-0.225442
-0.286483
-0.350291
-0.413109
-0.225459
-0.286505
-0.350305
-0.413127
-0.225475
-0.286528
-0.35032
-0.413126
-0.225491
-0.286551
-0.350334
-0.413125
-0.225508
-0.286573
-0.350349
-0.413113
-0.225524
-0.286586
-0.350361
-0.413118
-0.225533
-0.286608
-0.350383
-0.413117
-0.225556
-0.286629
-0.350397
-0.413115
-0.225572
-0.286649
-0.350411
-0.413113
-0.225589
-0.28667
-0.350425
-0.413111
-0.225605
-0.28669
-0.350439
-0.413109
-0.22562
-0.286709
-0.350452
-0.413054
-0.22247
-0.285493
-0.348635
-0.413008
)
;

boundaryField
{
    topWall
    {
        type            zeroGradient;
    }
    botWall
    {
        type            zeroGradient;
    }
    inlet
    {
        type            fixedJump;
        patchType       cyclic;
        jump            uniform -0.5;
        value           nonuniform List<scalar> 
15
(
0.0558269
0.0556532
0.0556139
0.0556009
0.0555877
0.0555745
0.0555613
0.0555486
0.0555397
0.0555163
0.0555033
0.0554905
0.0554956
0.0554871
0.0557699
)
;
    }
    outlet
    {
        type            fixedJump;
        patchType       cyclic;
        value           nonuniform List<scalar> 
15
(
-0.444173
-0.444347
-0.444386
-0.444399
-0.444412
-0.444426
-0.444439
-0.444451
-0.44446
-0.444484
-0.444497
-0.444509
-0.444504
-0.444513
-0.44423
)
;
    }
    fixWall
    {
        type            empty;
    }
    procBoundary1to0
    {
        type            processor;
        value           nonuniform List<scalar> 8(0.0241077 -0.0388046 -0.100522 -0.161517 -0.225391 -0.286371 -0.34964 -0.412922);
    }
    procBoundary1to2
    {
        type            processor;
        value           nonuniform List<scalar> 8(0.0243381 -0.0386599 -0.0987876 -0.16069 -0.223017 -0.286019 -0.349308 -0.412615);
    }
}


// ************************************************************************* //
