/*--------------------------------*- C++ -*----------------------------------*\
  =========                 |
  \\      /  F ield         | OpenFOAM: The Open Source CFD Toolbox
   \\    /   O peration     | Website:  https://openfoam.org
    \\  /    A nd           | Version:  dev
     \\/     M anipulation  |

   OpenFOAM for Windows 20.09 (v1)
   Built by CFD Support, www.cfdsupport.com (based on Symscape).
\*---------------------------------------------------------------------------*/
FoamFile
{
    version     2.0;
    format      ascii;
    class       surfaceScalarField;
    location    "10";
    object      phi;
}
// * * * * * * * * * * * * * * * * * * * * * * * * * * * * * * * * * * * * * //

dimensions      [0 3 -1 0 0 0 0];

internalField   nonuniform List<scalar> 
217
(
3.93807e-08
-3.35244e-10
3.93641e-08
1.15903e-10
3.93183e-08
4.14335e-10
8.84826e-10
3.92439e-08
4.03234e-08
-3.63216e-10
4.03072e-08
1.32114e-10
4.02574e-08
4.64119e-10
9.54626e-10
4.01876e-08
4.11564e-08
-3.91461e-10
4.11406e-08
1.47956e-10
4.10891e-08
5.15568e-10
1.02162e-09
4.10221e-08
4.18911e-08
-4.19371e-10
4.18758e-08
1.63261e-10
4.18232e-08
5.68257e-10
1.08529e-09
4.17595e-08
4.25385e-08
-4.47109e-10
4.25237e-08
1.77983e-10
4.24704e-08
6.21648e-10
1.14557e-09
4.24101e-08
4.31081e-08
-4.7457e-10
4.3094e-08
1.92095e-10
4.30403e-08
6.75348e-10
1.20199e-09
4.29839e-08
4.36093e-08
-5.01763e-10
4.35958e-08
2.05565e-10
4.35423e-08
7.28937e-10
1.25431e-09
4.349e-08
4.40507e-08
-5.28852e-10
4.4038e-08
2.1832e-10
4.39849e-08
7.82034e-10
1.30204e-09
4.39372e-08
4.44405e-08
-5.55869e-10
4.44283e-08
2.30518e-10
4.43762e-08
8.34124e-10
1.34483e-09
4.43334e-08
4.47859e-08
-5.82599e-10
4.47744e-08
2.41991e-10
4.47238e-08
8.84737e-10
1.38199e-09
4.46866e-08
4.50944e-08
-6.08935e-10
4.50834e-08
2.52964e-10
4.50347e-08
9.33383e-10
1.41305e-09
4.50036e-08
4.53722e-08
-6.34327e-10
4.53619e-08
2.63324e-10
4.53158e-08
9.79436e-10
1.43736e-09
4.52915e-08
4.56266e-08
-6.58307e-10
4.56162e-08
2.73764e-10
4.5573e-08
1.02259e-09
1.45416e-09
4.55562e-08
4.58627e-08
-6.79225e-10
4.58521e-08
2.84398e-10
4.58127e-08
1.06198e-09
1.46272e-09
4.58042e-08
4.6087e-08
4.60794e-08
4.60355e-08
4.60449e-08
3.91992e-08
7.47093e-10
3.92702e-08
-8.28899e-10
3.93235e-08
-6.16395e-10
-3.77485e-10
4.01449e-08
7.89728e-10
4.02159e-08
-8.99893e-10
4.02676e-08
-6.68118e-10
-4.05252e-10
4.09818e-08
8.30028e-10
4.10516e-08
-9.69681e-10
4.11026e-08
-7.19176e-10
-4.30765e-10
4.17217e-08
8.67781e-10
4.17902e-08
-1.03814e-09
4.18403e-08
-7.69255e-10
-4.53709e-10
4.23744e-08
9.0354e-10
4.24412e-08
-1.10501e-09
4.24902e-08
-8.18256e-10
-4.74203e-10
4.29503e-08
9.37127e-10
4.30153e-08
-1.16999e-09
4.30628e-08
-8.65724e-10
-4.92041e-10
4.34583e-08
9.68746e-10
4.35211e-08
-1.23273e-09
4.35667e-08
-9.11292e-10
-5.07477e-10
4.39076e-08
9.98336e-10
4.39676e-08
-1.29271e-09
4.40108e-08
-9.54496e-10
-5.20316e-10
4.43058e-08
1.02594e-09
4.43625e-08
-1.3494e-09
4.4403e-08
-9.9497e-10
-5.30766e-10
4.46609e-08
1.05168e-09
4.47138e-08
-1.40224e-09
4.47512e-08
-1.03235e-09
-5.38759e-10
4.49798e-08
1.07552e-09
4.50282e-08
-1.45061e-09
4.50622e-08
-1.06633e-09
-5.44556e-10
4.52696e-08
1.0974e-09
4.53131e-08
-1.49405e-09
4.53435e-08
-1.09677e-09
-5.47858e-10
4.55366e-08
1.11702e-09
4.55746e-08
-1.53205e-09
4.56013e-08
-1.12353e-09
-5.49165e-10
4.57869e-08
1.1342e-09
4.58197e-08
-1.56487e-09
4.58431e-08
-1.14693e-09
-5.47816e-10
4.60221e-08
4.60566e-08
4.60746e-08
)
;

boundaryField
{
    topWall
    {
        type            calculated;
        value           nonuniform List<scalar> 0();
    }
    botWall
    {
        type            calculated;
        value           nonuniform List<scalar> 0();
    }
    inlet
    {
        type            cyclic;
        value           nonuniform List<scalar> 
15
(
-4.60708e-08
-4.58418e-08
-4.56026e-08
-4.53468e-08
-4.5068e-08
-4.47592e-08
-4.44135e-08
-4.40236e-08
-4.35821e-08
-4.30806e-08
-4.25107e-08
-4.18632e-08
-4.11282e-08
-4.02954e-08
-3.93533e-08
)
;
    }
    outlet
    {
        type            cyclic;
        value           nonuniform List<scalar> 
15
(
4.60708e-08
4.58418e-08
4.56026e-08
4.53468e-08
4.5068e-08
4.47592e-08
4.44135e-08
4.40236e-08
4.35821e-08
4.30806e-08
4.25107e-08
4.18632e-08
4.11282e-08
4.02954e-08
3.93533e-08
)
;
    }
    fixWall
    {
        type            empty;
        value           nonuniform List<scalar> 0();
    }
    procBoundary1to0
    {
        type            processor;
        value           nonuniform List<scalar> 8(3.07846e-10 -9.96948e-11 -3.69083e-10 -8.09962e-10 -6.9996e-10 7.58399e-10 5.61032e-10 3.47193e-10);
    }
    procBoundary1to2
    {
        type            processor;
        value           nonuniform List<scalar> 8(-6.95811e-10 2.92315e-10 1.10631e-09 1.4529e-09 1.15983e-09 -1.60025e-09 -1.1668e-09 -5.45465e-10);
    }
}


// ************************************************************************* //
