/*--------------------------------*- C++ -*----------------------------------*\
  =========                 |
  \\      /  F ield         | OpenFOAM: The Open Source CFD Toolbox
   \\    /   O peration     | Website:  https://openfoam.org
    \\  /    A nd           | Version:  dev
     \\/     M anipulation  |

   OpenFOAM for Windows 20.09 (v1)
   Built by CFD Support, www.cfdsupport.com (based on Symscape).
\*---------------------------------------------------------------------------*/
FoamFile
{
    version     2.0;
    format      ascii;
    class       volSymmTensorField;
    location    "10";
    object      R;
}
// * * * * * * * * * * * * * * * * * * * * * * * * * * * * * * * * * * * * * //

dimensions      [0 2 -2 0 0 0 0];

internalField   nonuniform List<symmTensor> 
120
(
(3.04718e-15 -7.19816e-17 -0 3.0473e-15 -0 3.04724e-15)
(3.03099e-15 -7.17904e-17 -0 3.0309e-15 -0 3.03095e-15)
(3.01099e-15 -7.11696e-17 -0 3.01077e-15 -0 3.01088e-15)
(3.0013e-15 -7.0771e-17 -0 3.00094e-15 -0 3.00111e-15)
(3.82444e-15 -9.09686e-17 -0 3.82462e-15 -0 3.82453e-15)
(3.80416e-15 -9.08268e-17 -0 3.80405e-15 -0 3.80411e-15)
(3.77912e-15 -8.99553e-17 -0 3.77879e-15 -0 3.77895e-15)
(3.76699e-15 -8.95127e-17 -0 3.7665e-15 -0 3.76673e-15)
(4.74729e-15 -1.12524e-16 -0 4.74757e-15 -0 4.74742e-15)
(4.72219e-15 -1.12399e-16 -0 4.72205e-15 -0 4.72212e-15)
(4.69117e-15 -1.11338e-16 -0 4.6907e-15 -0 4.69094e-15)
(4.67616e-15 -1.10875e-16 -0 4.6755e-15 -0 4.67582e-15)
(5.8366e-15 -1.3662e-16 -0 5.83697e-15 -0 5.83678e-15)
(5.80582e-15 -1.36517e-16 -0 5.80564e-15 -0 5.80573e-15)
(5.76778e-15 -1.3524e-16 -0 5.76711e-15 -0 5.76745e-15)
(5.74939e-15 -1.34788e-16 -0 5.74852e-15 -0 5.74894e-15)
(7.11592e-15 -1.6321e-16 -0 7.11641e-15 -0 7.11616e-15)
(7.07851e-15 -1.6315e-16 -0 7.07825e-15 -0 7.07838e-15)
(7.03225e-15 -1.61636e-16 -0 7.03132e-15 -0 7.03179e-15)
(7.0099e-15 -1.61264e-16 -0 7.00878e-15 -0 7.00931e-15)
(8.61188e-15 -1.92304e-16 -0 8.61254e-15 -0 8.6122e-15)
(8.56674e-15 -1.92295e-16 -0 8.56642e-15 -0 8.56659e-15)
(8.51092e-15 -1.90514e-16 -0 8.50968e-15 -0 8.51031e-15)
(8.48397e-15 -1.90309e-16 -0 8.48256e-15 -0 8.48324e-15)
(1.03546e-14 -2.23991e-16 -0 1.03555e-14 -0 1.0355e-14)
(1.03005e-14 -2.24074e-16 -0 1.03001e-14 -0 1.03003e-14)
(1.02336e-14 -2.22019e-16 -0 1.0232e-14 -0 1.02328e-14)
(1.02013e-14 -2.22125e-16 -0 1.01996e-14 -0 1.02004e-14)
(1.23782e-14 -2.58554e-16 -0 1.23793e-14 -0 1.23787e-14)
(1.23137e-14 -2.58726e-16 -0 1.23132e-14 -0 1.23135e-14)
(1.22341e-14 -2.56384e-16 -0 1.22319e-14 -0 1.2233e-14)
(1.21956e-14 -2.57023e-16 -0 1.21935e-14 -0 1.21945e-14)
(1.47211e-14 -2.96514e-16 -0 1.47225e-14 -0 1.47218e-14)
(1.46447e-14 -2.96743e-16 -0 1.46441e-14 -0 1.46444e-14)
(1.45504e-14 -2.94191e-16 -0 1.45477e-14 -0 1.4549e-14)
(1.45048e-14 -2.9569e-16 -0 1.45023e-14 -0 1.45035e-14)
(1.7427e-14 -3.38952e-16 -0 1.74288e-14 -0 1.74279e-14)
(1.7337e-14 -3.39113e-16 -0 1.73363e-14 -0 1.73366e-14)
(1.72258e-14 -3.3637e-16 -0 1.72224e-14 -0 1.72241e-14)
(1.71719e-14 -3.39195e-16 -0 1.71692e-14 -0 1.71704e-14)
(2.05453e-14 -3.87507e-16 -0 2.05476e-14 -0 2.05464e-14)
(2.04397e-14 -3.87384e-16 -0 2.04388e-14 -0 2.04393e-14)
(2.03092e-14 -3.84611e-16 -0 2.0305e-14 -0 2.03072e-14)
(2.02459e-14 -3.89339e-16 -0 2.02429e-14 -0 2.02442e-14)
(2.41322e-14 -4.45335e-16 -0 2.41348e-14 -0 2.41335e-14)
(2.40087e-14 -4.4412e-16 -0 2.40075e-14 -0 2.40082e-14)
(2.38561e-14 -4.41279e-16 -0 2.38512e-14 -0 2.38536e-14)
(2.37818e-14 -4.48598e-16 -0 2.37788e-14 -0 2.37802e-14)
(2.8251e-14 -5.16275e-16 -0 2.82543e-14 -0 2.82525e-14)
(2.8107e-14 -5.12652e-16 -0 2.81058e-14 -0 2.81064e-14)
(2.79294e-14 -5.10044e-16 -0 2.79235e-14 -0 2.79265e-14)
(2.78425e-14 -5.21125e-16 -0 2.78398e-14 -0 2.78409e-14)
(3.2974e-14 -6.07268e-16 -0 3.29775e-14 -0 3.29757e-14)
(3.28068e-14 -5.98495e-16 -0 3.28051e-14 -0 3.2806e-14)
(3.26005e-14 -5.96365e-16 -0 3.25935e-14 -0 3.25973e-14)
(3.2499e-14 -6.11867e-16 -0 3.24972e-14 -0 3.24977e-14)
(3.83833e-14 -7.2252e-16 -0 3.83864e-14 -0 3.83849e-14)
(3.81894e-14 -6.94677e-16 -0 3.8187e-14 -0 3.81883e-14)
(3.79501e-14 -7.03401e-16 -0 3.7943e-14 -0 3.79465e-14)
(3.78321e-14 -7.28324e-16 -0 3.78318e-14 -0 3.78315e-14)
(3.0067e-15 -7.13321e-17 -0 3.00651e-15 -0 3.00661e-15)
(3.02874e-15 -7.18826e-17 -0 3.02906e-15 -0 3.02889e-15)
(3.04712e-15 -7.22858e-17 -0 3.04739e-15 -0 3.04725e-15)
(3.05353e-15 -7.23713e-17 -0 3.05368e-15 -0 3.0536e-15)
(3.77374e-15 -9.03439e-17 -0 3.77348e-15 -0 3.77362e-15)
(3.8012e-15 -9.0908e-17 -0 3.80168e-15 -0 3.80141e-15)
(3.82425e-15 -9.14012e-17 -0 3.82463e-15 -0 3.82444e-15)
(3.83241e-15 -9.14804e-17 -0 3.8326e-15 -0 3.83251e-15)
(4.68451e-15 -1.11986e-16 -0 4.68416e-15 -0 4.68435e-15)
(4.71836e-15 -1.12578e-16 -0 4.71897e-15 -0 4.71866e-15)
(4.74692e-15 -1.1319e-16 -0 4.74742e-15 -0 4.74719e-15)
(4.7572e-15 -1.13262e-16 -0 4.75744e-15 -0 4.75732e-15)
(5.75961e-15 -1.36271e-16 -0 5.75914e-15 -0 5.75941e-15)
(5.8009e-15 -1.36896e-16 -0 5.80171e-15 -0 5.80131e-15)
(5.83597e-15 -1.376e-16 -0 5.83663e-15 -0 5.83632e-15)
(5.8488e-15 -1.37625e-16 -0 5.84909e-15 -0 5.84895e-15)
(7.02229e-15 -1.632e-16 -0 7.02172e-15 -0 7.02204e-15)
(7.07222e-15 -1.63815e-16 -0 7.07336e-15 -0 7.07275e-15)
(7.11491e-15 -1.64555e-16 -0 7.11582e-15 -0 7.11538e-15)
(7.13081e-15 -1.64491e-16 -0 7.13117e-15 -0 7.13099e-15)
(8.49889e-15 -1.92886e-16 -0 8.49819e-15 -0 8.49859e-15)
(8.55882e-15 -1.93469e-16 -0 8.56028e-15 -0 8.55951e-15)
(8.61038e-15 -1.94119e-16 -0 8.61157e-15 -0 8.611e-15)
(8.62994e-15 -1.93899e-16 -0 8.63037e-15 -0 8.63015e-15)
(1.02192e-14 -2.25526e-16 -0 1.02183e-14 -0 1.02188e-14)
(1.02906e-14 -2.2596e-16 -0 1.02925e-14 -0 1.02915e-14)
(1.03525e-14 -2.26339e-16 -0 1.0354e-14 -0 1.03533e-14)
(1.03764e-14 -2.25905e-16 -0 1.03769e-14 -0 1.03766e-14)
(1.22168e-14 -2.61558e-16 -0 1.22158e-14 -0 1.22164e-14)
(1.23014e-14 -2.61708e-16 -0 1.23038e-14 -0 1.23025e-14)
(1.23752e-14 -2.61547e-16 -0 1.23771e-14 -0 1.23762e-14)
(1.24043e-14 -2.60827e-16 -0 1.24048e-14 -0 1.24046e-14)
(1.45299e-14 -3.01722e-16 -0 1.45287e-14 -0 1.45294e-14)
(1.46296e-14 -3.01326e-16 -0 1.46324e-14 -0 1.46309e-14)
(1.47172e-14 -3.00323e-16 -0 1.47194e-14 -0 1.47184e-14)
(1.47523e-14 -2.99301e-16 -0 1.47529e-14 -0 1.47526e-14)
(1.72017e-14 -3.47256e-16 -0 1.72001e-14 -0 1.72011e-14)
(1.73185e-14 -3.45986e-16 -0 1.73218e-14 -0 1.73201e-14)
(1.74219e-14 -3.43681e-16 -0 1.74246e-14 -0 1.74233e-14)
(1.74642e-14 -3.42366e-16 -0 1.74647e-14 -0 1.74644e-14)
(2.02808e-14 -4.00107e-16 -0 2.02792e-14 -0 2.02801e-14)
(2.04171e-14 -3.97596e-16 -0 2.04212e-14 -0 2.0419e-14)
(2.05387e-14 -3.93607e-16 -0 2.05419e-14 -0 2.05404e-14)
(2.05894e-14 -3.92043e-16 -0 2.05899e-14 -0 2.05897e-14)
(2.38229e-14 -4.63215e-16 -0 2.38208e-14 -0 2.38221e-14)
(2.39815e-14 -4.59201e-16 -0 2.39858e-14 -0 2.39835e-14)
(2.41238e-14 -4.52741e-16 -0 2.41273e-14 -0 2.41257e-14)
(2.41843e-14 -4.5135e-16 -0 2.41846e-14 -0 2.41845e-14)
(2.78906e-14 -5.40653e-16 -0 2.78883e-14 -0 2.78898e-14)
(2.80744e-14 -5.34862e-16 -0 2.80792e-14 -0 2.80765e-14)
(2.82404e-14 -5.2636e-16 -0 2.82443e-14 -0 2.82425e-14)
(2.83123e-14 -5.25588e-16 -0 2.83125e-14 -0 2.83124e-14)
(3.25552e-14 -6.38034e-16 -0 3.2553e-14 -0 3.25544e-14)
(3.27675e-14 -6.31188e-16 -0 3.2773e-14 -0 3.27697e-14)
(3.29606e-14 -6.21072e-16 -0 3.29651e-14 -0 3.29629e-14)
(3.3046e-14 -6.22391e-16 -0 3.30459e-14 -0 3.30458e-14)
(3.78981e-14 -7.66559e-16 -0 3.7895e-14 -0 3.78974e-14)
(3.81426e-14 -7.63847e-16 -0 3.81475e-14 -0 3.81448e-14)
(3.83661e-14 -7.43852e-16 -0 3.83711e-14 -0 3.83687e-14)
(3.84674e-14 -7.51149e-16 -0 3.84663e-14 -0 3.84669e-14)
)
;

boundaryField
{
    topWall
    {
        type            kqRWallFunction;
        value           nonuniform List<symmTensor> 0();
    }
    botWall
    {
        type            kqRWallFunction;
        value           nonuniform List<symmTensor> 0();
    }
    inlet
    {
        type            cyclic;
    }
    outlet
    {
        type            cyclic;
    }
    fixWall
    {
        type            empty;
    }
    procBoundary1to0
    {
        type            processor;
        value           nonuniform List<symmTensor> 8((2.3971e-15 -5.55589e-17 -0 2.39719e-15 -0 2.39715e-15) (2.38434e-15 -5.53593e-17 -0 2.38429e-15 -0 2.38432e-15) (2.36859e-15 -5.49118e-17 -0 2.36844e-15 -0 2.36852e-15) (2.36095e-15 -5.46059e-17 -0 2.3607e-15 -0 2.36082e-15) (2.36521e-15 -5.49657e-17 -0 2.36507e-15 -0 2.36515e-15) (2.38266e-15 -5.54133e-17 -0 2.38289e-15 -0 2.38276e-15) (2.39713e-15 -5.57257e-17 -0 2.39732e-15 -0 2.39723e-15) (2.40211e-15 -5.58201e-17 -0 2.40222e-15 -0 2.40216e-15));
    }
    procBoundary1to2
    {
        type            processor;
        value           nonuniform List<symmTensor> 8((4.45731e-14 -8.74211e-16 -0 4.45751e-14 -0 4.45735e-14) (4.43485e-14 -8.29264e-16 -0 4.43451e-14 -0 4.43469e-14) (4.40712e-14 -8.50638e-16 -0 4.40645e-14 -0 4.4068e-14) (4.39345e-14 -8.85784e-16 -0 4.39364e-14 -0 4.39352e-14) (4.40106e-14 -9.33952e-16 -0 4.401e-14 -0 4.40106e-14) (4.42923e-14 -9.33434e-16 -0 4.42976e-14 -0 4.42944e-14) (4.45506e-14 -8.95937e-16 -0 4.45569e-14 -0 4.45534e-14) (4.46707e-14 -9.08273e-16 -0 4.46686e-14 -0 4.46695e-14));
    }
}


// ************************************************************************* //
