/*--------------------------------*- C++ -*----------------------------------*\
  =========                 |
  \\      /  F ield         | OpenFOAM: The Open Source CFD Toolbox
   \\    /   O peration     | Website:  https://openfoam.org
    \\  /    A nd           | Version:  dev
     \\/     M anipulation  |

   OpenFOAM for Windows 20.09 (v1)
   Built by CFD Support, www.cfdsupport.com (based on Symscape).
\*---------------------------------------------------------------------------*/
FoamFile
{
    version     2.0;
    format      ascii;
    class       volVectorField;
    location    "10";
    object      U;
}
// * * * * * * * * * * * * * * * * * * * * * * * * * * * * * * * * * * * * * //

dimensions      [0 1 -1 0 0 0 0];

internalField   nonuniform List<vector> 
120
(
(0.0472513 -6.38711e-06 0)
(0.0472612 2.19033e-06 0)
(0.0472144 7.8146e-06 0)
(0.0471527 1.69673e-05 0)
(0.0483801 -6.9164e-06 0)
(0.0483941 2.54889e-06 0)
(0.0483436 8.78141e-06 0)
(0.0482797 1.8403e-05 0)
(0.0493777 -7.46233e-06 0)
(0.0493956 2.89033e-06 0)
(0.0493423 9.80517e-06 0)
(0.0492773 1.97567e-05 0)
(0.0502574 -8.16038e-06 0)
(0.0502792 3.12733e-06 0)
(0.0502233 1.08183e-05 0)
(0.0501579 2.10881e-05 0)
(0.0510324 -8.61212e-06 0)
(0.0510578 3.40677e-06 0)
(0.0509997 1.1912e-05 0)
(0.0509348 2.23252e-05 0)
(0.0517141 -9.25523e-06 0)
(0.051743 3.71067e-06 0)
(0.051683 1.29591e-05 0)
(0.0516193 2.34872e-05 0)
(0.052314 -9.7387e-06 0)
(0.0523461 3.97086e-06 0)
(0.0522845 1.40531e-05 0)
(0.0522227 2.45938e-05 0)
(0.0528421 -1.03262e-05 0)
(0.0528773 4.2515e-06 0)
(0.0528143 1.5103e-05 0)
(0.0527551 2.55797e-05 0)
(0.0533085 -1.08371e-05 0)
(0.0533463 4.4822e-06 0)
(0.0532822 1.61812e-05 0)
(0.0532264 2.65001e-05 0)
(0.0537216 -1.1392e-05 0)
(0.0537619 4.74072e-06 0)
(0.0536972 1.71789e-05 0)
(0.0536457 2.72996e-05 0)
(0.0540908 -1.19321e-05 0)
(0.054133 4.91182e-06 0)
(0.0540677 1.8165e-05 0)
(0.0540214 2.79844e-05 0)
(0.0544235 -1.24586e-05 0)
(0.0544671 5.18324e-06 0)
(0.054402 1.92132e-05 0)
(0.0543618 2.85361e-05 0)
(0.0547287 -1.28771e-05 0)
(0.0547722 5.37008e-06 0)
(0.0547072 1.99707e-05 0)
(0.0546739 2.89524e-05 0)
(0.0550127 -1.34882e-05 0)
(0.0550549 5.51736e-06 0)
(0.0549908 2.09653e-05 0)
(0.0549657 2.91844e-05 0)
(0.0552847 -1.37052e-05 0)
(0.0553228 5.8177e-06 0)
(0.0552595 2.17147e-05 0)
(0.0552428 2.92027e-05 0)
(0.0470258 1.44741e-05 0)
(0.0470609 -1.58698e-05 0)
(0.0471813 -1.17694e-05 0)
(0.0471962 -7.25507e-06 0)
(0.0481615 1.53179e-05 0)
(0.048196 -1.73845e-05 0)
(0.0483153 -1.29372e-05 0)
(0.0483288 -7.86372e-06 0)
(0.0491669 1.60862e-05 0)
(0.0491991 -1.89835e-05 0)
(0.0493178 -1.39771e-05 0)
(0.0493303 -8.37256e-06 0)
(0.0500559 1.69656e-05 0)
(0.0500859 -2.00475e-05 0)
(0.0502037 -1.49027e-05 0)
(0.0502147 -8.88812e-06 0)
(0.0508404 1.77482e-05 0)
(0.0508677 -2.146e-05 0)
(0.0509844 -1.58658e-05 0)
(0.0509938 -9.2629e-06 0)
(0.0515329 1.83929e-05 0)
(0.0515574 -2.27608e-05 0)
(0.0516725 -1.68656e-05 0)
(0.0516799 -9.69198e-06 0)
(0.0521441 1.90848e-05 0)
(0.0521655 -2.40397e-05 0)
(0.0522783 -1.77664e-05 0)
(0.0522836 -1.00003e-05 0)
(0.0526849 1.96728e-05 0)
(0.0527029 -2.52657e-05 0)
(0.0528124 -1.86819e-05 0)
(0.0528153 -1.02912e-05 0)
(0.0531647 2.02514e-05 0)
(0.0531789 -2.64453e-05 0)
(0.0532843 -1.9502e-05 0)
(0.0532847 -1.05269e-05 0)
(0.053593 2.07996e-05 0)
(0.0536029 -2.7522e-05 0)
(0.0537033 -2.02896e-05 0)
(0.0537013 -1.06976e-05 0)
(0.0539781 2.13366e-05 0)
(0.0539832 -2.85063e-05 0)
(0.0540776 -2.10012e-05 0)
(0.0540734 -1.08483e-05 0)
(0.0543285 2.16009e-05 0)
(0.0543283 -2.95957e-05 0)
(0.0544163 -2.16872e-05 0)
(0.05441 -1.09472e-05 0)
(0.0546516 2.22549e-05 0)
(0.0546459 -3.01096e-05 0)
(0.0547262 -2.21285e-05 0)
(0.0547187 -1.0932e-05 0)
(0.0549549 2.24582e-05 0)
(0.0549434 -3.10972e-05 0)
(0.055017 -2.27144e-05 0)
(0.0550086 -1.09873e-05 0)
(0.0552447 2.29396e-05 0)
(0.0552283 -3.1613e-05 0)
(0.0552949 -2.31085e-05 0)
(0.0552874 -1.09561e-05 0)
)
;

boundaryField
{
    topWall
    {
        type            noSlip;
    }
    botWall
    {
        type            noSlip;
    }
    inlet
    {
        type            cyclic;
    }
    outlet
    {
        type            cyclic;
    }
    fixWall
    {
        type            empty;
    }
    procBoundary1to0
    {
        type            processor;
        value           nonuniform List<vector> 8((0.0459765 -5.93275e-06 0) (0.045984 1.78425e-06 0) (0.0459386 6.91253e-06 0) (0.0458801 1.54673e-05 0) (0.0457467 1.35075e-05 0) (0.0457809 -1.45051e-05 0) (0.0459017 -1.06719e-05 0) (0.0459172 -6.62469e-06 0));
    }
    procBoundary1to2
    {
        type            processor;
        value           nonuniform List<vector> 8((0.0555469 -1.40462e-05 0) (0.0555709 6.0006e-06 0) (0.0555168 2.22894e-05 0) (0.0555125 2.90595e-05 0) (0.0555304 2.33946e-05 0) (0.0555126 -3.20786e-05 0) (0.0555671 -2.35965e-05 0) (0.0555629 -1.0758e-05 0));
    }
}


// ************************************************************************* //
