/*--------------------------------*- C++ -*----------------------------------*\
  =========                 |
  \\      /  F ield         | OpenFOAM: The Open Source CFD Toolbox
   \\    /   O peration     | Website:  https://openfoam.org
    \\  /    A nd           | Version:  dev
     \\/     M anipulation  |

   OpenFOAM for Windows 20.09 (v1)
   Built by CFD Support, www.cfdsupport.com (based on Symscape).
\*---------------------------------------------------------------------------*/
FoamFile
{
    version     2.0;
    format      ascii;
    class       volVectorField;
    location    "10";
    object      UMean;
}
// * * * * * * * * * * * * * * * * * * * * * * * * * * * * * * * * * * * * * //

dimensions      [0 1 -1 0 0 0 0];

internalField   nonuniform List<vector> 
120
(
(0.0271067 1.96475e-06 0)
(0.0271459 -5.53543e-06 0)
(0.0271547 2.03264e-06 0)
(0.0271318 8.88313e-06 0)
(0.0275009 2.2741e-06 0)
(0.0275437 -6.15833e-06 0)
(0.0275492 2.1032e-06 0)
(0.0275297 9.30772e-06 0)
(0.0278328 2.09434e-06 0)
(0.0278767 -6.54141e-06 0)
(0.0278811 2.42142e-06 0)
(0.0278657 9.44309e-06 0)
(0.0281119 2.32503e-06 0)
(0.0281575 -7.106e-06 0)
(0.0281601 2.43014e-06 0)
(0.0281475 9.73933e-06 0)
(0.0283464 2.2812e-06 0)
(0.028392 -7.4722e-06 0)
(0.028394 2.69518e-06 0)
(0.0283846 9.76207e-06 0)
(0.0285433 2.42003e-06 0)
(0.0285895 -8.05158e-06 0)
(0.0285902 2.70726e-06 0)
(0.0285831 9.93105e-06 0)
(0.0287089 2.4103e-06 0)
(0.0287544 -8.42358e-06 0)
(0.0287543 2.91027e-06 0)
(0.0287499 9.86667e-06 0)
(0.0288485 2.53235e-06 0)
(0.0288936 -8.92438e-06 0)
(0.028892 2.94658e-06 0)
(0.0288902 9.93994e-06 0)
(0.0289665 2.55414e-06 0)
(0.0290103 -9.33317e-06 0)
(0.0290076 3.06541e-06 0)
(0.0290085 9.76666e-06 0)
(0.0290671 2.67685e-06 0)
(0.0291099 -9.70781e-06 0)
(0.0291054 3.13997e-06 0)
(0.0291093 9.77059e-06 0)
(0.0291536 2.73355e-06 0)
(0.0291945 -1.01299e-05 0)
(0.0291885 3.16564e-06 0)
(0.0291955 9.51108e-06 0)
(0.0292296 2.75448e-06 0)
(0.0292684 -1.04681e-05 0)
(0.0292603 3.29094e-06 0)
(0.0292711 9.35266e-06 0)
(0.0292974 2.89505e-06 0)
(0.029333 -1.06887e-05 0)
(0.0293227 3.26258e-06 0)
(0.0293373 9.00516e-06 0)
(0.0293602 2.85513e-06 0)
(0.0293919 -1.10043e-05 0)
(0.0293791 3.34034e-06 0)
(0.029399 8.71654e-06 0)
(0.0294201 3.12785e-06 0)
(0.0294458 -1.11525e-05 0)
(0.02943 3.31271e-06 0)
(0.0294554 8.335e-06 0)
(0.0270989 8.01293e-06 0)
(0.0270956 -5.56327e-06 0)
(0.0271571 -8.69045e-06 0)
(0.0271438 -1.31409e-06 0)
(0.0275042 8.32479e-06 0)
(0.0275008 -5.99165e-06 0)
(0.0275595 -9.1817e-06 0)
(0.0275395 -9.77896e-07 0)
(0.0278456 8.53398e-06 0)
(0.0278421 -6.46023e-06 0)
(0.0278991 -9.44639e-06 0)
(0.027874 -4.16601e-07 0)
(0.0281323 8.84014e-06 0)
(0.0281281 -6.8699e-06 0)
(0.028183 -9.80396e-06 0)
(0.0281541 1.83704e-07 0)
(0.0283732 8.9585e-06 0)
(0.0283688 -7.25783e-06 0)
(0.0284221 -9.9816e-06 0)
(0.0283902 8.85883e-07 0)
(0.0285754 9.20951e-06 0)
(0.0285704 -7.66388e-06 0)
(0.0286218 -1.02296e-05 0)
(0.0285877 1.43872e-06 0)
(0.0287453 9.27026e-06 0)
(0.0287401 -8.02573e-06 0)
(0.0287899 -1.04008e-05 0)
(0.028754 2.20817e-06 0)
(0.0288886 9.46985e-06 0)
(0.0288826 -8.37391e-06 0)
(0.0289307 -1.05667e-05 0)
(0.0288934 2.81916e-06 0)
(0.0290095 9.50749e-06 0)
(0.0290031 -8.72782e-06 0)
(0.0290498 -1.0692e-05 0)
(0.0290116 3.58735e-06 0)
(0.029113 9.65396e-06 0)
(0.0291053 -9.00599e-06 0)
(0.0291503 -1.08099e-05 0)
(0.0291114 4.24713e-06 0)
(0.0292014 9.69872e-06 0)
(0.0291926 -9.35276e-06 0)
(0.0292365 -1.08981e-05 0)
(0.0291974 5.04666e-06 0)
(0.0292794 9.74215e-06 0)
(0.0292687 -9.6068e-06 0)
(0.0293106 -1.10781e-05 0)
(0.0292717 5.53275e-06 0)
(0.0293478 9.91227e-06 0)
(0.0293354 -9.75989e-06 0)
(0.0293759 -1.09076e-05 0)
(0.0293381 6.49695e-06 0)
(0.0294116 9.87726e-06 0)
(0.0293963 -1.0098e-05 0)
(0.0294343 -1.12397e-05 0)
(0.0293978 6.88934e-06 0)
(0.02947 1.00696e-05 0)
(0.0294526 -1.01211e-05 0)
(0.0294884 -1.10989e-05 0)
(0.0294546 7.6423e-06 0)
)
;

boundaryField
{
    topWall
    {
        type            calculated;
        value           nonuniform List<vector> 0();
    }
    botWall
    {
        type            calculated;
        value           nonuniform List<vector> 0();
    }
    inlet
    {
        type            cyclic;
    }
    outlet
    {
        type            cyclic;
    }
    fixWall
    {
        type            empty;
    }
    procBoundary1to0
    {
        type            processor;
        value           nonuniform List<vector> 8((0.026643 2.179e-06 0) (0.0266778 -5.12687e-06 0) (0.0266884 1.80678e-06 0) (0.0266608 8.44061e-06 0) (0.026617 7.58841e-06 0) (0.0266134 -5.10167e-06 0) (0.0266743 -8.13521e-06 0) (0.0266707 -1.76315e-06 0));
    }
    procBoundary1to2
    {
        type            processor;
        value           nonuniform List<vector> 8((0.0294769 3.2216e-06 0) (0.0294967 -1.11389e-05 0) (0.0294806 3.18821e-06 0) (0.0295114 7.98677e-06 0) (0.0295296 1.01214e-05 0) (0.0295087 -1.0374e-05 0) (0.0295391 -1.11994e-05 0) (0.0295092 8.32308e-06 0));
    }
}


// ************************************************************************* //
