/*--------------------------------*- C++ -*----------------------------------*\
  =========                 |
  \\      /  F ield         | OpenFOAM: The Open Source CFD Toolbox
   \\    /   O peration     | Website:  https://openfoam.org
    \\  /    A nd           | Version:  dev
     \\/     M anipulation  |

   OpenFOAM for Windows 20.09 (v1)
   Built by CFD Support, www.cfdsupport.com (based on Symscape).
\*---------------------------------------------------------------------------*/
FoamFile
{
    version     2.0;
    format      ascii;
    class       volSymmTensorField;
    location    "10";
    object      UPrime2Mean;
}
// * * * * * * * * * * * * * * * * * * * * * * * * * * * * * * * * * * * * * //

dimensions      [0 2 -2 0 0 0 0];

internalField   nonuniform List<symmTensor> 
120
(
(9.83191e-05 -3.34577e-08 0 6.97413e-11 0 0)
(9.78775e-05 5.36649e-08 0 6.62392e-11 0 0)
(9.71815e-05 1.50495e-08 0 1.3888e-11 0 0)
(9.72079e-05 7.87621e-10 0 4.99857e-11 0 0)
(0.00010503 -3.75278e-08 0 7.66885e-11 0 0)
(0.000104597 6.18019e-08 0 7.96411e-11 0 0)
(0.000103841 1.94036e-08 0 1.74747e-11 0 0)
(0.000103796 2.72055e-09 0 5.60413e-11 0 0)
(0.000111216 -3.99737e-08 0 8.09698e-11 0 0)
(0.000110808 6.81057e-08 0 8.99518e-11 0 0)
(0.000109994 2.37323e-08 0 2.18963e-11 0 0)
(0.000109892 5.28396e-09 0 6.35822e-11 0 0)
(0.000116881 -4.41021e-08 0 8.75005e-11 0 0)
(0.000116491 7.55785e-08 0 1.04242e-10 0 0)
(0.00011562 2.90783e-08 0 2.72561e-11 0 0)
(0.000115482 7.03397e-09 0 7.20778e-11 0 0)
(0.000122025 -4.70241e-08 0 9.32174e-11 0 0)
(0.00012166 8.21924e-08 0 1.1668e-10 0 0)
(0.000120737 3.43424e-08 0 3.30005e-11 0 0)
(0.00012058 9.86252e-09 0 8.11453e-11 0 0)
(0.000126673 -5.02634e-08 0 9.85729e-11 0 0)
(0.00012633 8.99798e-08 0 1.32481e-10 0 0)
(0.000125362 4.03869e-08 0 4.02168e-11 0 0)
(0.000125199 1.14264e-08 0 9.08486e-11 0 0)
(0.000130851 -5.3356e-08 0 1.04836e-10 0 0)
(0.000130534 9.66017e-08 0 1.4667e-10 0 0)
(0.000129527 4.61069e-08 0 4.75843e-11 0 0)
(0.000129368 1.3916e-08 0 1.02001e-10 0 0)
(0.000134596 -5.61853e-08 0 1.10566e-10 0 0)
(0.000134304 1.04084e-07 0 1.63748e-10 0 0)
(0.000133265 5.2298e-08 0 5.63274e-11 0 0)
(0.00013312 1.49568e-08 0 1.14095e-10 0 0)
(0.000137949 -5.93987e-08 0 1.16911e-10 0 0)
(0.000137685 1.10996e-07 0 1.81159e-10 0 0)
(0.000136621 5.84236e-08 0 6.52717e-11 0 0)
(0.000136497 1.69374e-08 0 1.2692e-10 0 0)
(0.00014095 -6.20578e-08 0 1.24269e-10 0 0)
(0.000140715 1.17679e-07 0 1.98073e-10 0 0)
(0.000139639 6.43293e-08 0 7.50253e-11 0 0)
(0.000139541 1.71875e-08 0 1.41561e-10 0 0)
(0.000143651 -6.55714e-08 0 1.30531e-10 0 0)
(0.000143449 1.24551e-07 0 2.17368e-10 0 0)
(0.000142368 7.04466e-08 0 8.49381e-11 0 0)
(0.000142304 1.83899e-08 0 1.55697e-10 0 0)
(0.00014609 -6.74705e-08 0 1.37279e-10 0 0)
(0.000145926 1.31282e-07 0 2.37824e-10 0 0)
(0.000144859 7.64888e-08 0 9.56234e-11 0 0)
(0.00014483 1.80749e-08 0 1.72458e-10 0 0)
(0.000148329 -7.08864e-08 0 1.45236e-10 0 0)
(0.000148208 1.3681e-07 0 2.57851e-10 0 0)
(0.000147167 8.10988e-08 0 1.05084e-10 0 0)
(0.000147178 1.79881e-08 0 1.89558e-10 0 0)
(0.000150396 -7.28921e-08 0 1.5053e-10 0 0)
(0.000150328 1.43086e-07 0 2.77007e-10 0 0)
(0.000149345 8.75297e-08 0 1.16265e-10 0 0)
(0.000149392 1.69393e-08 0 2.06167e-10 0 0)
(0.000152365 -7.66512e-08 0 1.60471e-10 0 0)
(0.000152361 1.4781e-07 0 2.92604e-10 0 0)
(0.00015146 9.15318e-08 0 1.25568e-10 0 0)
(0.000151531 1.54093e-08 0 2.22254e-10 0 0)
(9.66784e-05 1.75137e-08 0 1.94483e-11 0 0)
(9.70982e-05 -3.72884e-08 0 1.9827e-11 0 0)
(9.75073e-05 1.70323e-08 0 2.83872e-11 0 0)
(9.74905e-05 -3.56109e-08 0 2.63255e-11 0 0)
(0.000103282 1.88713e-08 0 2.20723e-11 0 0)
(0.000103734 -4.35658e-08 0 2.42277e-11 0 0)
(0.000104199 1.61994e-08 0 3.15614e-11 0 0)
(0.00010421 -4.0217e-08 0 2.67781e-11 0 0)
(0.000109404 2.07999e-08 0 2.58598e-11 0 0)
(0.000109872 -5.04784e-08 0 2.93494e-11 0 0)
(0.000110379 1.54915e-08 0 3.51456e-11 0 0)
(0.000110403 -4.5532e-08 0 2.78242e-11 0 0)
(0.00011504 2.12741e-08 0 2.86852e-11 0 0)
(0.000115524 -5.59254e-08 0 3.36974e-11 0 0)
(0.000116064 1.47859e-08 0 3.87901e-11 0 0)
(0.000116089 -5.04057e-08 0 2.93808e-11 0 0)
(0.000120184 2.3441e-08 0 3.32477e-11 0 0)
(0.000120664 -6.28621e-08 0 3.94568e-11 0 0)
(0.000121228 1.38266e-08 0 4.27142e-11 0 0)
(0.000121251 -5.54094e-08 0 3.17582e-11 0 0)
(0.000124857 2.29458e-08 0 3.64809e-11 0 0)
(0.000125331 -6.93853e-08 0 4.54636e-11 0 0)
(0.00012591 1.2361e-08 0 4.65222e-11 0 0)
(0.000125922 -5.99307e-08 0 3.40479e-11 0 0)
(0.000129081 2.44447e-08 0 4.09971e-11 0 0)
(0.000129534 -7.60424e-08 0 5.19777e-11 0 0)
(0.000130115 1.13646e-08 0 5.10186e-11 0 0)
(0.000130118 -6.49729e-08 0 3.75079e-11 0 0)
(0.000132892 2.40364e-08 0 4.51723e-11 0 0)
(0.000133322 -8.25653e-08 0 5.86193e-11 0 0)
(0.000133893 9.91565e-09 0 5.52969e-11 0 0)
(0.000133881 -6.89838e-08 0 4.06521e-11 0 0)
(0.00013633 2.46229e-08 0 4.96555e-11 0 0)
(0.000136724 -8.86521e-08 0 6.54081e-11 0 0)
(0.000137272 8.94821e-09 0 6.03651e-11 0 0)
(0.000137246 -7.37484e-08 0 4.51216e-11 0 0)
(0.000139438 2.46046e-08 0 5.45413e-11 0 0)
(0.000139794 -9.48141e-08 0 7.22745e-11 0 0)
(0.000140309 7.84499e-09 0 6.49574e-11 0 0)
(0.000140266 -7.74592e-08 0 4.90375e-11 0 0)
(0.000142268 2.45766e-08 0 5.90002e-11 0 0)
(0.000142572 -9.96255e-08 0 7.84377e-11 0 0)
(0.000143037 7.26612e-09 0 7.09476e-11 0 0)
(0.00014298 -8.22191e-08 0 5.449e-11 0 0)
(0.000144863 2.4325e-08 0 6.3851e-11 0 0)
(0.000145112 -1.05765e-07 0 8.57576e-11 0 0)
(0.000145526 6.7198e-09 0 7.58149e-11 0 0)
(0.00014545 -8.46464e-08 0 5.78962e-11 0 0)
(0.000147287 2.38305e-08 0 6.80926e-11 0 0)
(0.000147465 -1.09264e-07 0 9.04502e-11 0 0)
(0.000147807 6.10192e-09 0 8.08176e-11 0 0)
(0.000147719 -8.91985e-08 0 6.41615e-11 0 0)
(0.000149572 2.41133e-08 0 7.29661e-11 0 0)
(0.000149678 -1.13743e-07 0 9.68557e-11 0 0)
(0.000149964 6.98214e-09 0 8.76949e-11 0 0)
(0.000149859 -9.15517e-08 0 6.7891e-11 0 0)
(0.000151788 2.36423e-08 0 7.79527e-11 0 0)
(0.000151812 -1.17348e-07 0 1.01638e-10 0 0)
(0.00015203 6.62437e-09 0 9.25517e-11 0 0)
(0.00015192 -9.51189e-08 0 7.32852e-11 0 0)
)
;

boundaryField
{
    topWall
    {
        type            calculated;
        value           nonuniform List<symmTensor> 0();
    }
    botWall
    {
        type            calculated;
        value           nonuniform List<symmTensor> 0();
    }
    inlet
    {
        type            cyclic;
    }
    outlet
    {
        type            cyclic;
    }
    fixWall
    {
        type            empty;
    }
    procBoundary1to0
    {
        type            processor;
        value           nonuniform List<symmTensor> 8((9.10937e-05 -3.13606e-08 0 6.46558e-11 0 0) (9.06588e-05 4.74829e-08 0 5.76731e-11 0 0) (9.00101e-05 1.18565e-08 0 1.06477e-11 0 0) (9.01197e-05 -7.82754e-10 0 4.32097e-11 0 0) (8.96364e-05 1.60336e-08 0 1.68625e-11 0 0) (9.00155e-05 -3.18271e-08 0 1.60367e-11 0 0) (9.0357e-05 1.65644e-08 0 2.44708e-11 0 0) (9.02944e-05 -3.00423e-08 0 2.5929e-11 0 0));
    }
    procBoundary1to2
    {
        type            processor;
        value           nonuniform List<symmTensor> 8((0.000154231 -7.89711e-08 0 1.65966e-10 0 0) (0.000154266 1.51016e-07 0 2.97597e-10 0 0) (0.000153513 9.62125e-08 0 1.35516e-10 0 0) (0.000153622 1.35622e-08 0 2.35469e-10 0 0) (0.00015397 2.42776e-08 0 8.23025e-11 0 0) (0.000153968 -1.18583e-07 0 1.043e-10 0 0) (0.000154094 7.06033e-09 0 1.00559e-10 0 0) (0.000153932 -9.8205e-08 0 7.83349e-11 0 0));
    }
}


// ************************************************************************* //
