/*--------------------------------*- C++ -*----------------------------------*\
  =========                 |
  \\      /  F ield         | OpenFOAM: The Open Source CFD Toolbox
   \\    /   O peration     | Website:  https://openfoam.org
    \\  /    A nd           | Version:  dev
     \\/     M anipulation  |

   OpenFOAM for Windows 20.09 (v1)
   Built by CFD Support, www.cfdsupport.com (based on Symscape).
\*---------------------------------------------------------------------------*/
FoamFile
{
    version     2.0;
    format      ascii;
    class       volScalarField;
    location    "40";
    object      epsilon;
}
// * * * * * * * * * * * * * * * * * * * * * * * * * * * * * * * * * * * * * //

dimensions      [0 2 -3 0 0 0 0];

internalField   nonuniform List<scalar> 
1600
(
5.58365e-05
5.58364e-05
5.58363e-05
5.58364e-05
5.58365e-05
5.58366e-05
5.58368e-05
5.5837e-05
5.58373e-05
5.58377e-05
5.58381e-05
5.58384e-05
5.58388e-05
5.58391e-05
5.58394e-05
5.58396e-05
5.58398e-05
5.584e-05
5.58401e-05
5.58402e-05
5.58402e-05
5.58402e-05
5.584e-05
5.58395e-05
5.58386e-05
5.58377e-05
5.58368e-05
5.58362e-05
5.58358e-05
5.58357e-05
5.58356e-05
5.58356e-05
5.58356e-05
5.58356e-05
5.58356e-05
5.58356e-05
5.58356e-05
5.58357e-05
5.58357e-05
5.58362e-05
3.76851e-05
3.7685e-05
3.76849e-05
3.7685e-05
3.7685e-05
3.76851e-05
3.76851e-05
3.76852e-05
3.76854e-05
3.76856e-05
3.76858e-05
3.7686e-05
3.76862e-05
3.76864e-05
3.76866e-05
3.76868e-05
3.76869e-05
3.7687e-05
3.76871e-05
3.76872e-05
3.76873e-05
3.76873e-05
3.76872e-05
3.7687e-05
3.76865e-05
3.76859e-05
3.76854e-05
3.7685e-05
3.76847e-05
3.76846e-05
3.76845e-05
3.76845e-05
3.76845e-05
3.76845e-05
3.76845e-05
3.76845e-05
3.76845e-05
3.76845e-05
3.76845e-05
3.76848e-05
3.0962e-05
3.0962e-05
3.0962e-05
3.0962e-05
3.09621e-05
3.09621e-05
3.09622e-05
3.09622e-05
3.09623e-05
3.09624e-05
3.09626e-05
3.09627e-05
3.09629e-05
3.0963e-05
3.09632e-05
3.09633e-05
3.09634e-05
3.09635e-05
3.09636e-05
3.09637e-05
3.09637e-05
3.09638e-05
3.09637e-05
3.09636e-05
3.09633e-05
3.09628e-05
3.09624e-05
3.09621e-05
3.09619e-05
3.09617e-05
3.09616e-05
3.09616e-05
3.09616e-05
3.09616e-05
3.09616e-05
3.09616e-05
3.09616e-05
3.09616e-05
3.09616e-05
3.0962e-05
2.79118e-05
2.79118e-05
2.79119e-05
2.79119e-05
2.7912e-05
2.7912e-05
2.7912e-05
2.79121e-05
2.79121e-05
2.79122e-05
2.79123e-05
2.79124e-05
2.79126e-05
2.79127e-05
2.79128e-05
2.79129e-05
2.7913e-05
2.79131e-05
2.79132e-05
2.79132e-05
2.79133e-05
2.79133e-05
2.79133e-05
2.79132e-05
2.7913e-05
2.79127e-05
2.79123e-05
2.7912e-05
2.79118e-05
2.79116e-05
2.79115e-05
2.79115e-05
2.79115e-05
2.79115e-05
2.79115e-05
2.79115e-05
2.79115e-05
2.79115e-05
2.79115e-05
2.79118e-05
2.64503e-05
2.64504e-05
2.64505e-05
2.64505e-05
2.64505e-05
2.64506e-05
2.64506e-05
2.64506e-05
2.64507e-05
2.64507e-05
2.64508e-05
2.64509e-05
2.6451e-05
2.64511e-05
2.64512e-05
2.64512e-05
2.64513e-05
2.64514e-05
2.64515e-05
2.64515e-05
2.64516e-05
2.64516e-05
2.64516e-05
2.64516e-05
2.64514e-05
2.64511e-05
2.64508e-05
2.64505e-05
2.64503e-05
2.64502e-05
2.64501e-05
2.64501e-05
2.64501e-05
2.64501e-05
2.64501e-05
2.64501e-05
2.64501e-05
2.64501e-05
2.64501e-05
2.64503e-05
2.581e-05
2.58101e-05
2.58101e-05
2.58101e-05
2.58101e-05
2.58102e-05
2.58102e-05
2.58102e-05
2.58102e-05
2.58103e-05
2.58103e-05
2.58104e-05
2.58105e-05
2.58105e-05
2.58106e-05
2.58107e-05
2.58107e-05
2.58108e-05
2.58109e-05
2.58109e-05
2.5811e-05
2.5811e-05
2.5811e-05
2.5811e-05
2.58109e-05
2.58107e-05
2.58104e-05
2.58101e-05
2.58099e-05
2.58097e-05
2.58096e-05
2.58096e-05
2.58096e-05
2.58096e-05
2.58096e-05
2.58096e-05
2.58096e-05
2.58096e-05
2.58097e-05
2.58099e-05
2.56419e-05
2.56419e-05
2.56419e-05
2.56419e-05
2.56419e-05
2.56419e-05
2.56419e-05
2.5642e-05
2.5642e-05
2.5642e-05
2.5642e-05
2.56421e-05
2.56421e-05
2.56422e-05
2.56422e-05
2.56423e-05
2.56424e-05
2.56424e-05
2.56425e-05
2.56425e-05
2.56426e-05
2.56426e-05
2.56426e-05
2.56426e-05
2.56426e-05
2.56424e-05
2.56421e-05
2.56419e-05
2.56416e-05
2.56415e-05
2.56414e-05
2.56414e-05
2.56414e-05
2.56414e-05
2.56414e-05
2.56414e-05
2.56414e-05
2.56414e-05
2.56414e-05
2.56417e-05
2.57621e-05
2.57621e-05
2.57621e-05
2.57621e-05
2.57621e-05
2.57621e-05
2.57621e-05
2.57622e-05
2.57622e-05
2.57622e-05
2.57622e-05
2.57622e-05
2.57623e-05
2.57623e-05
2.57624e-05
2.57624e-05
2.57624e-05
2.57625e-05
2.57625e-05
2.57626e-05
2.57626e-05
2.57627e-05
2.57627e-05
2.57627e-05
2.57627e-05
2.57625e-05
2.57623e-05
2.5762e-05
2.57618e-05
2.57617e-05
2.57616e-05
2.57615e-05
2.57615e-05
2.57615e-05
2.57615e-05
2.57615e-05
2.57615e-05
2.57615e-05
2.57616e-05
2.57619e-05
2.60626e-05
2.60626e-05
2.60626e-05
2.60626e-05
2.60626e-05
2.60626e-05
2.60626e-05
2.60626e-05
2.60627e-05
2.60627e-05
2.60627e-05
2.60627e-05
2.60627e-05
2.60627e-05
2.60628e-05
2.60628e-05
2.60629e-05
2.60629e-05
2.60629e-05
2.6063e-05
2.6063e-05
2.60631e-05
2.60631e-05
2.60631e-05
2.60631e-05
2.6063e-05
2.60628e-05
2.60625e-05
2.60623e-05
2.60622e-05
2.60621e-05
2.6062e-05
2.6062e-05
2.6062e-05
2.6062e-05
2.6062e-05
2.6062e-05
2.6062e-05
2.60621e-05
2.60624e-05
2.64741e-05
2.64741e-05
2.64741e-05
2.64741e-05
2.64741e-05
2.64741e-05
2.64741e-05
2.64741e-05
2.64741e-05
2.64741e-05
2.64741e-05
2.64742e-05
2.64742e-05
2.64742e-05
2.64742e-05
2.64742e-05
2.64743e-05
2.64743e-05
2.64744e-05
2.64744e-05
2.64744e-05
2.64745e-05
2.64745e-05
2.64745e-05
2.64745e-05
2.64744e-05
2.64742e-05
2.6474e-05
2.64738e-05
2.64736e-05
2.64735e-05
2.64735e-05
2.64735e-05
2.64735e-05
2.64735e-05
2.64735e-05
2.64735e-05
2.64735e-05
2.64735e-05
2.64739e-05
2.69491e-05
2.6949e-05
2.6949e-05
2.6949e-05
2.6949e-05
2.6949e-05
2.6949e-05
2.6949e-05
2.69491e-05
2.69491e-05
2.69491e-05
2.69491e-05
2.69491e-05
2.69491e-05
2.69491e-05
2.69491e-05
2.69492e-05
2.69492e-05
2.69492e-05
2.69493e-05
2.69493e-05
2.69493e-05
2.69494e-05
2.69494e-05
2.69494e-05
2.69493e-05
2.69492e-05
2.6949e-05
2.69488e-05
2.69486e-05
2.69485e-05
2.69484e-05
2.69484e-05
2.69484e-05
2.69484e-05
2.69484e-05
2.69484e-05
2.69484e-05
2.69485e-05
2.69488e-05
2.7453e-05
2.7453e-05
2.7453e-05
2.7453e-05
2.7453e-05
2.7453e-05
2.7453e-05
2.74531e-05
2.74531e-05
2.74531e-05
2.74531e-05
2.74531e-05
2.74531e-05
2.74531e-05
2.74531e-05
2.74531e-05
2.74532e-05
2.74532e-05
2.74532e-05
2.74532e-05
2.74533e-05
2.74533e-05
2.74533e-05
2.74533e-05
2.74534e-05
2.74533e-05
2.74532e-05
2.7453e-05
2.74528e-05
2.74526e-05
2.74525e-05
2.74524e-05
2.74524e-05
2.74524e-05
2.74524e-05
2.74524e-05
2.74524e-05
2.74524e-05
2.74525e-05
2.74528e-05
2.79599e-05
2.79599e-05
2.796e-05
2.79601e-05
2.79602e-05
2.79602e-05
2.79602e-05
2.79602e-05
2.79602e-05
2.79602e-05
2.79602e-05
2.79602e-05
2.79602e-05
2.79602e-05
2.79602e-05
2.79602e-05
2.79602e-05
2.79602e-05
2.79603e-05
2.79603e-05
2.79603e-05
2.79603e-05
2.79604e-05
2.79604e-05
2.79604e-05
2.79604e-05
2.79603e-05
2.79601e-05
2.79599e-05
2.79597e-05
2.79596e-05
2.79595e-05
2.79595e-05
2.79595e-05
2.79595e-05
2.79595e-05
2.79595e-05
2.79595e-05
2.79596e-05
2.79598e-05
2.84495e-05
2.84497e-05
2.84499e-05
2.845e-05
2.845e-05
2.845e-05
2.845e-05
2.845e-05
2.845e-05
2.845e-05
2.845e-05
2.845e-05
2.845e-05
2.845e-05
2.845e-05
2.845e-05
2.845e-05
2.845e-05
2.84501e-05
2.84501e-05
2.84501e-05
2.84501e-05
2.84502e-05
2.84502e-05
2.84502e-05
2.84502e-05
2.84501e-05
2.84499e-05
2.84497e-05
2.84496e-05
2.84494e-05
2.84494e-05
2.84493e-05
2.84493e-05
2.84493e-05
2.84493e-05
2.84493e-05
2.84493e-05
2.84494e-05
2.84494e-05
2.89055e-05
2.89057e-05
2.89059e-05
2.8906e-05
2.8906e-05
2.8906e-05
2.8906e-05
2.8906e-05
2.89059e-05
2.89059e-05
2.8906e-05
2.8906e-05
2.8906e-05
2.8906e-05
2.8906e-05
2.8906e-05
2.8906e-05
2.8906e-05
2.8906e-05
2.8906e-05
2.89061e-05
2.89061e-05
2.89061e-05
2.89061e-05
2.89061e-05
2.89061e-05
2.8906e-05
2.89059e-05
2.89057e-05
2.89056e-05
2.89054e-05
2.89054e-05
2.89053e-05
2.89053e-05
2.89053e-05
2.89053e-05
2.89053e-05
2.89053e-05
2.89053e-05
2.89054e-05
2.93138e-05
2.9314e-05
2.93141e-05
2.93142e-05
2.93142e-05
2.93143e-05
2.93142e-05
2.93142e-05
2.93142e-05
2.93142e-05
2.93142e-05
2.93142e-05
2.93142e-05
2.93142e-05
2.93142e-05
2.93142e-05
2.93142e-05
2.93142e-05
2.93142e-05
2.93143e-05
2.93143e-05
2.93143e-05
2.93143e-05
2.93144e-05
2.93144e-05
2.93144e-05
2.93143e-05
2.93141e-05
2.9314e-05
2.93138e-05
2.93137e-05
2.93136e-05
2.93136e-05
2.93136e-05
2.93136e-05
2.93136e-05
2.93136e-05
2.93136e-05
2.93136e-05
2.93136e-05
2.96622e-05
2.96624e-05
2.96625e-05
2.96626e-05
2.96626e-05
2.96626e-05
2.96625e-05
2.96625e-05
2.96625e-05
2.96625e-05
2.96625e-05
2.96625e-05
2.96625e-05
2.96625e-05
2.96625e-05
2.96625e-05
2.96625e-05
2.96626e-05
2.96626e-05
2.96626e-05
2.96626e-05
2.96627e-05
2.96627e-05
2.96627e-05
2.96627e-05
2.96627e-05
2.96626e-05
2.96625e-05
2.96623e-05
2.96622e-05
2.96621e-05
2.9662e-05
2.9662e-05
2.9662e-05
2.9662e-05
2.9662e-05
2.9662e-05
2.9662e-05
2.9662e-05
2.9662e-05
2.99396e-05
2.99398e-05
2.99399e-05
2.99399e-05
2.99399e-05
2.99399e-05
2.99399e-05
2.99398e-05
2.99398e-05
2.99398e-05
2.99398e-05
2.99398e-05
2.99398e-05
2.99398e-05
2.99399e-05
2.99399e-05
2.99399e-05
2.99399e-05
2.99399e-05
2.994e-05
2.994e-05
2.994e-05
2.994e-05
2.99401e-05
2.99401e-05
2.994e-05
2.994e-05
2.99398e-05
2.99397e-05
2.99396e-05
2.99395e-05
2.99394e-05
2.99394e-05
2.99393e-05
2.99393e-05
2.99393e-05
2.99394e-05
2.99394e-05
2.99394e-05
2.99394e-05
3.01354e-05
3.01356e-05
3.01356e-05
3.01357e-05
3.01357e-05
3.01357e-05
3.01356e-05
3.01356e-05
3.01356e-05
3.01356e-05
3.01356e-05
3.01356e-05
3.01356e-05
3.01356e-05
3.01356e-05
3.01356e-05
3.01356e-05
3.01357e-05
3.01357e-05
3.01357e-05
3.01358e-05
3.01358e-05
3.01358e-05
3.01358e-05
3.01358e-05
3.01358e-05
3.01357e-05
3.01356e-05
3.01355e-05
3.01353e-05
3.01352e-05
3.01352e-05
3.01351e-05
3.01351e-05
3.01351e-05
3.01351e-05
3.01351e-05
3.01351e-05
3.01351e-05
3.01352e-05
3.02389e-05
3.02391e-05
3.02391e-05
3.02392e-05
3.02392e-05
3.02391e-05
3.02391e-05
3.0239e-05
3.0239e-05
3.0239e-05
3.0239e-05
3.0239e-05
3.02391e-05
3.02391e-05
3.02391e-05
3.02391e-05
3.02391e-05
3.02391e-05
3.02392e-05
3.02392e-05
3.02392e-05
3.02393e-05
3.02393e-05
3.02393e-05
3.02393e-05
3.02393e-05
3.02392e-05
3.02391e-05
3.02389e-05
3.02388e-05
3.02387e-05
3.02387e-05
3.02386e-05
3.02386e-05
3.02386e-05
3.02386e-05
3.02386e-05
3.02386e-05
3.02386e-05
3.02387e-05
3.0239e-05
3.02391e-05
3.02392e-05
3.02392e-05
3.02392e-05
3.02391e-05
3.02391e-05
3.0239e-05
3.0239e-05
3.0239e-05
3.0239e-05
3.02391e-05
3.02391e-05
3.02391e-05
3.02391e-05
3.02391e-05
3.02391e-05
3.02392e-05
3.02392e-05
3.02392e-05
3.02392e-05
3.02393e-05
3.02393e-05
3.02393e-05
3.02393e-05
3.02393e-05
3.02392e-05
3.02391e-05
3.0239e-05
3.02388e-05
3.02387e-05
3.02387e-05
3.02387e-05
3.02387e-05
3.02387e-05
3.02387e-05
3.02387e-05
3.02387e-05
3.02387e-05
3.02387e-05
3.01356e-05
3.01357e-05
3.01357e-05
3.01357e-05
3.01357e-05
3.01357e-05
3.01356e-05
3.01356e-05
3.01356e-05
3.01356e-05
3.01356e-05
3.01356e-05
3.01356e-05
3.01356e-05
3.01356e-05
3.01356e-05
3.01357e-05
3.01357e-05
3.01357e-05
3.01357e-05
3.01358e-05
3.01358e-05
3.01358e-05
3.01358e-05
3.01358e-05
3.01358e-05
3.01357e-05
3.01356e-05
3.01355e-05
3.01354e-05
3.01353e-05
3.01352e-05
3.01352e-05
3.01352e-05
3.01352e-05
3.01352e-05
3.01352e-05
3.01352e-05
3.01352e-05
3.01353e-05
2.99399e-05
2.994e-05
2.994e-05
2.994e-05
2.994e-05
2.99399e-05
2.99399e-05
2.99398e-05
2.99398e-05
2.99398e-05
2.99399e-05
2.99399e-05
2.99399e-05
2.99399e-05
2.99399e-05
2.99399e-05
2.99399e-05
2.99399e-05
2.994e-05
2.994e-05
2.994e-05
2.994e-05
2.99401e-05
2.99401e-05
2.99401e-05
2.994e-05
2.994e-05
2.99399e-05
2.99397e-05
2.99396e-05
2.99395e-05
2.99395e-05
2.99395e-05
2.99395e-05
2.99395e-05
2.99395e-05
2.99395e-05
2.99395e-05
2.99395e-05
2.99396e-05
2.96625e-05
2.96626e-05
2.96626e-05
2.96627e-05
2.96626e-05
2.96626e-05
2.96625e-05
2.96625e-05
2.96625e-05
2.96625e-05
2.96625e-05
2.96625e-05
2.96625e-05
2.96625e-05
2.96625e-05
2.96625e-05
2.96625e-05
2.96626e-05
2.96626e-05
2.96626e-05
2.96626e-05
2.96627e-05
2.96627e-05
2.96627e-05
2.96627e-05
2.96627e-05
2.96626e-05
2.96625e-05
2.96623e-05
2.96622e-05
2.96621e-05
2.96621e-05
2.96621e-05
2.96621e-05
2.96621e-05
2.96621e-05
2.96621e-05
2.96621e-05
2.96621e-05
2.96622e-05
2.93141e-05
2.93142e-05
2.93142e-05
2.93142e-05
2.93142e-05
2.93142e-05
2.93141e-05
2.93141e-05
2.93141e-05
2.93141e-05
2.93141e-05
2.93141e-05
2.93141e-05
2.93141e-05
2.93141e-05
2.93141e-05
2.93142e-05
2.93142e-05
2.93142e-05
2.93142e-05
2.93142e-05
2.93143e-05
2.93143e-05
2.93143e-05
2.93143e-05
2.93143e-05
2.93142e-05
2.93141e-05
2.93139e-05
2.93138e-05
2.93137e-05
2.93137e-05
2.93137e-05
2.93137e-05
2.93137e-05
2.93137e-05
2.93137e-05
2.93137e-05
2.93138e-05
2.93138e-05
2.89058e-05
2.89059e-05
2.89059e-05
2.89059e-05
2.89059e-05
2.89059e-05
2.89058e-05
2.89058e-05
2.89058e-05
2.89058e-05
2.89058e-05
2.89058e-05
2.89058e-05
2.89059e-05
2.89059e-05
2.89059e-05
2.89059e-05
2.89059e-05
2.89059e-05
2.89059e-05
2.8906e-05
2.8906e-05
2.8906e-05
2.8906e-05
2.8906e-05
2.8906e-05
2.89059e-05
2.89058e-05
2.89056e-05
2.89055e-05
2.89055e-05
2.89054e-05
2.89054e-05
2.89054e-05
2.89055e-05
2.89055e-05
2.89055e-05
2.89055e-05
2.89055e-05
2.89055e-05
2.84499e-05
2.84499e-05
2.84499e-05
2.84499e-05
2.84499e-05
2.84498e-05
2.84498e-05
2.84498e-05
2.84498e-05
2.84498e-05
2.84498e-05
2.84498e-05
2.84498e-05
2.84498e-05
2.84498e-05
2.84498e-05
2.84498e-05
2.84498e-05
2.84499e-05
2.84499e-05
2.84499e-05
2.84499e-05
2.845e-05
2.845e-05
2.845e-05
2.845e-05
2.84499e-05
2.84497e-05
2.84496e-05
2.84495e-05
2.84494e-05
2.84494e-05
2.84494e-05
2.84494e-05
2.84494e-05
2.84494e-05
2.84494e-05
2.84494e-05
2.84494e-05
2.84497e-05
2.79602e-05
2.79601e-05
2.796e-05
2.796e-05
2.79599e-05
2.79599e-05
2.79599e-05
2.79599e-05
2.79599e-05
2.79599e-05
2.79599e-05
2.79599e-05
2.79599e-05
2.79599e-05
2.79599e-05
2.79599e-05
2.79599e-05
2.796e-05
2.796e-05
2.796e-05
2.796e-05
2.79601e-05
2.79601e-05
2.79601e-05
2.79601e-05
2.79601e-05
2.796e-05
2.79598e-05
2.79597e-05
2.79596e-05
2.79595e-05
2.79595e-05
2.79595e-05
2.79595e-05
2.79595e-05
2.79595e-05
2.79595e-05
2.79595e-05
2.79596e-05
2.79599e-05
2.74529e-05
2.74528e-05
2.74528e-05
2.74527e-05
2.74527e-05
2.74527e-05
2.74527e-05
2.74527e-05
2.74527e-05
2.74527e-05
2.74527e-05
2.74527e-05
2.74527e-05
2.74527e-05
2.74527e-05
2.74527e-05
2.74528e-05
2.74528e-05
2.74528e-05
2.74528e-05
2.74529e-05
2.74529e-05
2.74529e-05
2.74529e-05
2.74529e-05
2.74529e-05
2.74528e-05
2.74526e-05
2.74525e-05
2.74524e-05
2.74523e-05
2.74523e-05
2.74523e-05
2.74523e-05
2.74523e-05
2.74523e-05
2.74523e-05
2.74523e-05
2.74524e-05
2.74526e-05
2.69486e-05
2.69486e-05
2.69486e-05
2.69486e-05
2.69486e-05
2.69486e-05
2.69486e-05
2.69486e-05
2.69486e-05
2.69486e-05
2.69486e-05
2.69486e-05
2.69486e-05
2.69486e-05
2.69486e-05
2.69486e-05
2.69487e-05
2.69487e-05
2.69487e-05
2.69488e-05
2.69488e-05
2.69488e-05
2.69488e-05
2.69488e-05
2.69489e-05
2.69488e-05
2.69487e-05
2.69485e-05
2.69483e-05
2.69482e-05
2.69482e-05
2.69482e-05
2.69482e-05
2.69482e-05
2.69482e-05
2.69482e-05
2.69482e-05
2.69482e-05
2.69482e-05
2.69484e-05
2.64734e-05
2.64735e-05
2.64735e-05
2.64735e-05
2.64735e-05
2.64735e-05
2.64736e-05
2.64736e-05
2.64736e-05
2.64736e-05
2.64736e-05
2.64736e-05
2.64736e-05
2.64736e-05
2.64736e-05
2.64736e-05
2.64736e-05
2.64737e-05
2.64737e-05
2.64737e-05
2.64738e-05
2.64738e-05
2.64738e-05
2.64738e-05
2.64738e-05
2.64738e-05
2.64736e-05
2.64734e-05
2.64733e-05
2.64732e-05
2.64731e-05
2.64732e-05
2.64732e-05
2.64732e-05
2.64732e-05
2.64732e-05
2.64732e-05
2.64732e-05
2.64732e-05
2.64733e-05
2.60618e-05
2.60619e-05
2.60619e-05
2.60619e-05
2.60619e-05
2.60619e-05
2.60619e-05
2.60619e-05
2.60619e-05
2.60619e-05
2.60619e-05
2.6062e-05
2.6062e-05
2.6062e-05
2.6062e-05
2.6062e-05
2.60621e-05
2.60621e-05
2.60621e-05
2.60622e-05
2.60622e-05
2.60623e-05
2.60623e-05
2.60623e-05
2.60623e-05
2.60622e-05
2.6062e-05
2.60618e-05
2.60617e-05
2.60616e-05
2.60616e-05
2.60616e-05
2.60616e-05
2.60616e-05
2.60616e-05
2.60616e-05
2.60616e-05
2.60616e-05
2.60616e-05
2.60618e-05
2.57612e-05
2.57612e-05
2.57613e-05
2.57613e-05
2.57613e-05
2.57613e-05
2.57613e-05
2.57613e-05
2.57613e-05
2.57613e-05
2.57613e-05
2.57613e-05
2.57614e-05
2.57614e-05
2.57614e-05
2.57615e-05
2.57615e-05
2.57615e-05
2.57616e-05
2.57616e-05
2.57617e-05
2.57617e-05
2.57617e-05
2.57617e-05
2.57617e-05
2.57616e-05
2.57614e-05
2.57612e-05
2.57611e-05
2.5761e-05
2.5761e-05
2.5761e-05
2.5761e-05
2.5761e-05
2.5761e-05
2.5761e-05
2.5761e-05
2.5761e-05
2.5761e-05
2.57612e-05
2.56408e-05
2.56409e-05
2.56409e-05
2.56409e-05
2.56409e-05
2.56409e-05
2.56409e-05
2.5641e-05
2.5641e-05
2.5641e-05
2.5641e-05
2.5641e-05
2.56411e-05
2.56411e-05
2.56412e-05
2.56412e-05
2.56413e-05
2.56413e-05
2.56414e-05
2.56414e-05
2.56415e-05
2.56415e-05
2.56415e-05
2.56415e-05
2.56415e-05
2.56413e-05
2.56411e-05
2.56409e-05
2.56408e-05
2.56407e-05
2.56407e-05
2.56407e-05
2.56407e-05
2.56407e-05
2.56407e-05
2.56407e-05
2.56407e-05
2.56407e-05
2.56407e-05
2.56409e-05
2.58089e-05
2.5809e-05
2.5809e-05
2.5809e-05
2.5809e-05
2.5809e-05
2.5809e-05
2.58091e-05
2.58091e-05
2.58091e-05
2.58091e-05
2.58092e-05
2.58092e-05
2.58093e-05
2.58093e-05
2.58094e-05
2.58095e-05
2.58095e-05
2.58096e-05
2.58097e-05
2.58097e-05
2.58097e-05
2.58097e-05
2.58097e-05
2.58096e-05
2.58094e-05
2.58092e-05
2.58091e-05
2.58089e-05
2.58089e-05
2.58088e-05
2.58088e-05
2.58088e-05
2.58088e-05
2.58088e-05
2.58088e-05
2.58088e-05
2.58088e-05
2.58088e-05
2.5809e-05
2.64493e-05
2.64493e-05
2.64493e-05
2.64493e-05
2.64493e-05
2.64493e-05
2.64493e-05
2.64493e-05
2.64494e-05
2.64494e-05
2.64495e-05
2.64495e-05
2.64496e-05
2.64496e-05
2.64497e-05
2.64498e-05
2.64499e-05
2.645e-05
2.645e-05
2.64501e-05
2.64502e-05
2.64502e-05
2.64502e-05
2.64501e-05
2.645e-05
2.64498e-05
2.64496e-05
2.64494e-05
2.64493e-05
2.64492e-05
2.64491e-05
2.64491e-05
2.64491e-05
2.64491e-05
2.64491e-05
2.64491e-05
2.64491e-05
2.64491e-05
2.64491e-05
2.64493e-05
2.79106e-05
2.79105e-05
2.79105e-05
2.79105e-05
2.79105e-05
2.79105e-05
2.79106e-05
2.79106e-05
2.79107e-05
2.79107e-05
2.79108e-05
2.79109e-05
2.7911e-05
2.7911e-05
2.79111e-05
2.79112e-05
2.79113e-05
2.79114e-05
2.79115e-05
2.79116e-05
2.79116e-05
2.79117e-05
2.79116e-05
2.79116e-05
2.79114e-05
2.79111e-05
2.79109e-05
2.79107e-05
2.79106e-05
2.79105e-05
2.79105e-05
2.79104e-05
2.79104e-05
2.79104e-05
2.79104e-05
2.79104e-05
2.79104e-05
2.79104e-05
2.79104e-05
2.79106e-05
3.09605e-05
3.09604e-05
3.09604e-05
3.09604e-05
3.09604e-05
3.09604e-05
3.09605e-05
3.09605e-05
3.09606e-05
3.09607e-05
3.09608e-05
3.09609e-05
3.0961e-05
3.09611e-05
3.09612e-05
3.09613e-05
3.09614e-05
3.09615e-05
3.09617e-05
3.09618e-05
3.09618e-05
3.09618e-05
3.09618e-05
3.09617e-05
3.09614e-05
3.09611e-05
3.09608e-05
3.09606e-05
3.09605e-05
3.09604e-05
3.09604e-05
3.09603e-05
3.09603e-05
3.09603e-05
3.09603e-05
3.09603e-05
3.09603e-05
3.09603e-05
3.09603e-05
3.09605e-05
3.7683e-05
3.7683e-05
3.76829e-05
3.76829e-05
3.76829e-05
3.76829e-05
3.7683e-05
3.76831e-05
3.76832e-05
3.76833e-05
3.76835e-05
3.76836e-05
3.76837e-05
3.76839e-05
3.7684e-05
3.76842e-05
3.76844e-05
3.76845e-05
3.76846e-05
3.76847e-05
3.76848e-05
3.76848e-05
3.76847e-05
3.76845e-05
3.76841e-05
3.76837e-05
3.76834e-05
3.76831e-05
3.7683e-05
3.76829e-05
3.76828e-05
3.76828e-05
3.76828e-05
3.76828e-05
3.76828e-05
3.76828e-05
3.76828e-05
3.76828e-05
3.76827e-05
3.7683e-05
5.58333e-05
5.58332e-05
5.58331e-05
5.58331e-05
5.58332e-05
5.58333e-05
5.58335e-05
5.58337e-05
5.58339e-05
5.58341e-05
5.58343e-05
5.58346e-05
5.58348e-05
5.5835e-05
5.58352e-05
5.58355e-05
5.58357e-05
5.58359e-05
5.58361e-05
5.58362e-05
5.58362e-05
5.58362e-05
5.5836e-05
5.58355e-05
5.58348e-05
5.58342e-05
5.58336e-05
5.58333e-05
5.5833e-05
5.58329e-05
5.58329e-05
5.58329e-05
5.58329e-05
5.58329e-05
5.58329e-05
5.58329e-05
5.58329e-05
5.58328e-05
5.58328e-05
5.58332e-05
)
;

boundaryField
{
    bottomWall
    {
        type            epsilonWallFunction;
        value           nonuniform List<scalar> 
40
(
5.58365e-05
5.58364e-05
5.58363e-05
5.58364e-05
5.58365e-05
5.58366e-05
5.58368e-05
5.5837e-05
5.58373e-05
5.58377e-05
5.58381e-05
5.58384e-05
5.58388e-05
5.58391e-05
5.58394e-05
5.58396e-05
5.58398e-05
5.584e-05
5.58401e-05
5.58402e-05
5.58402e-05
5.58402e-05
5.584e-05
5.58395e-05
5.58386e-05
5.58377e-05
5.58368e-05
5.58362e-05
5.58358e-05
5.58357e-05
5.58356e-05
5.58356e-05
5.58356e-05
5.58356e-05
5.58356e-05
5.58356e-05
5.58356e-05
5.58357e-05
5.58357e-05
5.58362e-05
)
;
    }
    topWall
    {
        type            epsilonWallFunction;
        value           nonuniform List<scalar> 
40
(
5.58333e-05
5.58332e-05
5.58331e-05
5.58331e-05
5.58332e-05
5.58333e-05
5.58335e-05
5.58337e-05
5.58339e-05
5.58341e-05
5.58343e-05
5.58346e-05
5.58348e-05
5.5835e-05
5.58352e-05
5.58355e-05
5.58357e-05
5.58359e-05
5.58361e-05
5.58362e-05
5.58362e-05
5.58362e-05
5.5836e-05
5.58355e-05
5.58348e-05
5.58342e-05
5.58336e-05
5.58333e-05
5.5833e-05
5.58329e-05
5.58329e-05
5.58329e-05
5.58329e-05
5.58329e-05
5.58329e-05
5.58329e-05
5.58329e-05
5.58328e-05
5.58328e-05
5.58332e-05
)
;
    }
    sides1_half0
    {
        type            empty;
    }
    sides1_half1
    {
        type            empty;
    }
    sides2_half0
    {
        type            empty;
    }
    sides2_half1
    {
        type            empty;
    }
    inout1_half0
    {
        type            cyclic;
    }
    inout1_half1
    {
        type            cyclic;
    }
    inout2_half0
    {
        type            cyclic;
    }
    inout2_half1
    {
        type            cyclic;
    }
}


// ************************************************************************* //
