/*--------------------------------*- C++ -*----------------------------------*\
  =========                 |
  \\      /  F ield         | OpenFOAM: The Open Source CFD Toolbox
   \\    /   O peration     | Website:  https://openfoam.org
    \\  /    A nd           | Version:  dev
     \\/     M anipulation  |

   OpenFOAM for Windows 20.09 (v1)
   Built by CFD Support, www.cfdsupport.com (based on Symscape).
\*---------------------------------------------------------------------------*/
FoamFile
{
    version     2.0;
    format      ascii;
    class       volScalarField;
    location    "40";
    object      k;
}
// * * * * * * * * * * * * * * * * * * * * * * * * * * * * * * * * * * * * * //

dimensions      [0 2 -2 0 0 0 0];

internalField   nonuniform List<scalar> 
1600
(
0.000413632
0.000413631
0.000413631
0.000413631
0.000413632
0.000413633
0.000413634
0.000413636
0.000413638
0.000413641
0.000413643
0.000413646
0.000413649
0.000413651
0.000413653
0.000413655
0.000413656
0.000413658
0.000413659
0.000413659
0.00041366
0.00041366
0.000413659
0.000413656
0.00041365
0.000413643
0.000413637
0.000413631
0.000413628
0.000413626
0.000413626
0.000413626
0.000413626
0.000413626
0.000413626
0.000413626
0.000413626
0.000413626
0.000413626
0.00041363
0.000520997
0.000520997
0.000520998
0.000520999
0.000521
0.000521002
0.000521003
0.000521005
0.000521007
0.00052101
0.000521012
0.000521015
0.000521017
0.000521019
0.000521021
0.000521023
0.000521024
0.000521025
0.000521026
0.000521027
0.000521027
0.000521027
0.000521027
0.000521025
0.00052102
0.000521012
0.000521005
0.000520999
0.000520995
0.000520993
0.000520993
0.000520993
0.000520993
0.000520993
0.000520993
0.000520993
0.000520993
0.000520993
0.000520993
0.000520997
0.000591169
0.00059117
0.000591172
0.000591174
0.000591176
0.000591177
0.000591179
0.000591181
0.000591183
0.000591185
0.000591187
0.00059119
0.000591192
0.000591194
0.000591196
0.000591198
0.000591199
0.0005912
0.000591201
0.000591202
0.000591202
0.000591203
0.000591203
0.000591201
0.000591197
0.000591189
0.00059118
0.000591173
0.000591169
0.000591166
0.000591166
0.000591166
0.000591166
0.000591166
0.000591166
0.000591166
0.000591166
0.000591166
0.000591166
0.000591169
0.000648979
0.000648982
0.000648986
0.000648988
0.00064899
0.000648992
0.000648993
0.000648995
0.000648997
0.000648999
0.000649001
0.000649003
0.000649006
0.000649008
0.000649009
0.000649011
0.000649012
0.000649013
0.000649014
0.000649015
0.000649016
0.000649016
0.000649016
0.000649015
0.000649011
0.000649003
0.000648994
0.000648986
0.000648981
0.000648978
0.000648977
0.000648977
0.000648977
0.000648977
0.000648977
0.000648978
0.000648978
0.000648978
0.000648978
0.00064898
0.000700309
0.000700314
0.000700318
0.000700321
0.000700323
0.000700324
0.000700325
0.000700326
0.000700328
0.00070033
0.000700332
0.000700334
0.000700336
0.000700338
0.000700339
0.000700341
0.000700342
0.000700343
0.000700344
0.000700345
0.000700346
0.000700346
0.000700347
0.000700346
0.000700343
0.000700335
0.000700325
0.000700316
0.00070031
0.000700307
0.000700306
0.000700306
0.000700306
0.000700307
0.000700307
0.000700307
0.000700307
0.000700307
0.000700307
0.000700308
0.000747452
0.000747457
0.000747461
0.000747463
0.000747465
0.000747465
0.000747466
0.000747467
0.000747469
0.00074747
0.000747472
0.000747474
0.000747475
0.000747477
0.000747478
0.00074748
0.000747481
0.000747482
0.000747483
0.000747483
0.000747484
0.000747485
0.000747486
0.000747486
0.000747483
0.000747475
0.000747465
0.000747455
0.000747448
0.000747445
0.000747445
0.000747444
0.000747445
0.000747445
0.000747445
0.000747445
0.000747445
0.000747445
0.000747446
0.000747447
0.000791478
0.000791484
0.000791488
0.00079149
0.00079149
0.000791491
0.000791491
0.000791492
0.000791493
0.000791494
0.000791496
0.000791497
0.000791498
0.0007915
0.000791501
0.000791502
0.000791503
0.000791504
0.000791505
0.000791506
0.000791506
0.000791507
0.000791509
0.000791509
0.000791507
0.000791499
0.000791488
0.000791478
0.00079147
0.000791467
0.000791467
0.000791466
0.000791467
0.000791467
0.000791467
0.000791467
0.000791467
0.000791468
0.000791468
0.000791469
0.000832914
0.000832921
0.000832925
0.000832926
0.000832927
0.000832927
0.000832927
0.000832928
0.000832929
0.000832929
0.00083293
0.000832931
0.000832932
0.000832933
0.000832934
0.000832935
0.000832936
0.000832937
0.000832938
0.000832938
0.000832939
0.00083294
0.000832942
0.000832942
0.000832941
0.000832934
0.000832922
0.000832911
0.000832903
0.0008329
0.000832899
0.000832899
0.000832899
0.0008329
0.0008329
0.000832901
0.0008329
0.000832901
0.000832901
0.000832903
0.000871997
0.000872005
0.000872009
0.00087201
0.00087201
0.00087201
0.000872011
0.000872011
0.000872012
0.000872012
0.000872013
0.000872014
0.000872014
0.000872015
0.000872016
0.000872016
0.000872017
0.000872018
0.000872018
0.000872019
0.00087202
0.000872021
0.000872023
0.000872023
0.000872022
0.000872016
0.000872004
0.000871993
0.000871985
0.000871981
0.00087198
0.00087198
0.000871981
0.000871981
0.000871981
0.000871981
0.000871982
0.000871981
0.000871982
0.000871984
0.000908796
0.000908804
0.000908809
0.00090881
0.00090881
0.00090881
0.00090881
0.000908811
0.000908811
0.000908812
0.000908812
0.000908812
0.000908812
0.000908813
0.000908814
0.000908814
0.000908815
0.000908815
0.000908816
0.000908816
0.000908817
0.000908818
0.00090882
0.000908821
0.00090882
0.000908814
0.000908802
0.000908791
0.000908782
0.000908778
0.000908777
0.000908777
0.000908778
0.000908778
0.000908778
0.000908779
0.000908779
0.000908779
0.000908779
0.000908782
0.000943275
0.000943283
0.000943287
0.000943288
0.000943288
0.000943288
0.000943288
0.000943288
0.000943289
0.00094329
0.00094329
0.00094329
0.00094329
0.00094329
0.000943291
0.000943291
0.000943292
0.000943292
0.000943293
0.000943293
0.000943294
0.000943295
0.000943297
0.000943298
0.000943297
0.000943292
0.00094328
0.000943269
0.00094326
0.000943255
0.000943254
0.000943254
0.000943255
0.000943255
0.000943256
0.000943256
0.000943256
0.000943256
0.000943256
0.00094326
0.000975329
0.000975336
0.000975339
0.00097534
0.00097534
0.000975341
0.000975341
0.000975341
0.000975342
0.000975342
0.000975342
0.000975342
0.000975342
0.000975343
0.000975343
0.000975344
0.000975344
0.000975345
0.000975345
0.000975346
0.000975347
0.000975348
0.000975349
0.00097535
0.00097535
0.000975344
0.000975333
0.000975322
0.000975313
0.000975308
0.000975307
0.000975307
0.000975307
0.000975308
0.000975308
0.000975308
0.000975308
0.000975308
0.000975309
0.000975313
0.00100481
0.00100481
0.00100482
0.00100482
0.00100482
0.00100482
0.00100482
0.00100482
0.00100482
0.00100482
0.00100482
0.00100482
0.00100482
0.00100482
0.00100482
0.00100482
0.00100482
0.00100482
0.00100482
0.00100482
0.00100483
0.00100483
0.00100483
0.00100483
0.00100483
0.00100482
0.00100481
0.0010048
0.00100479
0.00100479
0.00100479
0.00100479
0.00100479
0.00100479
0.00100479
0.00100479
0.00100479
0.00100479
0.00100479
0.00100479
0.00103153
0.00103154
0.00103154
0.00103154
0.00103154
0.00103154
0.00103154
0.00103154
0.00103154
0.00103154
0.00103154
0.00103154
0.00103154
0.00103155
0.00103155
0.00103155
0.00103155
0.00103155
0.00103155
0.00103155
0.00103155
0.00103155
0.00103155
0.00103155
0.00103155
0.00103155
0.00103154
0.00103153
0.00103152
0.00103151
0.00103151
0.00103151
0.00103151
0.00103151
0.00103151
0.00103151
0.00103151
0.00103151
0.00103151
0.00103151
0.00105529
0.0010553
0.0010553
0.0010553
0.0010553
0.0010553
0.0010553
0.0010553
0.0010553
0.00105531
0.00105531
0.00105531
0.00105531
0.00105531
0.00105531
0.00105531
0.00105531
0.00105531
0.00105531
0.00105531
0.00105531
0.00105531
0.00105531
0.00105532
0.00105531
0.00105531
0.0010553
0.00105529
0.00105528
0.00105528
0.00105527
0.00105527
0.00105527
0.00105527
0.00105527
0.00105527
0.00105527
0.00105527
0.00105527
0.00105528
0.00107586
0.00107587
0.00107587
0.00107588
0.00107588
0.00107588
0.00107588
0.00107588
0.00107588
0.00107588
0.00107588
0.00107588
0.00107588
0.00107588
0.00107588
0.00107588
0.00107589
0.00107589
0.00107589
0.00107589
0.00107589
0.00107589
0.00107589
0.00107589
0.00107589
0.00107588
0.00107587
0.00107587
0.00107586
0.00107585
0.00107585
0.00107585
0.00107585
0.00107585
0.00107585
0.00107585
0.00107585
0.00107585
0.00107585
0.00107585
0.001093
0.001093
0.00109301
0.00109301
0.00109301
0.00109301
0.00109301
0.00109301
0.00109301
0.00109301
0.00109301
0.00109301
0.00109302
0.00109302
0.00109302
0.00109302
0.00109302
0.00109302
0.00109302
0.00109302
0.00109302
0.00109302
0.00109302
0.00109302
0.00109302
0.00109302
0.00109301
0.001093
0.00109299
0.00109299
0.00109298
0.00109298
0.00109298
0.00109298
0.00109298
0.00109298
0.00109298
0.00109298
0.00109298
0.00109298
0.0011064
0.00110641
0.00110641
0.00110641
0.00110641
0.00110641
0.00110641
0.00110642
0.00110642
0.00110642
0.00110642
0.00110642
0.00110642
0.00110642
0.00110642
0.00110642
0.00110642
0.00110643
0.00110643
0.00110643
0.00110643
0.00110643
0.00110643
0.00110643
0.00110643
0.00110642
0.00110641
0.00110641
0.0011064
0.00110639
0.00110639
0.00110639
0.00110639
0.00110639
0.00110639
0.00110639
0.00110639
0.00110639
0.00110639
0.00110639
0.00111575
0.00111576
0.00111576
0.00111576
0.00111576
0.00111576
0.00111576
0.00111577
0.00111577
0.00111577
0.00111577
0.00111577
0.00111577
0.00111577
0.00111577
0.00111578
0.00111578
0.00111578
0.00111578
0.00111578
0.00111578
0.00111578
0.00111578
0.00111578
0.00111578
0.00111577
0.00111577
0.00111576
0.00111575
0.00111574
0.00111574
0.00111574
0.00111574
0.00111574
0.00111574
0.00111574
0.00111574
0.00111574
0.00111574
0.00111574
0.00112066
0.00112067
0.00112067
0.00112067
0.00112067
0.00112067
0.00112067
0.00112067
0.00112068
0.00112068
0.00112068
0.00112068
0.00112068
0.00112068
0.00112068
0.00112068
0.00112068
0.00112068
0.00112069
0.00112069
0.00112069
0.00112069
0.00112069
0.00112069
0.00112069
0.00112068
0.00112067
0.00112067
0.00112066
0.00112065
0.00112065
0.00112065
0.00112065
0.00112065
0.00112065
0.00112065
0.00112065
0.00112065
0.00112065
0.00112065
0.00112066
0.00112067
0.00112067
0.00112067
0.00112067
0.00112067
0.00112067
0.00112067
0.00112068
0.00112068
0.00112068
0.00112068
0.00112068
0.00112068
0.00112068
0.00112068
0.00112068
0.00112069
0.00112069
0.00112069
0.00112069
0.00112069
0.00112069
0.00112069
0.00112069
0.00112068
0.00112067
0.00112067
0.00112066
0.00112065
0.00112065
0.00112065
0.00112065
0.00112065
0.00112065
0.00112065
0.00112065
0.00112065
0.00112065
0.00112065
0.00111576
0.00111576
0.00111576
0.00111576
0.00111576
0.00111577
0.00111577
0.00111577
0.00111577
0.00111577
0.00111577
0.00111577
0.00111577
0.00111578
0.00111578
0.00111578
0.00111578
0.00111578
0.00111578
0.00111578
0.00111578
0.00111578
0.00111578
0.00111578
0.00111578
0.00111577
0.00111577
0.00111576
0.00111575
0.00111575
0.00111574
0.00111574
0.00111574
0.00111574
0.00111574
0.00111574
0.00111574
0.00111574
0.00111574
0.00111575
0.00110641
0.00110641
0.00110641
0.00110642
0.00110642
0.00110642
0.00110642
0.00110642
0.00110642
0.00110642
0.00110642
0.00110642
0.00110642
0.00110642
0.00110643
0.00110643
0.00110643
0.00110643
0.00110643
0.00110643
0.00110643
0.00110643
0.00110643
0.00110643
0.00110643
0.00110642
0.00110641
0.00110641
0.0011064
0.00110639
0.00110639
0.00110639
0.00110639
0.00110639
0.00110639
0.00110639
0.00110639
0.00110639
0.00110639
0.0011064
0.001093
0.00109301
0.00109301
0.00109301
0.00109301
0.00109301
0.00109301
0.00109301
0.00109301
0.00109301
0.00109302
0.00109302
0.00109302
0.00109302
0.00109302
0.00109302
0.00109302
0.00109302
0.00109302
0.00109302
0.00109302
0.00109302
0.00109302
0.00109302
0.00109302
0.00109302
0.00109301
0.001093
0.00109299
0.00109299
0.00109299
0.00109299
0.00109299
0.00109299
0.00109299
0.00109299
0.00109299
0.00109299
0.00109299
0.00109299
0.00107587
0.00107587
0.00107588
0.00107588
0.00107588
0.00107588
0.00107588
0.00107588
0.00107588
0.00107588
0.00107588
0.00107588
0.00107588
0.00107588
0.00107588
0.00107589
0.00107589
0.00107589
0.00107589
0.00107589
0.00107589
0.00107589
0.00107589
0.00107589
0.00107589
0.00107588
0.00107587
0.00107586
0.00107586
0.00107585
0.00107585
0.00107585
0.00107585
0.00107585
0.00107585
0.00107585
0.00107585
0.00107585
0.00107585
0.00107586
0.00105529
0.0010553
0.0010553
0.0010553
0.0010553
0.0010553
0.0010553
0.0010553
0.0010553
0.00105531
0.00105531
0.00105531
0.00105531
0.00105531
0.00105531
0.00105531
0.00105531
0.00105531
0.00105531
0.00105531
0.00105531
0.00105531
0.00105531
0.00105531
0.00105531
0.0010553
0.00105529
0.00105529
0.00105528
0.00105527
0.00105527
0.00105527
0.00105527
0.00105527
0.00105527
0.00105528
0.00105528
0.00105528
0.00105528
0.00105528
0.00103153
0.00103153
0.00103154
0.00103154
0.00103154
0.00103154
0.00103154
0.00103154
0.00103154
0.00103154
0.00103154
0.00103154
0.00103154
0.00103154
0.00103154
0.00103154
0.00103154
0.00103154
0.00103154
0.00103154
0.00103155
0.00103155
0.00103155
0.00103155
0.00103155
0.00103154
0.00103153
0.00103152
0.00103151
0.00103151
0.00103151
0.00103151
0.00103151
0.00103151
0.00103151
0.00103151
0.00103151
0.00103151
0.00103151
0.00103151
0.0010048
0.00100481
0.00100481
0.00100481
0.00100481
0.00100481
0.00100481
0.00100481
0.00100481
0.00100481
0.00100481
0.00100481
0.00100481
0.00100481
0.00100482
0.00100482
0.00100482
0.00100482
0.00100482
0.00100482
0.00100482
0.00100482
0.00100482
0.00100482
0.00100482
0.00100481
0.0010048
0.00100479
0.00100478
0.00100478
0.00100478
0.00100478
0.00100478
0.00100478
0.00100478
0.00100478
0.00100478
0.00100478
0.00100478
0.00100479
0.000975319
0.000975326
0.000975329
0.00097533
0.000975331
0.000975331
0.000975331
0.000975331
0.000975331
0.000975331
0.000975331
0.000975332
0.000975332
0.000975333
0.000975333
0.000975334
0.000975334
0.000975335
0.000975335
0.000975336
0.000975336
0.000975337
0.000975339
0.000975339
0.000975336
0.000975327
0.000975316
0.000975307
0.000975302
0.000975299
0.0009753
0.0009753
0.0009753
0.000975301
0.000975301
0.000975301
0.000975301
0.000975301
0.000975302
0.000975305
0.000943263
0.000943269
0.000943272
0.000943273
0.000943274
0.000943274
0.000943274
0.000943274
0.000943274
0.000943274
0.000943275
0.000943275
0.000943276
0.000943276
0.000943277
0.000943277
0.000943278
0.000943278
0.000943279
0.000943279
0.00094328
0.000943281
0.000943282
0.000943283
0.00094328
0.00094327
0.00094326
0.000943251
0.000943245
0.000943244
0.000943244
0.000943244
0.000943245
0.000943245
0.000943245
0.000943245
0.000943245
0.000943245
0.000943246
0.000943249
0.00090878
0.000908786
0.00090879
0.000908791
0.000908791
0.000908791
0.000908792
0.000908792
0.000908792
0.000908793
0.000908793
0.000908794
0.000908794
0.000908795
0.000908795
0.000908796
0.000908796
0.000908797
0.000908797
0.000908798
0.000908799
0.0009088
0.000908801
0.000908802
0.000908798
0.000908788
0.000908778
0.00090877
0.000908764
0.000908763
0.000908763
0.000908764
0.000908764
0.000908764
0.000908764
0.000908764
0.000908764
0.000908765
0.000908765
0.000908767
0.000871977
0.000871983
0.000871986
0.000871988
0.000871988
0.000871989
0.000871989
0.00087199
0.00087199
0.000871991
0.000871992
0.000871992
0.000871993
0.000871993
0.000871994
0.000871994
0.000871995
0.000871996
0.000871996
0.000871997
0.000871998
0.000871999
0.000872
0.000872
0.000871996
0.000871987
0.000871977
0.000871969
0.000871964
0.000871962
0.000871962
0.000871963
0.000871963
0.000871963
0.000871964
0.000871963
0.000871963
0.000871964
0.000871964
0.000871966
0.000832891
0.000832896
0.000832899
0.000832901
0.000832902
0.000832903
0.000832903
0.000832904
0.000832905
0.000832906
0.000832906
0.000832907
0.000832908
0.000832908
0.000832909
0.00083291
0.00083291
0.000832911
0.000832912
0.000832912
0.000832913
0.000832914
0.000832915
0.000832915
0.000832911
0.000832902
0.000832892
0.000832885
0.00083288
0.000832879
0.000832878
0.000832879
0.000832879
0.000832879
0.00083288
0.000832879
0.000832879
0.000832879
0.00083288
0.000832881
0.000791453
0.000791456
0.000791459
0.000791462
0.000791463
0.000791465
0.000791466
0.000791467
0.000791468
0.000791469
0.00079147
0.00079147
0.000791471
0.000791472
0.000791473
0.000791474
0.000791474
0.000791475
0.000791476
0.000791477
0.000791478
0.000791479
0.000791479
0.000791479
0.000791474
0.000791465
0.000791457
0.000791449
0.000791445
0.000791443
0.000791443
0.000791444
0.000791444
0.000791444
0.000791444
0.000791444
0.000791444
0.000791444
0.000791444
0.000791446
0.000747426
0.000747428
0.000747432
0.000747434
0.000747437
0.000747438
0.00074744
0.000747441
0.000747442
0.000747443
0.000747444
0.000747445
0.000747446
0.000747447
0.000747448
0.000747449
0.00074745
0.000747451
0.000747452
0.000747453
0.000747453
0.000747454
0.000747455
0.000747454
0.000747449
0.000747441
0.000747433
0.000747426
0.000747422
0.00074742
0.00074742
0.00074742
0.000747421
0.000747421
0.000747421
0.000747421
0.000747421
0.000747421
0.000747421
0.000747422
0.000700283
0.000700286
0.000700289
0.000700292
0.000700295
0.000700297
0.000700298
0.0007003
0.000700301
0.000700303
0.000700304
0.000700305
0.000700306
0.000700307
0.000700308
0.000700309
0.00070031
0.000700311
0.000700312
0.000700313
0.000700314
0.000700314
0.000700315
0.000700313
0.000700308
0.0007003
0.000700293
0.000700287
0.000700284
0.000700282
0.000700282
0.000700282
0.000700282
0.000700282
0.000700282
0.000700282
0.000700282
0.000700282
0.000700282
0.000700284
0.000648955
0.000648957
0.000648958
0.000648961
0.000648963
0.000648965
0.000648967
0.000648969
0.00064897
0.000648972
0.000648973
0.000648974
0.000648975
0.000648977
0.000648978
0.000648979
0.00064898
0.000648981
0.000648982
0.000648983
0.000648984
0.000648984
0.000648984
0.000648982
0.000648977
0.00064897
0.000648964
0.000648959
0.000648955
0.000648954
0.000648953
0.000648953
0.000648953
0.000648953
0.000648953
0.000648954
0.000648954
0.000648954
0.000648954
0.000648957
0.000591146
0.000591146
0.000591147
0.000591148
0.00059115
0.000591152
0.000591154
0.000591156
0.000591157
0.000591159
0.00059116
0.000591162
0.000591163
0.000591164
0.000591165
0.000591167
0.000591168
0.000591169
0.00059117
0.000591171
0.000591172
0.000591172
0.000591171
0.000591169
0.000591164
0.000591158
0.000591152
0.000591148
0.000591145
0.000591144
0.000591143
0.000591143
0.000591143
0.000591143
0.000591143
0.000591143
0.000591143
0.000591143
0.000591144
0.000591147
0.000520975
0.000520975
0.000520975
0.000520975
0.000520976
0.000520978
0.00052098
0.000520982
0.000520983
0.000520985
0.000520986
0.000520988
0.000520989
0.00052099
0.000520992
0.000520993
0.000520994
0.000520996
0.000520997
0.000520998
0.000520998
0.000520998
0.000520998
0.000520995
0.00052099
0.000520985
0.00052098
0.000520976
0.000520974
0.000520973
0.000520972
0.000520972
0.000520972
0.000520972
0.000520972
0.000520972
0.000520972
0.000520972
0.000520972
0.000520976
0.000413609
0.000413609
0.000413608
0.000413607
0.000413608
0.000413609
0.00041361
0.000413612
0.000413613
0.000413615
0.000413616
0.000413618
0.00041362
0.000413621
0.000413623
0.000413624
0.000413626
0.000413628
0.000413629
0.00041363
0.00041363
0.00041363
0.000413629
0.000413627
0.000413622
0.000413617
0.000413612
0.000413609
0.000413607
0.000413606
0.000413606
0.000413606
0.000413606
0.000413606
0.000413606
0.000413606
0.000413606
0.000413605
0.000413605
0.000413609
)
;

boundaryField
{
    bottomWall
    {
        type            kqRWallFunction;
        value           nonuniform List<scalar> 
40
(
0.000413632
0.000413631
0.000413631
0.000413631
0.000413632
0.000413633
0.000413634
0.000413636
0.000413638
0.000413641
0.000413643
0.000413646
0.000413649
0.000413651
0.000413653
0.000413655
0.000413656
0.000413658
0.000413659
0.000413659
0.00041366
0.00041366
0.000413659
0.000413656
0.00041365
0.000413643
0.000413637
0.000413631
0.000413628
0.000413626
0.000413626
0.000413626
0.000413626
0.000413626
0.000413626
0.000413626
0.000413626
0.000413626
0.000413626
0.00041363
)
;
    }
    topWall
    {
        type            kqRWallFunction;
        value           nonuniform List<scalar> 
40
(
0.000413609
0.000413609
0.000413608
0.000413607
0.000413608
0.000413609
0.00041361
0.000413612
0.000413613
0.000413615
0.000413616
0.000413618
0.00041362
0.000413621
0.000413623
0.000413624
0.000413626
0.000413628
0.000413629
0.00041363
0.00041363
0.00041363
0.000413629
0.000413627
0.000413622
0.000413617
0.000413612
0.000413609
0.000413607
0.000413606
0.000413606
0.000413606
0.000413606
0.000413606
0.000413606
0.000413606
0.000413606
0.000413605
0.000413605
0.000413609
)
;
    }
    sides1_half0
    {
        type            empty;
    }
    sides1_half1
    {
        type            empty;
    }
    sides2_half0
    {
        type            empty;
    }
    sides2_half1
    {
        type            empty;
    }
    inout1_half0
    {
        type            cyclic;
    }
    inout1_half1
    {
        type            cyclic;
    }
    inout2_half0
    {
        type            cyclic;
    }
    inout2_half1
    {
        type            cyclic;
    }
}


// ************************************************************************* //
