/*--------------------------------*- C++ -*----------------------------------*\
  =========                 |
  \\      /  F ield         | OpenFOAM: The Open Source CFD Toolbox
   \\    /   O peration     | Website:  https://openfoam.org
    \\  /    A nd           | Version:  dev
     \\/     M anipulation  |

   OpenFOAM for Windows 20.09 (v1)
   Built by CFD Support, www.cfdsupport.com (based on Symscape).
\*---------------------------------------------------------------------------*/
FoamFile
{
    version     2.0;
    format      ascii;
    class       volScalarField;
    location    "40";
    object      nut;
}
// * * * * * * * * * * * * * * * * * * * * * * * * * * * * * * * * * * * * * //

dimensions      [0 2 -1 0 0 0 0];

internalField   nonuniform List<scalar> 
1600
(
0.000275774
0.000275773
0.000275773
0.000275773
0.000275774
0.000275774
0.000275775
0.000275776
0.000275778
0.000275779
0.000275781
0.000275783
0.000275784
0.000275786
0.000275787
0.000275789
0.00027579
0.000275791
0.000275791
0.000275792
0.000275792
0.000275792
0.000275792
0.000275791
0.000275787
0.000275783
0.000275778
0.000275774
0.000275772
0.00027577
0.00027577
0.00027577
0.00027577
0.00027577
0.00027577
0.00027577
0.00027577
0.00027577
0.00027577
0.000275772
0.000648252
0.000648254
0.000648256
0.000648259
0.000648262
0.000648264
0.000648267
0.000648269
0.000648272
0.000648274
0.000648277
0.000648279
0.000648281
0.000648283
0.000648285
0.000648286
0.000648287
0.000648287
0.000648288
0.000648288
0.000648289
0.000648289
0.000648289
0.000648288
0.000648284
0.000648276
0.000648267
0.000648259
0.000648254
0.000648252
0.000648251
0.000648251
0.000648252
0.000648252
0.000648252
0.000648252
0.000648252
0.000648252
0.000648253
0.000648255
0.00101587
0.00101587
0.00101588
0.00101588
0.00101589
0.00101589
0.0010159
0.0010159
0.0010159
0.00101591
0.00101591
0.00101591
0.00101592
0.00101592
0.00101592
0.00101592
0.00101592
0.00101592
0.00101592
0.00101592
0.00101592
0.00101593
0.00101593
0.00101592
0.00101592
0.00101591
0.00101589
0.00101588
0.00101587
0.00101587
0.00101587
0.00101587
0.00101587
0.00101587
0.00101587
0.00101587
0.00101587
0.00101587
0.00101587
0.00101587
0.00135805
0.00135806
0.00135807
0.00135808
0.00135809
0.00135809
0.0013581
0.0013581
0.00135811
0.00135811
0.00135812
0.00135812
0.00135812
0.00135813
0.00135813
0.00135813
0.00135813
0.00135813
0.00135813
0.00135813
0.00135813
0.00135813
0.00135813
0.00135813
0.00135813
0.00135811
0.00135809
0.00135807
0.00135806
0.00135805
0.00135805
0.00135806
0.00135806
0.00135806
0.00135806
0.00135806
0.00135806
0.00135806
0.00135806
0.00135806
0.00166875
0.00166877
0.00166878
0.00166879
0.0016688
0.0016688
0.00166881
0.00166881
0.00166882
0.00166882
0.00166883
0.00166883
0.00166884
0.00166884
0.00166884
0.00166884
0.00166884
0.00166884
0.00166884
0.00166884
0.00166884
0.00166885
0.00166885
0.00166885
0.00166884
0.00166882
0.00166879
0.00166877
0.00166875
0.00166875
0.00166875
0.00166875
0.00166875
0.00166875
0.00166875
0.00166875
0.00166876
0.00166876
0.00166875
0.00166874
0.00194814
0.00194817
0.00194819
0.00194819
0.0019482
0.0019482
0.00194821
0.00194821
0.00194821
0.00194822
0.00194822
0.00194823
0.00194823
0.00194823
0.00194824
0.00194824
0.00194824
0.00194824
0.00194824
0.00194824
0.00194824
0.00194824
0.00194825
0.00194825
0.00194824
0.00194821
0.00194818
0.00194815
0.00194813
0.00194813
0.00194813
0.00194813
0.00194813
0.00194814
0.00194814
0.00194814
0.00194814
0.00194814
0.00194814
0.00194812
0.00219872
0.00219875
0.00219878
0.00219878
0.00219879
0.00219879
0.00219879
0.00219879
0.0021988
0.0021988
0.00219881
0.00219881
0.00219881
0.00219882
0.00219882
0.00219882
0.00219882
0.00219882
0.00219882
0.00219882
0.00219882
0.00219882
0.00219883
0.00219883
0.00219882
0.0021988
0.00219876
0.00219872
0.0021987
0.00219869
0.0021987
0.0021987
0.0021987
0.00219871
0.00219871
0.00219871
0.00219871
0.00219871
0.00219871
0.00219869
0.0024236
0.00242364
0.00242367
0.00242367
0.00242367
0.00242367
0.00242368
0.00242368
0.00242368
0.00242369
0.00242369
0.00242369
0.00242369
0.0024237
0.0024237
0.0024237
0.0024237
0.0024237
0.0024237
0.0024237
0.0024237
0.0024237
0.00242371
0.00242371
0.00242371
0.00242368
0.00242363
0.00242359
0.00242357
0.00242356
0.00242357
0.00242357
0.00242357
0.00242357
0.00242358
0.00242358
0.00242358
0.00242358
0.00242358
0.00242356
0.00262575
0.0026258
0.00262583
0.00262583
0.00262583
0.00262584
0.00262584
0.00262584
0.00262584
0.00262584
0.00262585
0.00262585
0.00262585
0.00262585
0.00262585
0.00262585
0.00262585
0.00262585
0.00262585
0.00262585
0.00262586
0.00262586
0.00262586
0.00262587
0.00262586
0.00262583
0.00262578
0.00262574
0.00262571
0.00262571
0.00262571
0.00262571
0.00262572
0.00262572
0.00262572
0.00262572
0.00262572
0.00262572
0.00262572
0.0026257
0.00280772
0.00280777
0.0028078
0.00280781
0.00280781
0.00280781
0.00280781
0.00280781
0.00280781
0.00280781
0.00280782
0.00280782
0.00280782
0.00280782
0.00280782
0.00280782
0.00280782
0.00280782
0.00280782
0.00280782
0.00280782
0.00280782
0.00280783
0.00280783
0.00280783
0.0028078
0.00280775
0.0028077
0.00280767
0.00280766
0.00280766
0.00280767
0.00280768
0.00280768
0.00280768
0.00280768
0.00280768
0.00280768
0.00280768
0.00280766
0.0029715
0.00297155
0.00297158
0.00297158
0.00297158
0.00297158
0.00297158
0.00297158
0.00297159
0.00297159
0.00297159
0.00297159
0.00297159
0.00297159
0.00297159
0.00297159
0.00297159
0.00297159
0.00297159
0.00297159
0.00297159
0.0029716
0.0029716
0.00297161
0.0029716
0.00297157
0.00297152
0.00297147
0.00297144
0.00297143
0.00297143
0.00297144
0.00297144
0.00297145
0.00297145
0.00297145
0.00297145
0.00297145
0.00297145
0.00297143
0.00311856
0.00311861
0.00311863
0.00311864
0.00311863
0.00311864
0.00311864
0.00311864
0.00311864
0.00311864
0.00311864
0.00311864
0.00311864
0.00311864
0.00311865
0.00311865
0.00311865
0.00311865
0.00311865
0.00311865
0.00311865
0.00311865
0.00311866
0.00311866
0.00311866
0.00311863
0.00311857
0.00311852
0.00311849
0.00311848
0.00311848
0.00311849
0.00311849
0.0031185
0.0031185
0.0031185
0.0031185
0.0031185
0.0031185
0.00311849
0.00324991
0.00324995
0.00324997
0.00324996
0.00324996
0.00324996
0.00324996
0.00324996
0.00324996
0.00324997
0.00324997
0.00324997
0.00324997
0.00324998
0.00324998
0.00324998
0.00324998
0.00324998
0.00324998
0.00324998
0.00324998
0.00324999
0.00324999
0.00325
0.00324999
0.00324996
0.00324991
0.00324986
0.00324982
0.00324981
0.00324981
0.00324982
0.00324982
0.00324982
0.00324982
0.00324982
0.00324983
0.00324983
0.00324983
0.00324983
0.00336613
0.00336615
0.00336615
0.00336615
0.00336615
0.00336615
0.00336615
0.00336615
0.00336616
0.00336616
0.00336616
0.00336617
0.00336617
0.00336618
0.00336618
0.00336618
0.00336618
0.00336618
0.00336618
0.00336619
0.00336619
0.00336619
0.0033662
0.0033662
0.0033662
0.00336616
0.00336611
0.00336606
0.00336602
0.00336601
0.00336601
0.00336602
0.00336602
0.00336602
0.00336602
0.00336602
0.00336602
0.00336603
0.00336603
0.00336605
0.00346742
0.00346743
0.00346744
0.00346744
0.00346744
0.00346744
0.00346744
0.00346745
0.00346745
0.00346746
0.00346746
0.00346747
0.00346748
0.00346748
0.00346748
0.00346749
0.00346749
0.00346749
0.00346749
0.00346749
0.00346749
0.00346749
0.0034675
0.0034675
0.0034675
0.00346747
0.00346741
0.00346737
0.00346733
0.00346731
0.00346731
0.00346731
0.00346732
0.00346732
0.00346732
0.00346732
0.00346733
0.00346732
0.00346733
0.00346734
0.00355374
0.00355375
0.00355376
0.00355376
0.00355376
0.00355376
0.00355377
0.00355378
0.00355379
0.00355379
0.0035538
0.00355381
0.00355381
0.00355382
0.00355382
0.00355383
0.00355383
0.00355383
0.00355383
0.00355383
0.00355383
0.00355383
0.00355384
0.00355384
0.00355383
0.0035538
0.00355375
0.0035537
0.00355367
0.00355365
0.00355364
0.00355365
0.00355365
0.00355366
0.00355366
0.00355366
0.00355366
0.00355366
0.00355366
0.00355367
0.00362474
0.00362475
0.00362476
0.00362476
0.00362477
0.00362477
0.00362478
0.00362479
0.0036248
0.00362481
0.00362482
0.00362482
0.00362483
0.00362483
0.00362484
0.00362484
0.00362484
0.00362484
0.00362484
0.00362484
0.00362484
0.00362485
0.00362485
0.00362485
0.00362484
0.00362481
0.00362476
0.00362472
0.00362469
0.00362466
0.00362466
0.00362466
0.00362467
0.00362467
0.00362467
0.00362467
0.00362467
0.00362467
0.00362467
0.00362468
0.00367978
0.0036798
0.0036798
0.00367981
0.00367981
0.00367982
0.00367983
0.00367984
0.00367985
0.00367986
0.00367987
0.00367988
0.00367989
0.00367989
0.0036799
0.0036799
0.0036799
0.0036799
0.0036799
0.0036799
0.0036799
0.0036799
0.0036799
0.0036799
0.0036799
0.00367987
0.00367982
0.00367978
0.00367975
0.00367972
0.00367971
0.00367972
0.00367972
0.00367972
0.00367972
0.00367972
0.00367972
0.00367972
0.00367973
0.00367974
0.00371793
0.00371794
0.00371795
0.00371796
0.00371796
0.00371797
0.00371798
0.003718
0.00371801
0.00371802
0.00371803
0.00371804
0.00371804
0.00371805
0.00371805
0.00371805
0.00371805
0.00371805
0.00371805
0.00371805
0.00371805
0.00371805
0.00371806
0.00371806
0.00371805
0.00371802
0.00371798
0.00371794
0.0037179
0.00371788
0.00371787
0.00371787
0.00371787
0.00371788
0.00371788
0.00371788
0.00371788
0.00371788
0.00371788
0.00371789
0.00373788
0.00373789
0.0037379
0.0037379
0.00373791
0.00373792
0.00373793
0.00373795
0.00373796
0.00373797
0.00373798
0.00373799
0.00373799
0.003738
0.003738
0.003738
0.00373801
0.00373801
0.003738
0.003738
0.003738
0.003738
0.00373801
0.00373801
0.003738
0.00373797
0.00373792
0.00373789
0.00373785
0.00373783
0.00373782
0.00373782
0.00373783
0.00373783
0.00373783
0.00373783
0.00373783
0.00373783
0.00373783
0.00373784
0.00373788
0.00373789
0.0037379
0.00373791
0.00373791
0.00373792
0.00373794
0.00373795
0.00373796
0.00373797
0.00373798
0.00373799
0.003738
0.003738
0.00373801
0.00373801
0.00373801
0.00373801
0.00373801
0.00373801
0.00373801
0.00373801
0.00373801
0.00373801
0.003738
0.00373797
0.00373793
0.00373789
0.00373785
0.00373783
0.00373782
0.00373783
0.00373783
0.00373783
0.00373783
0.00373783
0.00373783
0.00373783
0.00373784
0.00373784
0.00371793
0.00371795
0.00371796
0.00371797
0.00371797
0.00371798
0.003718
0.00371801
0.00371802
0.00371803
0.00371804
0.00371804
0.00371805
0.00371806
0.00371806
0.00371806
0.00371806
0.00371806
0.00371806
0.00371806
0.00371806
0.00371806
0.00371806
0.00371806
0.00371805
0.00371802
0.00371798
0.00371794
0.00371791
0.00371789
0.00371788
0.00371788
0.00371789
0.00371789
0.00371789
0.00371789
0.00371789
0.00371789
0.00371789
0.0037179
0.00367979
0.0036798
0.00367981
0.00367982
0.00367983
0.00367984
0.00367985
0.00367986
0.00367987
0.00367988
0.00367989
0.00367989
0.0036799
0.0036799
0.00367991
0.00367991
0.00367991
0.00367991
0.00367991
0.00367991
0.00367991
0.00367991
0.00367991
0.00367991
0.0036799
0.00367987
0.00367982
0.00367978
0.00367975
0.00367973
0.00367973
0.00367973
0.00367973
0.00367973
0.00367974
0.00367973
0.00367974
0.00367974
0.00367974
0.00367975
0.00362474
0.00362476
0.00362477
0.00362478
0.00362478
0.00362479
0.0036248
0.00362481
0.00362482
0.00362483
0.00362483
0.00362484
0.00362484
0.00362485
0.00362485
0.00362485
0.00362485
0.00362485
0.00362485
0.00362485
0.00362486
0.00362486
0.00362486
0.00362486
0.00362485
0.00362481
0.00362476
0.00362472
0.00362469
0.00362467
0.00362467
0.00362468
0.00362468
0.00362468
0.00362468
0.00362468
0.00362468
0.00362468
0.00362469
0.0036247
0.00355373
0.00355375
0.00355377
0.00355378
0.00355378
0.00355379
0.0035538
0.0035538
0.00355381
0.00355381
0.00355382
0.00355382
0.00355383
0.00355383
0.00355383
0.00355384
0.00355384
0.00355384
0.00355384
0.00355384
0.00355384
0.00355384
0.00355384
0.00355385
0.00355383
0.00355379
0.00355374
0.0035537
0.00355367
0.00355365
0.00355366
0.00355366
0.00355366
0.00355366
0.00355366
0.00355366
0.00355366
0.00355367
0.00355367
0.00355368
0.0034674
0.00346743
0.00346744
0.00346745
0.00346745
0.00346746
0.00346747
0.00346747
0.00346747
0.00346747
0.00346748
0.00346748
0.00346749
0.00346749
0.00346749
0.00346749
0.00346749
0.0034675
0.0034675
0.0034675
0.0034675
0.0034675
0.00346751
0.00346751
0.00346749
0.00346745
0.00346739
0.00346735
0.00346732
0.00346731
0.00346732
0.00346732
0.00346732
0.00346732
0.00346732
0.00346732
0.00346732
0.00346733
0.00346733
0.00346734
0.00336607
0.00336611
0.00336614
0.00336615
0.00336615
0.00336616
0.00336616
0.00336616
0.00336616
0.00336617
0.00336617
0.00336617
0.00336617
0.00336618
0.00336618
0.00336618
0.00336618
0.00336618
0.00336618
0.00336618
0.00336619
0.00336619
0.00336619
0.0033662
0.00336618
0.00336613
0.00336607
0.00336603
0.00336601
0.003366
0.00336601
0.00336601
0.00336601
0.00336601
0.00336601
0.00336601
0.00336601
0.00336601
0.00336601
0.00336601
0.00324985
0.0032499
0.00324993
0.00324994
0.00324995
0.00324995
0.00324995
0.00324996
0.00324996
0.00324996
0.00324996
0.00324996
0.00324996
0.00324997
0.00324997
0.00324997
0.00324997
0.00324997
0.00324997
0.00324997
0.00324997
0.00324998
0.00324998
0.00324999
0.00324997
0.00324991
0.00324986
0.00324982
0.0032498
0.00324979
0.0032498
0.0032498
0.0032498
0.0032498
0.0032498
0.0032498
0.0032498
0.0032498
0.00324981
0.00324979
0.00311851
0.00311857
0.0031186
0.0031186
0.00311861
0.00311861
0.00311861
0.00311861
0.00311861
0.00311861
0.00311861
0.00311861
0.00311862
0.00311862
0.00311862
0.00311862
0.00311863
0.00311863
0.00311863
0.00311863
0.00311863
0.00311863
0.00311864
0.00311864
0.00311862
0.00311856
0.00311851
0.00311847
0.00311845
0.00311845
0.00311846
0.00311846
0.00311846
0.00311846
0.00311846
0.00311846
0.00311846
0.00311846
0.00311847
0.00311845
0.00297147
0.00297151
0.00297153
0.00297154
0.00297154
0.00297154
0.00297154
0.00297154
0.00297154
0.00297154
0.00297155
0.00297155
0.00297155
0.00297155
0.00297156
0.00297156
0.00297156
0.00297156
0.00297156
0.00297156
0.00297156
0.00297156
0.00297157
0.00297157
0.00297155
0.00297149
0.00297144
0.00297141
0.00297139
0.00297139
0.0029714
0.0029714
0.0029714
0.0029714
0.0029714
0.0029714
0.0029714
0.0029714
0.00297141
0.0029714
0.0028077
0.00280773
0.00280774
0.00280775
0.00280775
0.00280775
0.00280775
0.00280776
0.00280776
0.00280776
0.00280776
0.00280777
0.00280777
0.00280777
0.00280777
0.00280777
0.00280777
0.00280777
0.00280777
0.00280777
0.00280778
0.00280778
0.00280779
0.00280778
0.00280776
0.00280771
0.00280766
0.00280763
0.00280761
0.00280762
0.00280762
0.00280762
0.00280762
0.00280763
0.00280763
0.00280763
0.00280763
0.00280763
0.00280763
0.00280763
0.00262572
0.00262575
0.00262576
0.00262577
0.00262577
0.00262578
0.00262578
0.00262578
0.00262578
0.00262579
0.00262579
0.00262579
0.0026258
0.0026258
0.0026258
0.0026258
0.0026258
0.0026258
0.0026258
0.0026258
0.0026258
0.0026258
0.00262581
0.00262581
0.00262579
0.00262574
0.0026257
0.00262566
0.00262565
0.00262565
0.00262566
0.00262566
0.00262566
0.00262566
0.00262566
0.00262566
0.00262566
0.00262566
0.00262566
0.00262565
0.00242355
0.00242358
0.00242359
0.0024236
0.00242361
0.00242361
0.00242362
0.00242362
0.00242363
0.00242363
0.00242363
0.00242363
0.00242364
0.00242364
0.00242364
0.00242364
0.00242364
0.00242364
0.00242364
0.00242364
0.00242364
0.00242364
0.00242365
0.00242364
0.00242362
0.00242358
0.00242354
0.00242351
0.0024235
0.0024235
0.0024235
0.00242351
0.00242351
0.00242351
0.00242351
0.00242351
0.00242351
0.00242351
0.00242351
0.0024235
0.00219867
0.00219869
0.0021987
0.00219871
0.00219872
0.00219873
0.00219873
0.00219874
0.00219874
0.00219875
0.00219875
0.00219875
0.00219875
0.00219875
0.00219876
0.00219876
0.00219876
0.00219875
0.00219875
0.00219875
0.00219875
0.00219876
0.00219876
0.00219876
0.00219874
0.0021987
0.00219867
0.00219864
0.00219863
0.00219863
0.00219863
0.00219864
0.00219864
0.00219864
0.00219864
0.00219864
0.00219864
0.00219864
0.00219864
0.00219863
0.00194809
0.0019481
0.00194811
0.00194813
0.00194814
0.00194815
0.00194815
0.00194816
0.00194816
0.00194817
0.00194817
0.00194817
0.00194817
0.00194817
0.00194817
0.00194817
0.00194817
0.00194817
0.00194817
0.00194817
0.00194817
0.00194818
0.00194818
0.00194817
0.00194816
0.00194813
0.0019481
0.00194808
0.00194807
0.00194807
0.00194807
0.00194807
0.00194807
0.00194807
0.00194807
0.00194807
0.00194807
0.00194807
0.00194807
0.00194807
0.00166869
0.00166871
0.00166872
0.00166874
0.00166875
0.00166876
0.00166876
0.00166877
0.00166877
0.00166878
0.00166878
0.00166878
0.00166878
0.00166878
0.00166878
0.00166878
0.00166878
0.00166878
0.00166878
0.00166878
0.00166878
0.00166878
0.00166878
0.00166878
0.00166876
0.00166874
0.00166872
0.0016687
0.0016687
0.00166869
0.00166869
0.00166869
0.00166869
0.00166869
0.0016687
0.0016687
0.0016687
0.0016687
0.0016687
0.00166869
0.00135801
0.00135802
0.00135803
0.00135804
0.00135805
0.00135805
0.00135806
0.00135807
0.00135807
0.00135807
0.00135807
0.00135808
0.00135808
0.00135808
0.00135808
0.00135808
0.00135808
0.00135808
0.00135808
0.00135808
0.00135808
0.00135808
0.00135808
0.00135808
0.00135806
0.00135805
0.00135803
0.00135802
0.00135801
0.00135801
0.00135801
0.00135801
0.00135801
0.00135801
0.00135801
0.00135801
0.00135801
0.00135801
0.00135801
0.00135802
0.00101584
0.00101584
0.00101584
0.00101585
0.00101585
0.00101586
0.00101587
0.00101587
0.00101587
0.00101588
0.00101588
0.00101588
0.00101588
0.00101588
0.00101588
0.00101588
0.00101588
0.00101588
0.00101588
0.00101588
0.00101588
0.00101588
0.00101588
0.00101588
0.00101587
0.00101586
0.00101585
0.00101584
0.00101584
0.00101583
0.00101583
0.00101583
0.00101583
0.00101583
0.00101583
0.00101583
0.00101583
0.00101583
0.00101584
0.00101584
0.000648233
0.000648232
0.000648233
0.000648235
0.000648238
0.000648242
0.000648245
0.000648247
0.000648249
0.000648251
0.000648252
0.000648253
0.000648254
0.000648255
0.000648256
0.000648257
0.000648258
0.000648258
0.000648258
0.000648259
0.000648259
0.000648259
0.000648259
0.000648257
0.000648252
0.000648245
0.000648239
0.000648234
0.000648231
0.000648229
0.000648229
0.000648229
0.000648229
0.000648229
0.000648229
0.000648229
0.000648229
0.000648229
0.00064823
0.000648234
0.000275759
0.000275758
0.000275758
0.000275758
0.000275758
0.000275758
0.000275759
0.00027576
0.000275761
0.000275762
0.000275763
0.000275764
0.000275765
0.000275767
0.000275768
0.000275769
0.00027577
0.000275771
0.000275772
0.000275772
0.000275773
0.000275773
0.000275772
0.000275771
0.000275768
0.000275765
0.000275762
0.000275759
0.000275758
0.000275757
0.000275756
0.000275756
0.000275756
0.000275756
0.000275756
0.000275756
0.000275756
0.000275756
0.000275756
0.000275758
)
;

boundaryField
{
    bottomWall
    {
        type            nutkWallFunction;
        Cmu             0.09;
        kappa           0.41;
        E               9.8;
        value           uniform 0;
    }
    topWall
    {
        type            nutkWallFunction;
        Cmu             0.09;
        kappa           0.41;
        E               9.8;
        value           uniform 0;
    }
    sides1_half0
    {
        type            empty;
    }
    sides1_half1
    {
        type            empty;
    }
    sides2_half0
    {
        type            empty;
    }
    sides2_half1
    {
        type            empty;
    }
    inout1_half0
    {
        type            cyclic;
    }
    inout1_half1
    {
        type            cyclic;
    }
    inout2_half0
    {
        type            cyclic;
    }
    inout2_half1
    {
        type            cyclic;
    }
}


// ************************************************************************* //
