/*--------------------------------*- C++ -*----------------------------------*\
  =========                 |
  \\      /  F ield         | OpenFOAM: The Open Source CFD Toolbox
   \\    /   O peration     | Website:  https://openfoam.org
    \\  /    A nd           | Version:  dev
     \\/     M anipulation  |

   OpenFOAM for Windows 20.09 (v1)
   Built by CFD Support, www.cfdsupport.com (based on Symscape).
\*---------------------------------------------------------------------------*/
FoamFile
{
    version     2.0;
    format      ascii;
    class       volScalarField;
    location    "40";
    object      p;
}
// * * * * * * * * * * * * * * * * * * * * * * * * * * * * * * * * * * * * * //

dimensions      [0 2 -2 0 0 0 0];

internalField   nonuniform List<scalar> 
1600
(
-1.99438e-09
-2.39112e-09
-3.91628e-09
-3.60947e-09
-2.32396e-09
-1.74926e-09
-1.76447e-09
-1.87656e-09
-1.90705e-09
-1.82701e-09
-1.60522e-09
-1.23311e-09
-7.4999e-10
-2.11153e-10
3.33547e-10
8.3834e-10
1.2758e-09
1.63985e-09
1.90024e-09
2.09144e-09
2.36495e-09
2.76331e-09
4.00392e-09
6.56398e-09
8.99148e-09
9.66741e-09
8.60539e-09
6.36553e-09
3.75788e-09
1.6549e-09
4.0703e-10
-6.42611e-11
-2.72698e-10
-2.22146e-10
-3.68987e-10
-1.9991e-10
-5.52885e-10
-3.36314e-10
-9.20016e-10
-2.68686e-09
-8.38071e-10
-2.78946e-09
-4.14397e-09
-3.13792e-09
-1.72632e-09
-1.08693e-09
-8.53846e-10
-5.86017e-10
-2.18006e-10
1.63249e-10
5.13488e-10
8.43049e-10
1.16819e-09
1.49013e-09
1.79593e-09
2.0789e-09
2.32937e-09
2.53768e-09
2.7521e-09
2.69985e-09
2.7528e-09
2.94058e-09
3.0065e-09
2.98828e-09
3.36437e-09
3.81987e-09
3.72293e-09
3.07231e-09
2.01009e-09
1.01253e-09
2.93264e-10
1.61463e-11
-1.73101e-10
-1.4547e-10
-2.85488e-10
-1.94811e-10
-4.63735e-10
-1.80789e-10
-2.95036e-11
-5.0587e-10
-8.38091e-10
-3.13807e-09
-4.00265e-09
-2.59595e-09
-1.33061e-09
-8.66361e-10
-6.84307e-10
-4.71391e-10
-1.94486e-10
9.61145e-11
3.79702e-10
6.67071e-10
9.6649e-10
1.27457e-09
1.57737e-09
1.86509e-09
2.12574e-09
2.35066e-09
2.50007e-09
2.72871e-09
2.83496e-09
2.93556e-09
3.01137e-09
3.18215e-09
3.63992e-09
4.03393e-09
3.83126e-09
3.12689e-09
2.09762e-09
1.16305e-09
4.58827e-10
1.56535e-10
-8.47139e-11
-9.55321e-11
-2.60331e-10
-2.05545e-10
-4.54609e-10
-8.9349e-11
-3.88339e-10
-8.9413e-10
-6.63917e-10
-3.20849e-09
-3.66739e-09
-2.01561e-09
-9.71512e-10
-6.85491e-10
-5.57132e-10
-3.84079e-10
-1.58964e-10
8.41727e-11
3.29814e-10
5.85578e-10
8.57759e-10
1.14447e-09
1.43434e-09
1.71836e-09
1.98686e-09
2.23813e-09
2.46145e-09
2.7099e-09
2.84538e-09
2.95282e-09
3.0697e-09
3.22017e-09
3.53404e-09
3.79727e-09
3.58806e-09
2.96108e-09
2.05123e-09
1.20823e-09
5.55379e-10
2.52399e-10
-1.22671e-11
-5.79627e-11
-2.20637e-10
-2.15923e-10
-4.17638e-10
-9.41051e-11
-8.49914e-10
-1.00504e-09
-3.24925e-10
-3.04297e-09
-3.21722e-09
-1.45762e-09
-6.29962e-10
-4.81586e-10
-3.7507e-10
-2.01696e-10
1.39346e-11
2.40917e-10
4.64593e-10
6.91095e-10
9.28696e-10
1.1801e-09
1.43873e-09
1.69867e-09
1.95382e-09
2.20459e-09
2.44134e-09
2.67277e-09
2.81674e-09
2.89973e-09
2.93563e-09
2.92528e-09
3.02413e-09
3.15387e-09
2.98892e-09
2.52073e-09
1.82339e-09
1.14456e-09
6.04401e-10
3.24256e-10
5.37623e-11
-2.24873e-11
-1.74609e-10
-2.15642e-10
-3.4441e-10
-1.71836e-10
-1.25766e-09
-8.90667e-10
1.21147e-10
-2.77017e-09
-2.79222e-09
-9.95173e-10
-3.40424e-10
-2.89509e-10
-1.87164e-10
-1.04421e-12
2.14011e-10
4.30395e-10
6.3554e-10
8.35103e-10
1.03973e-09
1.25601e-09
1.4813e-09
1.71199e-09
1.94333e-09
2.17432e-09
2.39585e-09
2.60527e-09
2.73715e-09
2.76356e-09
2.68849e-09
2.535e-09
2.45744e-09
2.47224e-09
2.34806e-09
2.04007e-09
1.55859e-09
1.06047e-09
6.37717e-10
3.74651e-10
1.15476e-10
1.47681e-11
-1.24721e-10
-1.9805e-10
-2.5255e-10
-2.78881e-10
-1.52596e-09
-5.85104e-10
6.33319e-10
-2.52901e-09
-2.44518e-09
-6.47834e-10
-1.16334e-10
-1.30242e-10
-2.76529e-11
1.67093e-10
3.77947e-10
5.83433e-10
7.72068e-10
9.49322e-10
1.12808e-09
1.31665e-09
1.51446e-09
1.71873e-09
1.92458e-09
2.13072e-09
2.33018e-09
2.51045e-09
2.61537e-09
2.58779e-09
2.43023e-09
2.17734e-09
1.9572e-09
1.86413e-09
1.76347e-09
1.59226e-09
1.3032e-09
9.75462e-10
6.48842e-10
3.96751e-10
1.67084e-10
5.21432e-11
-6.57317e-11
-1.57651e-10
-1.54763e-10
-3.67107e-10
-1.6135e-09
-4.54923e-11
1.14549e-09
-2.24289e-09
-2.14042e-09
-3.90501e-10
5.72396e-11
2.895e-12
1.04382e-10
2.98827e-10
5.00303e-10
6.93377e-10
8.65643e-10
1.02526e-09
1.18639e-09
1.35556e-09
1.53275e-09
1.71449e-09
1.8956e-09
2.07652e-09
2.25045e-09
2.39751e-09
2.46865e-09
2.40003e-09
2.1869e-09
1.85935e-09
1.52202e-09
1.32924e-09
1.23996e-09
1.18033e-09
1.06047e-09
8.83835e-10
6.31057e-10
3.92849e-10
2.06621e-10
8.95127e-11
7.96973e-13
-9.83618e-11
-6.42969e-11
-4.10215e-10
-1.51851e-09
5.74311e-10
1.6147e-09
-1.88597e-09
-1.84897e-09
-1.8603e-10
2.07533e-10
1.26405e-10
2.19575e-10
4.02363e-10
5.88779e-10
7.64873e-10
9.18522e-10
1.06674e-09
1.218e-09
1.37478e-09
1.53676e-09
1.69794e-09
1.85537e-09
2.01225e-09
2.15882e-09
2.27265e-09
2.30917e-09
2.2086e-09
1.95778e-09
1.57158e-09
1.14185e-09
8.64934e-10
7.79072e-10
8.07264e-10
8.31089e-10
7.81553e-10
5.85777e-10
3.81836e-10
2.37707e-10
1.24212e-10
7.03641e-11
-3.40596e-11
1.03682e-11
-3.90361e-10
-1.2762e-09
1.15436e-09
2.01275e-09
-1.4805e-09
-1.56123e-09
-9.71318e-12
3.54878e-10
2.55705e-10
3.23684e-10
4.83069e-10
6.47394e-10
7.98705e-10
9.39187e-10
1.08315e-09
1.22958e-09
1.37798e-09
1.52589e-09
1.66612e-09
1.80303e-09
1.93806e-09
2.05726e-09
2.13989e-09
2.14376e-09
2.0186e-09
1.74176e-09
1.30981e-09
8.14355e-10
4.75836e-10
3.87951e-10
4.80677e-10
6.18722e-10
6.60808e-10
5.31598e-10
3.79301e-10
2.61765e-10
1.67894e-10
1.30653e-10
2.29737e-11
8.0321e-11
-2.97948e-10
-9.45996e-10
1.62665e-09
2.33248e-09
-1.05485e-09
-1.2873e-09
1.37643e-10
4.92969e-10
3.80854e-10
4.1633e-10
5.501e-10
6.8646e-10
8.11622e-10
9.46659e-10
1.08921e-09
1.23181e-09
1.37059e-09
1.49996e-09
1.6209e-09
1.74197e-09
1.85646e-09
1.9506e-09
2.00381e-09
1.97776e-09
1.83308e-09
1.53456e-09
1.07354e-09
5.43084e-10
1.64577e-10
7.08587e-11
2.04809e-10
4.20862e-10
5.3347e-10
4.86459e-10
3.82487e-10
2.85959e-10
2.12541e-10
1.77373e-10
8.35477e-11
1.59502e-10
-1.43255e-10
-5.92727e-10
1.96441e-09
2.57544e-09
-6.54307e-10
-1.04768e-09
2.4545e-10
6.0556e-10
4.91796e-10
5.00267e-10
6.05166e-10
7.17527e-10
8.29696e-10
9.59047e-10
1.09739e-09
1.23213e-09
1.35575e-09
1.46584e-09
1.57374e-09
1.68089e-09
1.77463e-09
1.84418e-09
1.86851e-09
1.81534e-09
1.65178e-09
1.33652e-09
8.67781e-10
3.27974e-10
-7.34754e-11
-1.75417e-10
-2.10291e-11
2.38431e-10
4.20202e-10
4.45768e-10
3.76666e-10
3.04101e-10
2.44155e-10
2.23809e-10
1.61169e-10
2.58748e-10
4.89542e-11
-2.5734e-10
2.18696e-09
2.7152e-09
-3.2243e-10
-8.46074e-10
3.20789e-10
6.95064e-10
5.91029e-10
5.73817e-10
6.53416e-10
7.56028e-10
8.63132e-10
9.83485e-10
1.1109e-09
1.23141e-09
1.33932e-09
1.43901e-09
1.53671e-09
1.62539e-09
1.69645e-09
1.7401e-09
1.73671e-09
1.65951e-09
1.47781e-09
1.155e-09
6.95343e-10
1.61253e-10
-2.49133e-10
-3.5882e-10
-2.00439e-10
8.07462e-11
3.148e-10
3.9109e-10
3.58031e-10
3.16895e-10
2.76245e-10
2.76855e-10
2.53346e-10
3.69938e-10
2.41489e-10
5.72046e-11
2.32964e-09
2.73207e-09
-3.95788e-11
-6.55961e-10
3.85315e-10
7.72604e-10
6.78482e-10
6.44919e-10
7.15879e-10
8.10738e-10
9.07864e-10
1.01728e-09
1.12843e-09
1.23405e-09
1.33227e-09
1.42394e-09
1.50571e-09
1.57244e-09
1.62042e-09
1.63906e-09
1.61047e-09
1.5126e-09
1.31746e-09
9.95878e-10
5.51968e-10
3.25854e-11
-3.73327e-10
-4.86985e-10
-3.36183e-10
-5.04663e-11
2.07123e-10
3.24217e-10
3.3775e-10
3.28449e-10
3.11126e-10
3.34944e-10
3.47179e-10
4.62941e-10
4.11206e-10
3.45809e-10
2.37203e-09
2.66506e-09
2.30799e-10
-4.5962e-10
4.4909e-10
8.43186e-10
7.65308e-10
7.30225e-10
7.92857e-10
8.72775e-10
9.58387e-10
1.05416e-09
1.15009e-09
1.24463e-09
1.3327e-09
1.40933e-09
1.47256e-09
1.52015e-09
1.54651e-09
1.54226e-09
1.49179e-09
1.37667e-09
1.17389e-09
8.58748e-10
4.31313e-10
-6.4495e-11
-4.52872e-10
-5.66681e-10
-4.30362e-10
-1.57348e-10
1.05666e-10
2.59368e-10
3.15596e-10
3.3451e-10
3.45233e-10
3.89822e-10
4.20449e-10
5.3042e-10
5.58632e-10
5.71598e-10
2.29673e-09
2.56733e-09
4.79708e-10
-2.70923e-10
5.07204e-10
9.08338e-10
8.57529e-10
8.23822e-10
8.7002e-10
9.35812e-10
1.00988e-09
1.0906e-09
1.17433e-09
1.25651e-09
1.33015e-09
1.39144e-09
1.43906e-09
1.46899e-09
1.47571e-09
1.4517e-09
1.38309e-09
1.25397e-09
1.04684e-09
7.39391e-10
3.30979e-10
-1.3312e-10
-4.94793e-10
-6.0605e-10
-4.87775e-10
-2.38392e-10
2.01015e-11
2.0058e-10
2.91207e-10
3.36935e-10
3.73296e-10
4.26494e-10
4.69791e-10
5.88211e-10
6.81471e-10
7.20664e-10
2.15433e-09
2.46094e-09
6.89516e-10
-1.06647e-10
5.5416e-10
9.66601e-10
9.46156e-10
9.10447e-10
9.40582e-10
9.94109e-10
1.05615e-09
1.12447e-09
1.19575e-09
1.26402e-09
1.32417e-09
1.37255e-09
1.40555e-09
1.41953e-09
1.41029e-09
1.3703e-09
1.2872e-09
1.14712e-09
9.36534e-10
6.37421e-10
2.50823e-10
-1.77832e-10
-5.08453e-10
-6.15083e-10
-5.15701e-10
-2.93184e-10
-4.553e-11
1.51143e-10
2.6799e-10
3.36532e-10
3.89112e-10
4.4711e-10
5.105e-10
6.39561e-10
7.74361e-10
8.13485e-10
1.99341e-09
2.35573e-09
8.51846e-10
2.60504e-11
5.8828e-10
1.01317e-09
1.0195e-09
9.80698e-10
9.98261e-10
1.04173e-09
1.09397e-09
1.15153e-09
1.21091e-09
1.26721e-09
1.31554e-09
1.35174e-09
1.37256e-09
1.37486e-09
1.3537e-09
1.30147e-09
1.20724e-09
1.05891e-09
8.45541e-10
5.54356e-10
1.89156e-10
-2.05172e-10
-5.0429e-10
-6.04387e-10
-5.2145e-10
-3.23017e-10
-8.87148e-11
1.13435e-10
2.48719e-10
3.33823e-10
3.96882e-10
4.65294e-10
5.47011e-10
6.77812e-10
8.36437e-10
8.68811e-10
1.84305e-09
2.26048e-09
9.64361e-10
1.24431e-10
6.0945e-10
1.04401e-09
1.0705e-09
1.02846e-09
1.03692e-09
1.07357e-09
1.11855e-09
1.16757e-09
1.21785e-09
1.26455e-09
1.30343e-09
1.33095e-09
1.34394e-09
1.33858e-09
1.30933e-09
1.24859e-09
1.14644e-09
9.92217e-10
7.76618e-10
4.91658e-10
1.44032e-10
-2.21327e-10
-4.92379e-10
-5.83994e-10
-5.11292e-10
-3.30134e-10
-1.08614e-10
9.18013e-11
2.363e-10
3.32134e-10
4.04749e-10
4.81759e-10
5.7325e-10
7.01454e-10
8.71998e-10
8.9857e-10
1.72003e-09
2.18946e-09
1.02142e-09
1.79803e-10
6.1755e-10
1.05731e-09
1.09421e-09
1.04855e-09
1.0515e-09
1.0842e-09
1.1251e-09
1.16935e-09
1.2142e-09
1.25557e-09
1.28967e-09
1.31311e-09
1.32246e-09
1.3134e-09
1.28005e-09
1.21477e-09
1.10809e-09
9.50176e-10
7.32537e-10
4.50731e-10
1.13887e-10
-2.31923e-10
-4.81424e-10
-5.61827e-10
-4.89889e-10
-3.16476e-10
-1.04351e-10
9.00854e-11
2.34704e-10
3.34215e-10
4.11967e-10
4.9273e-10
5.88163e-10
7.12886e-10
8.86526e-10
9.08925e-10
1.63891e-09
2.16668e-09
1.0097e-09
1.71498e-10
6.11066e-10
1.05237e-09
1.08664e-09
1.03698e-09
1.03809e-09
1.07042e-09
1.11122e-09
1.15512e-09
1.19979e-09
1.24134e-09
1.27587e-09
1.29992e-09
1.31e-09
1.30157e-09
1.26854e-09
1.20309e-09
1.09568e-09
9.36438e-10
7.16675e-10
4.33452e-10
9.77311e-11
-2.41809e-10
-4.77457e-10
-5.42353e-10
-4.59864e-10
-2.83353e-10
-7.56957e-11
1.09241e-10
2.45158e-10
3.40553e-10
4.18e-10
4.98812e-10
5.92426e-10
7.1227e-10
8.82089e-10
8.99935e-10
1.61738e-09
2.1924e-09
9.23383e-10
9.50533e-11
5.88673e-10
1.02898e-09
1.04825e-09
9.94816e-10
9.98188e-10
1.03411e-09
1.07866e-09
1.12679e-09
1.17637e-09
1.22317e-09
1.2629e-09
1.29188e-09
1.30691e-09
1.30341e-09
1.27513e-09
1.21398e-09
1.10984e-09
9.51892e-10
7.2984e-10
4.39775e-10
9.33738e-11
-2.52868e-10
-4.80277e-10
-5.24428e-10
-4.20837e-10
-2.31964e-10
-2.55088e-11
1.46329e-10
2.65583e-10
3.50957e-10
4.23766e-10
4.99714e-10
5.85972e-10
6.99889e-10
8.58993e-10
8.73072e-10
1.65939e-09
2.24473e-09
7.71904e-10
-3.43207e-11
5.4809e-10
9.86153e-10
9.84359e-10
9.28284e-10
9.37664e-10
9.80894e-10
1.03271e-09
1.08838e-09
1.14647e-09
1.20225e-09
1.2507e-09
1.28821e-09
1.31172e-09
1.31704e-09
1.29759e-09
1.24489e-09
1.14791e-09
9.93996e-10
7.69711e-10
4.68234e-10
1.0189e-10
-2.60879e-10
-4.83106e-10
-5.0142e-10
-3.69064e-10
-1.62829e-10
4.24797e-11
1.95626e-10
2.91855e-10
3.64567e-10
4.28381e-10
4.95062e-10
5.68424e-10
6.75229e-10
8.16377e-10
8.29104e-10
1.74968e-09
2.31345e-09
5.60291e-10
-2.11156e-10
4.8743e-10
9.25777e-10
9.01579e-10
8.43978e-10
8.63252e-10
9.17556e-10
9.78743e-10
1.04356e-09
1.11233e-09
1.17997e-09
1.23944e-09
1.28752e-09
1.32284e-09
1.34048e-09
1.33349e-09
1.29308e-09
1.20703e-09
1.06008e-09
8.34223e-10
5.18253e-10
1.25015e-10
-2.59816e-10
-4.75922e-10
-4.64159e-10
-2.99301e-10
-7.56072e-11
1.24698e-10
2.50807e-10
3.22026e-10
3.82159e-10
4.31225e-10
4.84918e-10
5.36082e-10
6.34972e-10
7.51231e-10
7.65415e-10
1.87198e-09
2.39056e-09
2.95275e-10
-4.29906e-10
4.16588e-10
8.57664e-10
8.06656e-10
7.48593e-10
7.82656e-10
8.50649e-10
9.20884e-10
9.9681e-10
1.0783e-09
1.15753e-09
1.22812e-09
1.28908e-09
1.33913e-09
1.37178e-09
1.38038e-09
1.35583e-09
1.28445e-09
1.1478e-09
9.22117e-10
5.90606e-10
1.67044e-10
-2.4035e-10
-4.4676e-10
-4.02718e-10
-2.07205e-10
2.99495e-11
2.15201e-10
3.08858e-10
3.57109e-10
4.01134e-10
4.29871e-10
4.65783e-10
4.91622e-10
5.81522e-10
6.56669e-10
6.61828e-10
2.01063e-09
2.43906e-09
8.1425e-15
-6.426e-10
3.59046e-10
7.91865e-10
7.05843e-10
6.5165e-10
7.03847e-10
7.84041e-10
8.65021e-10
9.53897e-10
1.04703e-09
1.13416e-09
1.21594e-09
1.29299e-09
1.35913e-09
1.40877e-09
1.43581e-09
1.43049e-09
1.37751e-09
1.25504e-09
1.03259e-09
6.86966e-10
2.33996e-10
-1.91305e-10
-3.82871e-10
-3.08045e-10
-8.99399e-11
1.51427e-10
3.09963e-10
3.70348e-10
3.94035e-10
4.1391e-10
4.22171e-10
4.41358e-10
4.44527e-10
5.22193e-10
5.29333e-10
4.98459e-10
2.11906e-09
2.40503e-09
-2.95105e-10
-8.00504e-10
3.23506e-10
7.21517e-10
6.04303e-10
5.64409e-10
6.33443e-10
7.22916e-10
8.16768e-10
9.17161e-10
1.01424e-09
1.10854e-09
1.20492e-09
1.29752e-09
1.38057e-09
1.44922e-09
1.49747e-09
1.51457e-09
1.48357e-09
1.37954e-09
1.1648e-09
8.09246e-10
3.3252e-10
-1.01171e-10
-2.7175e-10
-1.73355e-10
5.37294e-11
2.84395e-10
4.07726e-10
4.33681e-10
4.28123e-10
4.2011e-10
4.09052e-10
4.18251e-10
3.94749e-10
4.49617e-10
3.69233e-10
2.82782e-10
2.14531e-09
2.30054e-09
-6.01072e-10
-9.60223e-10
2.75564e-10
6.42739e-10
5.07372e-10
4.8843e-10
5.75435e-10
6.73785e-10
7.76085e-10
8.77855e-10
9.76701e-10
1.08309e-09
1.19333e-09
1.30022e-09
1.40166e-09
1.49137e-09
1.56332e-09
1.60578e-09
1.59992e-09
1.51865e-09
1.31723e-09
9.58416e-10
4.6868e-10
4.23097e-11
-1.02148e-10
5.50487e-12
2.22544e-10
4.24285e-10
5.08326e-10
4.9466e-10
4.57913e-10
4.26206e-10
3.89753e-10
3.83036e-10
3.27162e-10
3.61168e-10
1.9771e-10
5.51695e-11
2.10777e-09
2.14202e-09
-9.49348e-10
-1.15784e-09
2.06815e-10
5.62416e-10
4.19853e-10
4.24885e-10
5.28756e-10
6.32317e-10
7.31589e-10
8.29646e-10
9.3789e-10
1.05644e-09
1.17673e-09
1.2999e-09
1.42177e-09
1.53416e-09
1.63168e-09
1.70202e-09
1.72376e-09
1.66912e-09
1.48673e-09
1.13367e-09
6.47438e-10
2.49214e-10
1.33389e-10
2.3038e-10
4.13319e-10
5.69621e-10
6.06478e-10
5.50565e-10
4.88845e-10
4.3036e-10
3.59647e-10
3.28092e-10
2.44021e-10
2.80611e-10
3.33902e-11
-2.00013e-10
2.03469e-09
1.92004e-09
-1.29251e-09
-1.36441e-09
1.24967e-10
4.81539e-10
3.46313e-10
3.72905e-10
4.83106e-10
5.83404e-10
6.76443e-10
7.77763e-10
8.95154e-10
1.02143e-09
1.15522e-09
1.29788e-09
1.44156e-09
1.57721e-09
1.70118e-09
1.80116e-09
1.85231e-09
1.8267e-09
1.66786e-09
1.33305e-09
8.7419e-10
5.26586e-10
4.37151e-10
5.01405e-10
6.25127e-10
7.18991e-10
6.95763e-10
6.00874e-10
5.19516e-10
4.2166e-10
3.21188e-10
2.77147e-10
1.73201e-10
2.11679e-10
-1.23335e-10
-5.23076e-10
1.79452e-09
1.64298e-09
-1.66537e-09
-1.61421e-09
2.54722e-12
3.87543e-10
2.75706e-10
3.12662e-10
4.21861e-10
5.19343e-10
6.12286e-10
7.20298e-10
8.44373e-10
9.82064e-10
1.13447e-09
1.29735e-09
1.46184e-09
1.62008e-09
1.77033e-09
1.90076e-09
1.98299e-09
1.98664e-09
1.85599e-09
1.55598e-09
1.15117e-09
8.73458e-10
8.06219e-10
8.17772e-10
8.62309e-10
8.65525e-10
7.79477e-10
6.51144e-10
5.39027e-10
4.09826e-10
2.963e-10
2.39022e-10
1.14174e-10
1.48976e-10
-2.54223e-10
-8.58667e-10
1.46931e-09
1.31913e-09
-2.09543e-09
-1.94374e-09
-1.93821e-10
2.55072e-10
1.80615e-10
2.27539e-10
3.3511e-10
4.35071e-10
5.37846e-10
6.57541e-10
7.93851e-10
9.48343e-10
1.11874e-09
1.29924e-09
1.48236e-09
1.6619e-09
1.83758e-09
1.9982e-09
2.11298e-09
2.14585e-09
2.04939e-09
1.79975e-09
1.47423e-09
1.28223e-09
1.23318e-09
1.17948e-09
1.12521e-09
1.01404e-09
8.62554e-10
7.07069e-10
5.54935e-10
4.02011e-10
2.87375e-10
2.02493e-10
6.22999e-11
8.87166e-11
-3.42022e-10
-1.13226e-09
1.13177e-09
9.74731e-10
-2.49048e-09
-2.34035e-09
-4.83918e-10
6.41795e-11
4.52164e-11
1.07692e-10
2.20491e-10
3.35259e-10
4.59365e-10
5.96924e-10
7.49854e-10
9.20768e-10
1.10628e-09
1.30212e-09
1.50242e-09
1.70225e-09
1.90202e-09
2.09121e-09
2.23871e-09
2.30199e-09
2.24547e-09
2.05846e-09
1.83758e-09
1.74351e-09
1.70796e-09
1.58563e-09
1.41297e-09
1.17546e-09
9.55276e-10
7.56251e-10
5.65059e-10
3.94604e-10
2.79995e-10
1.64018e-10
1.46941e-11
1.83374e-11
-3.73281e-10
-1.32548e-09
7.32294e-10
6.25451e-10
-2.81636e-09
-2.7869e-09
-8.74474e-10
-1.9684e-10
-1.39647e-10
-4.99493e-11
8.54472e-11
2.29591e-10
3.7974e-10
5.37754e-10
7.08395e-10
8.94122e-10
1.0936e-09
1.30417e-09
1.5213e-09
1.74091e-09
1.96333e-09
2.17829e-09
2.35593e-09
2.44953e-09
2.43976e-09
2.33264e-09
2.23925e-09
2.24827e-09
2.22102e-09
2.02924e-09
1.72859e-09
1.35299e-09
1.05014e-09
7.81509e-10
5.65487e-10
3.85418e-10
2.61965e-10
1.17313e-10
-3.07607e-11
-6.13809e-11
-3.40734e-10
-1.41716e-09
2.83657e-10
2.79877e-10
-3.09437e-09
-3.27986e-09
-1.3652e-09
-5.31983e-10
-3.7304e-10
-2.37042e-10
-6.62746e-11
1.12062e-10
2.9207e-10
4.73302e-10
6.62344e-10
8.6318e-10
1.07702e-09
1.30249e-09
1.53626e-09
1.77491e-09
2.01838e-09
2.25667e-09
2.45888e-09
2.57934e-09
2.63011e-09
2.62961e-09
2.67912e-09
2.79226e-09
2.7689e-09
2.50161e-09
2.0667e-09
1.54479e-09
1.13001e-09
7.87589e-10
5.613e-10
3.55098e-10
2.28533e-10
6.25244e-11
-6.72592e-11
-1.44322e-10
-2.52955e-10
-1.37305e-09
-1.3975e-10
-8.88591e-11
-3.33919e-09
-3.77128e-09
-1.9301e-09
-9.23939e-10
-6.35726e-10
-4.46842e-10
-2.38104e-10
-1.94373e-11
1.957e-10
4.03681e-10
6.13231e-10
8.30566e-10
1.05954e-09
1.29956e-09
1.54808e-09
1.8017e-09
2.05982e-09
2.3174e-09
2.53902e-09
2.67992e-09
2.80308e-09
2.93482e-09
3.14676e-09
3.37027e-09
3.34618e-09
2.99166e-09
2.41494e-09
1.73928e-09
1.2011e-09
7.82508e-10
5.39694e-10
3.02408e-10
1.90923e-10
7.02797e-12
-9.5066e-11
-2.24113e-10
-1.52666e-10
-1.19081e-09
-4.73257e-10
-4.9192e-10
-3.4143e-09
-4.14468e-09
-2.51943e-09
-1.34526e-09
-9.00463e-10
-6.52251e-10
-3.99311e-10
-1.30245e-10
1.27789e-10
3.67319e-10
6.00639e-10
8.36864e-10
1.08227e-09
1.33601e-09
1.59483e-09
1.85301e-09
2.10511e-09
2.35412e-09
2.59296e-09
2.7419e-09
2.91878e-09
3.16744e-09
3.55151e-09
3.89699e-09
3.87477e-09
3.43041e-09
2.72034e-09
1.90133e-09
1.25152e-09
7.59575e-10
4.9809e-10
2.44638e-10
1.5529e-10
-4.58155e-11
-1.09478e-10
-3.07405e-10
-1.23038e-10
-9.26946e-10
-7.76596e-10
-8.265e-10
-3.23094e-09
-4.36283e-09
-3.10156e-09
-1.79104e-09
-1.14949e-09
-8.05567e-10
-4.85531e-10
-1.47515e-10
1.65965e-10
4.44033e-10
7.05519e-10
9.64496e-10
1.22985e-09
1.49975e-09
1.76842e-09
2.02461e-09
2.2486e-09
2.41702e-09
2.65047e-09
2.78048e-09
2.97701e-09
3.23447e-09
3.68275e-09
4.11646e-09
4.11387e-09
3.62038e-09
2.83522e-09
1.93801e-09
1.22502e-09
6.95596e-10
4.34489e-10
1.85794e-10
1.17602e-10
-9.17435e-11
-1.19159e-10
-3.95508e-10
-2.27448e-10
-6.49246e-10
-9.84892e-10
-1.01761e-09
-2.77795e-09
-4.44467e-09
-3.63908e-09
-2.27112e-09
-1.46225e-09
-9.94024e-10
-5.79067e-10
-1.51334e-10
2.31715e-10
5.55591e-10
8.4872e-10
1.13359e-09
1.42396e-09
1.71939e-09
2.01317e-09
2.29026e-09
2.51385e-09
2.68994e-09
2.71844e-09
2.78982e-09
3.08245e-09
3.30087e-09
3.58774e-09
4.00646e-09
4.05659e-09
3.60351e-09
2.81475e-09
1.88456e-09
1.13332e-09
5.90613e-10
3.37372e-10
1.14383e-10
6.46645e-11
-1.33e-10
-1.44522e-10
-4.69666e-10
-4.18159e-10
-5.25841e-10
-9.47862e-10
-1.6105e-09
-2.04859e-09
-3.82829e-09
-3.80805e-09
-2.69578e-09
-2.18475e-09
-2.0173e-09
-1.72814e-09
-1.3364e-09
-9.60729e-10
-6.3191e-10
-3.34286e-10
-5.6151e-11
2.1482e-10
4.77916e-10
7.36278e-10
1.00674e-09
1.29168e-09
1.569e-09
1.92121e-09
2.47027e-09
3.10754e-09
4.66496e-09
6.90544e-09
8.20853e-09
7.96633e-09
6.62121e-09
4.75247e-09
2.91854e-09
1.5517e-09
6.97637e-10
3.04635e-10
4.17319e-11
-1.38487e-11
-2.08625e-10
-1.21919e-10
-4.79895e-10
-1.98197e-10
-9.64715e-10
-2.62708e-09
)
;

boundaryField
{
    bottomWall
    {
        type            zeroGradient;
    }
    topWall
    {
        type            zeroGradient;
    }
    sides1_half0
    {
        type            empty;
    }
    sides1_half1
    {
        type            empty;
    }
    sides2_half0
    {
        type            empty;
    }
    sides2_half1
    {
        type            empty;
    }
    inout1_half0
    {
        type            cyclic;
    }
    inout1_half1
    {
        type            cyclic;
    }
    inout2_half0
    {
        type            cyclic;
    }
    inout2_half1
    {
        type            cyclic;
    }
}


// ************************************************************************* //
