/*--------------------------------*- C++ -*----------------------------------*\
  =========                 |
  \\      /  F ield         | OpenFOAM: The Open Source CFD Toolbox
   \\    /   O peration     | Website:  https://openfoam.org
    \\  /    A nd           | Version:  dev
     \\/     M anipulation  |

   OpenFOAM for Windows 20.09 (v1)
   Built by CFD Support, www.cfdsupport.com (based on Symscape).
\*---------------------------------------------------------------------------*/
FoamFile
{
    version     2.0;
    format      ascii;
    class       surfaceScalarField;
    location    "40";
    object      phi;
}
// * * * * * * * * * * * * * * * * * * * * * * * * * * * * * * * * * * * * * //

dimensions      [0 3 -1 0 0 0 0];

internalField   nonuniform List<scalar> 
3120
(
0.000715833
-5.33157e-10
0.000715834
-3.06108e-10
0.000715834
3.02009e-11
0.000715834
-9.04015e-11
0.000715834
-2.06257e-10
0.000715834
-2.50183e-10
0.000715835
-2.9746e-10
0.000715835
-3.49552e-10
0.000715835
-3.89457e-10
0.000715836
-4.16034e-10
0.000715836
-4.29895e-10
0.000715837
-4.28886e-10
0.000715837
-4.1125e-10
0.000715837
-3.78964e-10
0.000715838
-3.35905e-10
0.000715838
-2.84066e-10
0.000715838
-2.24538e-10
0.000715838
-1.50836e-10
0.000715838
-5.4156e-11
0.000715838
6.93449e-11
0.000715838
2.27954e-10
0.000715838
3.94042e-10
0.000715837
5.14061e-10
0.000715837
5.95309e-10
0.000715836
6.66692e-10
0.000715835
6.99322e-10
0.000715835
6.71934e-10
0.000715834
6.01429e-10
0.000715833
4.86492e-10
0.000715833
3.60401e-10
0.000715833
2.279e-10
0.000715833
1.39971e-10
0.000715833
6.25703e-11
0.000715833
2.25624e-11
0.000715833
-5.33519e-12
0.000715833
-6.00739e-11
0.000715833
5.37415e-12
0.000715833
-2.26885e-10
0.000715833
-1.74462e-11
7.12856e-11
0.000799099
-7.63882e-10
0.000799099
-3.24864e-10
0.000799099
4.1466e-12
0.000799099
-1.60102e-10
0.000799099
-3.13325e-10
0.000799099
-3.94579e-10
0.0007991
-4.67812e-10
0.0007991
-5.36932e-10
0.0007991
-5.88582e-10
0.0007991
-6.22461e-10
0.0007991
-6.39291e-10
0.000799101
-6.36394e-10
0.000799101
-6.11429e-10
0.000799101
-5.65393e-10
0.000799101
-5.02183e-10
0.000799101
-4.23572e-10
0.000799101
-3.28479e-10
0.000799101
-2.08605e-10
0.000799101
-5.21757e-11
0.000799101
1.59832e-10
0.000799101
3.9786e-10
0.000799101
6.2864e-10
0.000799101
7.96152e-10
0.0007991
8.95653e-10
0.0007991
9.50319e-10
0.0007991
9.69394e-10
0.0007991
9.37639e-10
0.000799099
8.63531e-10
0.000799099
7.32856e-10
0.000799099
5.75031e-10
0.000799099
3.88371e-10
0.000799099
2.53063e-10
0.000799099
1.19712e-10
0.000799098
5.89555e-11
0.000799098
-1.99988e-11
0.000799098
-6.36648e-11
0.000799099
-6.99699e-11
0.000799099
-2.41452e-10
0.000799099
3.23584e-11
-2.2837e-10
0.000860793
-8.1245e-10
0.000860793
-2.89429e-10
0.000860793
-4.53998e-11
0.000860793
-2.19855e-10
0.000860793
-3.83814e-10
0.000860793
-4.82185e-10
0.000860793
-5.65312e-10
0.000860793
-6.3844e-10
0.000860793
-6.92479e-10
0.000860793
-7.27794e-10
0.000860793
-7.452e-10
0.000860794
-7.42019e-10
0.000860794
-7.15255e-10
0.000860794
-6.6454e-10
0.000860794
-5.92518e-10
0.000860794
-4.99498e-10
0.000860794
-3.82282e-10
0.000860794
-2.29075e-10
0.000860794
-2.6917e-11
0.000860794
2.33597e-10
0.000860794
5.20394e-10
0.000860794
7.86394e-10
0.000860793
9.69577e-10
0.000860793
1.05059e-09
0.000860793
1.06558e-09
0.000860793
1.06164e-09
0.000860793
1.03441e-09
0.000860793
9.80362e-10
0.000860793
8.67372e-10
0.000860793
7.11671e-10
0.000860792
5.06243e-10
0.000860792
3.41258e-10
0.000860792
1.747e-10
0.000860792
9.24657e-11
0.000860792
-2.14715e-11
0.000860792
-6.22302e-11
0.000860792
-1.2841e-10
0.000860792
-2.2037e-10
0.000860792
-2.59411e-11
-4.83363e-10
0.000915497
-7.50482e-10
0.000915497
-2.64388e-10
0.000915497
-1.07448e-10
0.000915497
-2.73463e-10
0.000915497
-4.30811e-10
0.000915497
-5.32657e-10
0.000915497
-6.15306e-10
0.000915497
-6.84627e-10
0.000915498
-7.35127e-10
0.000915498
-7.67854e-10
0.000915498
-7.83918e-10
0.000915498
-7.80857e-10
0.000915498
-7.55079e-10
0.000915498
-7.04794e-10
0.000915498
-6.30737e-10
0.000915498
-5.3122e-10
0.000915498
-4.00586e-10
0.000915498
-2.25872e-10
0.000915498
5.61102e-12
0.000915498
2.94902e-10
0.000915498
6.07475e-10
0.000915498
8.8641e-10
0.000915497
1.06329e-09
0.000915497
1.11156e-09
0.000915497
1.08134e-09
0.000915497
1.05106e-09
0.000915497
1.03047e-09
0.000915497
1.00467e-09
0.000915497
9.25214e-10
0.000915497
7.89943e-10
0.000915497
5.87228e-10
0.000915497
4.06946e-10
0.000915497
2.23759e-10
0.000915497
1.20757e-10
0.000915497
-1.35157e-11
0.000915497
-6.12786e-11
0.000915497
-1.66054e-10
0.000915497
-2.0338e-10
0.000915497
-1.35247e-10
-6.3593e-10
0.000967496
-6.46186e-10
0.000967496
-2.48486e-10
0.000967496
-1.65362e-10
0.000967496
-3.15459e-10
0.000967496
-4.58928e-10
0.000967496
-5.57007e-10
0.000967496
-6.33599e-10
0.000967496
-6.94575e-10
0.000967496
-7.37425e-10
0.000967496
-7.64357e-10
0.000967496
-7.77004e-10
0.000967496
-7.73291e-10
0.000967496
-7.49272e-10
0.000967496
-7.01858e-10
0.000967496
-6.29638e-10
0.000967496
-5.28792e-10
0.000967496
-3.91719e-10
0.000967496
-2.05301e-10
0.000967496
4.1865e-11
0.000967496
3.44951e-10
0.000967496
6.65286e-10
0.000967496
9.39575e-10
0.000967496
1.09656e-09
0.000967496
1.10819e-09
0.000967496
1.03428e-09
0.000967496
9.76867e-10
0.000967496
9.61686e-10
0.000967496
9.64581e-10
0.000967496
9.25162e-10
0.000967496
8.20484e-10
0.000967496
6.34614e-10
0.000967496
4.51664e-10
0.000967496
2.63004e-10
0.000967496
1.42937e-10
0.000967496
-6.0558e-13
0.000967496
-6.14025e-11
0.000967496
-1.8501e-10
0.000967496
-1.98563e-10
0.000967496
-2.47621e-10
-7.00248e-10
0.00101855
-5.27638e-10
0.00101855
-2.37912e-10
0.00101855
-2.14763e-10
0.00101855
-3.46078e-10
0.00101855
-4.72729e-10
0.00101855
-5.6327e-10
0.00101855
-6.30912e-10
0.00101855
-6.80918e-10
0.00101855
-7.13515e-10
0.00101855
-7.32406e-10
0.00101855
-7.39764e-10
0.00101855
-7.34113e-10
0.00101855
-7.11469e-10
0.00101855
-6.67654e-10
0.00101855
-5.99201e-10
0.00101855
-5.0037e-10
0.00101855
-3.62158e-10
0.00101855
-1.71818e-10
0.00101855
8.00415e-11
0.00101855
3.84052e-10
0.00101855
6.98241e-10
0.00101855
9.55755e-10
0.00101855
1.08536e-09
0.00101855
1.06042e-09
0.00101855
9.46699e-10
0.00101855
8.63106e-10
0.00101855
8.50755e-10
0.00101855
8.79655e-10
0.00101855
8.81107e-10
0.00101855
8.1216e-10
0.00101855
6.52105e-10
0.00101855
4.76488e-10
0.00101855
2.90974e-10
0.00101855
1.59338e-10
0.00101855
1.39671e-11
0.00101855
-6.12657e-11
0.00101855
-1.89669e-10
0.00101855
-2.03164e-10
0.00101855
-3.37261e-10
-6.92169e-10
0.00106953
-4.05782e-10
0.00106953
-2.31769e-10
0.00106953
-2.55062e-10
0.00106953
-3.66902e-10
0.00106953
-4.75964e-10
0.00106953
-5.5685e-10
0.00106953
-6.13917e-10
0.00106953
-6.51811e-10
0.00106953
-6.73191e-10
0.00106953
-6.82944e-10
0.00106953
-6.83748e-10
0.00106953
-6.74972e-10
0.00106953
-6.52857e-10
0.00106953
-6.12356e-10
0.00106953
-5.48305e-10
0.00106953
-4.53425e-10
0.00106953
-3.17832e-10
0.00106953
-1.29649e-10
0.00106953
1.18106e-10
0.00106953
4.12648e-10
0.00106953
7.10334e-10
0.00106953
9.43217e-10
0.00106953
1.04187e-09
0.00106953
9.82572e-10
0.00106953
8.3419e-10
0.00106953
7.26705e-10
0.00106953
7.14479e-10
0.00106953
7.65419e-10
0.00106953
8.04396e-10
0.00106953
7.72472e-10
0.00106953
6.43938e-10
0.00106953
4.82873e-10
0.00106953
3.07177e-10
0.00106953
1.70248e-10
0.00106953
2.81002e-11
0.00106953
-5.92867e-11
0.00106953
-1.84059e-10
0.00106953
-2.10751e-10
0.00106953
-3.91711e-10
-6.256e-10
0.00112093
-2.87558e-10
0.00112093
-2.20963e-10
0.00112093
-2.82462e-10
0.00112093
-3.77572e-10
0.00112093
-4.69827e-10
0.00112093
-5.39862e-10
0.00112093
-5.86171e-10
0.00112093
-6.12477e-10
0.00112093
-6.23104e-10
0.00112093
-6.23874e-10
0.00112093
-6.1775e-10
0.00112093
-6.05232e-10
0.00112093
-5.82758e-10
0.00112093
-5.44745e-10
0.00112093
-4.84897e-10
0.00112093
-3.94848e-10
0.00112093
-2.64434e-10
0.00112093
-8.3061e-11
0.00112093
1.53914e-10
0.00112093
4.31222e-10
0.00112093
7.04998e-10
0.00112093
9.08478e-10
0.00112093
9.75371e-10
0.00112093
8.85481e-10
0.00112093
7.08692e-10
0.00112093
5.80694e-10
0.00112093
5.66362e-10
0.00112093
6.34065e-10
0.00112093
7.05031e-10
0.00112093
7.08587e-10
0.00112093
6.1404e-10
0.00112093
4.72337e-10
0.00112093
3.11774e-10
0.00112093
1.76203e-10
0.00112093
4.08083e-11
0.00112093
-5.53775e-11
0.00112093
-1.72066e-10
0.00112093
-2.14872e-10
0.00112093
-4.09837e-10
-5.24306e-10
0.00117304
-1.78569e-10
0.00117304
-2.02179e-10
0.00117304
-2.93828e-10
0.00117304
-3.75447e-10
0.00117304
-4.52801e-10
0.00117304
-5.12735e-10
0.00117304
-5.49328e-10
0.00117304
-5.65798e-10
0.00117304
-5.67653e-10
0.00117304
-5.60669e-10
0.00117304
-5.4846e-10
0.00117304
-5.32173e-10
0.00117304
-5.08569e-10
0.00117304
-4.72041e-10
0.00117304
-4.15739e-10
0.00117304
-3.30749e-10
0.00117304
-2.07292e-10
0.00117304
-3.61192e-11
0.00117304
1.85331e-10
0.00117304
4.40057e-10
0.00117304
6.85064e-10
0.00117304
8.56716e-10
0.00117304
8.93171e-10
0.00117304
7.77725e-10
0.00117304
5.79511e-10
0.00117304
4.35184e-10
0.00117304
4.17106e-10
0.00117304
4.95779e-10
0.00117304
5.91936e-10
0.00117304
6.27473e-10
0.00117304
5.65832e-10
0.00117304
4.47109e-10
0.00117304
3.05732e-10
0.00117304
1.76528e-10
0.00117304
5.08613e-11
0.00117304
-4.96868e-11
0.00117304
-1.56194e-10
0.00117304
-2.11282e-10
0.00117304
-3.96017e-10
-4.07781e-10
0.00122608
-8.36394e-11
0.00122608
-1.73729e-10
0.00122608
-2.86323e-10
0.00122608
-3.57628e-10
0.00122608
-4.23091e-10
0.00122608
-4.74689e-10
0.00122608
-5.0406e-10
0.00122608
-5.13947e-10
0.00122608
-5.09848e-10
0.00122608
-4.97371e-10
0.00122608
-4.80465e-10
0.00122608
-4.60738e-10
0.00122608
-4.35533e-10
0.00122608
-3.9966e-10
0.00122608
-3.46159e-10
0.00122608
-2.66353e-10
0.00122608
-1.51108e-10
0.00122608
7.6523e-12
0.00122608
2.10436e-10
0.00122608
4.39272e-10
0.00122608
6.52923e-10
0.00122608
7.92384e-10
0.00122608
8.01302e-10
0.00122608
6.65999e-10
0.00122608
4.53548e-10
0.00122608
2.97809e-10
0.00122608
2.75078e-10
0.00122608
3.59223e-10
0.00122608
4.73085e-10
0.00122608
5.3472e-10
0.00122608
5.03434e-10
0.00122608
4.10058e-10
0.00122608
2.89808e-10
0.00122608
1.71226e-10
0.00122608
5.72881e-11
0.00122608
-4.25986e-11
0.00122608
-1.37497e-10
0.00122608
-1.99056e-10
0.00122608
-3.591e-10
-2.92649e-10
0.00128018
-4.4829e-12
0.00128018
-1.34708e-10
0.00128018
-2.6055e-10
0.00128018
-3.24993e-10
0.00128018
-3.81575e-10
0.00128018
-4.27005e-10
0.00128018
-4.51894e-10
0.00128018
-4.58166e-10
0.00128018
-4.51089e-10
0.00128018
-4.35811e-10
0.00128018
-4.15732e-10
0.00128018
-3.93297e-10
0.00128018
-3.66623e-10
0.00128018
-3.31107e-10
0.00128018
-2.8025e-10
0.00128018
-2.05882e-10
0.00128018
-9.94491e-11
0.00128018
4.5582e-11
0.00128018
2.27892e-10
0.00128018
4.29148e-10
0.00128018
6.10764e-10
0.00128018
7.1932e-10
0.00128018
7.04399e-10
0.00128018
5.55304e-10
0.00128018
3.36048e-10
0.00128018
1.74303e-10
0.00128018
1.46781e-10
0.00128018
2.31235e-10
0.00128018
3.55075e-10
0.00128018
4.35801e-10
0.00128018
4.31878e-10
0.00128018
3.64368e-10
0.00128018
2.65572e-10
0.00128018
1.60776e-10
0.00128018
5.98889e-11
0.00128018
-3.47885e-11
0.00128018
-1.17726e-10
0.00128018
-1.79575e-10
0.00128018
-3.08809e-10
-1.90618e-10
0.00133545
6.00186e-11
0.00133545
-8.93885e-11
0.00133545
-2.22707e-10
0.00133545
-2.82715e-10
0.00133545
-3.32217e-10
0.00133545
-3.72865e-10
0.00133545
-3.94965e-10
0.00133545
-3.99903e-10
0.00133545
-3.92233e-10
0.00133545
-3.75852e-10
0.00133545
-3.54293e-10
0.00133545
-3.30368e-10
0.00133545
-3.02936e-10
0.00133545
-2.68211e-10
0.00133545
-2.20299e-10
0.00133545
-1.51451e-10
0.00133545
-5.41872e-11
0.00133545
7.62222e-11
0.00133545
2.37052e-10
0.00133545
4.10244e-10
0.00133545
5.60557e-10
0.00133545
6.40567e-10
0.00133545
6.06157e-10
0.00133545
4.49677e-10
0.00133545
2.31057e-10
0.00133545
6.8811e-11
0.00133545
3.68629e-11
0.00133545
1.17063e-10
0.00133545
2.43211e-10
0.00133545
3.36872e-10
0.00133545
3.56144e-10
0.00133546
3.12446e-10
0.00133546
2.34675e-10
0.00133546
1.45445e-10
0.00133546
5.86184e-11
0.00133546
-2.71187e-11
0.00133546
-9.79365e-11
0.00133546
-1.54784e-10
0.00133545
-2.52515e-10
-1.0475e-10
0.001392
1.09226e-10
0.001392
-4.62029e-11
0.001392
-1.80894e-10
0.001392
-2.36335e-10
0.001392
-2.79166e-10
0.001392
-3.15381e-10
0.001392
-3.35868e-10
0.001392
-3.40848e-10
0.001392
-3.33415e-10
0.001392
-3.17053e-10
0.001392
-2.95539e-10
0.001392
-2.71509e-10
0.001392
-2.44381e-10
0.001392
-2.11121e-10
0.001392
-1.66391e-10
0.001392
-1.03364e-10
0.001392
-1.60447e-11
0.001392
9.88837e-11
0.001392
2.37719e-10
0.001392
3.8328e-10
0.001392
5.04054e-10
0.001392
5.58738e-10
0.001392
5.09807e-10
0.001392
3.52485e-10
0.001392
1.41533e-10
0.001392
-1.61131e-11
0.001392
-5.18135e-11
0.001392
2.04265e-11
0.001392
1.42349e-10
0.001392
2.42773e-10
0.001392
2.79565e-10
0.001392
2.56576e-10
0.001392
1.98905e-10
0.001392
1.2608e-10
0.001392
5.37665e-11
0.001392
-2.03896e-11
0.001392
-7.87292e-11
0.001392
-1.27036e-10
0.001392
-1.94607e-10
-3.39611e-11
0.00144989
1.40358e-10
0.00144989
-1.02129e-11
0.00144989
-1.39673e-10
0.00144989
-1.89107e-10
0.00144989
-2.25231e-10
0.00144989
-2.57261e-10
0.00144989
-2.76298e-10
0.00144989
-2.81238e-10
0.00144989
-2.7449e-10
0.00144989
-2.59233e-10
0.00144989
-2.3884e-10
0.00144989
-2.15885e-10
0.00144989
-1.90139e-10
0.00144989
-1.59079e-10
0.00144989
-1.18198e-10
0.00144989
-6.19627e-11
0.00144989
1.4413e-11
0.00144989
1.13155e-10
0.00144989
2.29981e-10
0.00144989
3.49069e-10
0.00144989
4.42871e-10
0.00144989
4.76236e-10
0.00144989
4.18198e-10
0.00144989
2.66286e-10
0.00144989
6.92053e-11
0.00144989
-7.93065e-11
0.00144989
-1.17775e-10
0.00144989
-5.6223e-11
0.00144989
5.61392e-11
0.00144989
1.5661e-10
0.00144989
2.04999e-10
0.00144989
1.99525e-10
0.00144989
1.60155e-10
0.00144989
1.03711e-10
0.00144989
4.5731e-11
0.00144989
-1.5434e-11
0.00144989
-6.15604e-11
0.00144989
-9.91467e-11
0.00144989
-1.39786e-10
1.94386e-11
0.00150918
1.53296e-10
0.00150918
1.72448e-11
0.00150918
-1.00851e-10
0.00150918
-1.43147e-10
0.00150918
-1.72553e-10
0.00150918
-1.99947e-10
0.00150918
-2.16814e-10
0.00150918
-2.21569e-10
0.00150918
-2.15951e-10
0.00150918
-2.02368e-10
0.00150918
-1.83917e-10
0.00150918
-1.63013e-10
0.00150918
-1.3965e-10
0.00150918
-1.11844e-10
0.00150918
-7.60097e-11
0.00150918
-2.76934e-11
0.00150918
3.68875e-11
0.00150918
1.18984e-10
0.00150918
2.14181e-10
0.00150918
3.08484e-10
0.00150918
3.78478e-10
0.00150918
3.95088e-10
0.00150918
3.33465e-10
0.00150918
1.92693e-10
0.00150918
1.48398e-11
0.00150918
-1.20589e-10
0.00150918
-1.60611e-10
0.00150918
-1.11554e-10
0.00150918
-1.3331e-11
0.00150918
8.10396e-11
0.00150918
1.35313e-10
0.00150918
1.43412e-10
0.00150918
1.19866e-10
0.00150918
7.88987e-11
0.00150918
3.48108e-11
0.00150918
-1.30127e-11
0.00150918
-4.76489e-11
0.00150918
-7.39125e-11
0.00150918
-9.37724e-11
5.27825e-11
0.00156992
1.50375e-10
0.00156992
3.50652e-11
0.00156992
-6.64081e-11
0.00156992
-1.00342e-10
0.00156992
-1.22744e-10
0.00156992
-1.44687e-10
0.00156992
-1.58731e-10
0.00156992
-1.63086e-10
0.00156992
-1.58498e-10
0.00156992
-1.46866e-10
0.00156992
-1.3099e-10
0.00156992
-1.12913e-10
0.00156992
-9.29123e-11
0.00156992
-6.94956e-11
0.00156992
-3.98549e-11
0.00156992
-4.8045e-13
0.00156992
5.14801e-11
0.00156992
1.16637e-10
0.00156992
1.90881e-10
0.00156992
2.62422e-10
0.00156992
3.12103e-10
0.00156992
3.16699e-10
0.00156992
2.5684e-10
0.00156992
1.32506e-10
0.00156992
-2.15126e-11
0.00156992
-1.40619e-10
0.00156992
-1.80951e-10
0.00156992
-1.45521e-10
0.00156992
-6.5075e-11
0.00156992
1.79752e-11
0.00156992
7.24709e-11
0.00156992
8.96609e-11
0.00156992
7.91067e-11
0.00156992
5.22194e-11
0.00156992
2.11971e-11
0.00156992
-1.36685e-11
0.00156992
-3.74944e-11
0.00156992
-5.33968e-11
0.00156992
-5.9266e-11
6.78792e-11
0.00163215
1.33899e-10
0.00163215
4.32003e-11
0.00163215
-3.72929e-11
0.00163215
-6.16553e-11
0.00163215
-7.68901e-11
0.00163215
-9.2942e-11
0.00163215
-1.03646e-10
0.00163215
-1.0695e-10
0.00163215
-1.03045e-10
0.00163214
-9.33937e-11
0.00163214
-8.03094e-11
0.00163214
-6.56293e-11
0.00163214
-4.97966e-11
0.00163214
-3.17565e-11
0.00163214
-9.37092e-12
0.00163214
2.0038e-11
0.00163214
5.8631e-11
0.00163214
1.0672e-10
0.00163214
1.60857e-10
0.00163214
2.11767e-10
0.00163214
2.4465e-10
0.00163214
2.41827e-10
0.00163215
1.88796e-10
0.00163215
8.56982e-11
0.00163215
-4.07e-11
0.00163215
-1.40957e-10
0.00163215
-1.80517e-10
0.00163215
-1.59427e-10
0.00163215
-9.94025e-11
0.00163215
-3.20505e-11
0.00163215
1.74746e-11
0.00163215
3.93518e-11
0.00163215
3.88406e-11
0.00163215
2.42588e-11
0.00163215
5.18488e-12
0.00163215
-1.72656e-11
0.00163215
-3.119e-11
0.00163215
-3.85572e-11
0.00163215
-3.61561e-11
6.77113e-11
0.00169586
1.05181e-10
0.00169586
4.27557e-11
0.00169586
-1.26722e-11
0.00169586
-2.67454e-11
0.00169586
-3.53371e-11
0.00169586
-4.55465e-11
0.00169586
-5.2399e-11
0.00169586
-5.39418e-11
0.00169586
-5.01475e-11
0.00169586
-4.21366e-11
0.00169586
-3.18402e-11
0.00169586
-2.09118e-11
0.00169586
-9.89578e-12
0.00169586
1.89647e-12
0.00169586
1.60539e-11
0.00169586
3.46136e-11
0.00169586
5.9251e-11
0.00169586
9.02226e-11
0.00169586
1.2508e-10
0.00169586
1.5733e-10
0.00169586
1.76629e-10
0.00169586
1.70593e-10
0.00169586
1.28941e-10
0.00169586
5.12241e-11
0.00169586
-4.45429e-11
0.00169586
-1.2414e-10
0.00169586
-1.62163e-10
0.00169586
-1.55898e-10
0.00169586
-1.18167e-10
0.00169586
-6.99141e-11
0.00169586
-2.97391e-11
0.00169586
-7.01725e-12
0.00169586
-2.38634e-13
0.00169586
-4.33676e-12
0.00169586
-1.23972e-11
0.00169586
-2.32539e-11
0.00169586
-2.85184e-11
0.00169586
-2.9348e-11
0.00169586
-2.30494e-11
5.45311e-11
0.00176104
6.44492e-11
0.00176104
3.55804e-11
0.00176104
9.6961e-12
0.00176104
5.69131e-12
0.00176104
2.56706e-12
0.00176104
-2.13665e-12
0.00176104
-4.78373e-12
0.00176104
-3.95073e-12
0.00176104
3.65877e-13
0.00176104
7.16905e-12
0.00176104
1.4809e-11
0.00176104
2.1802e-11
0.00176104
2.7532e-11
0.00176104
3.24154e-11
0.00176104
3.76021e-11
0.00176104
4.46113e-11
0.00176104
5.47723e-11
0.00176104
6.85251e-11
0.00176104
8.46993e-11
0.00176104
9.98063e-11
0.00176104
1.08084e-10
0.00176104
1.02315e-10
0.00176104
7.58663e-11
0.00176104
2.69734e-11
0.00176104
-3.5885e-11
0.00176104
-9.37608e-11
0.00176104
-1.29962e-10
0.00176104
-1.38967e-10
0.00176104
-1.24785e-10
0.00176104
-9.79616e-11
0.00176104
-7.02088e-11
0.00176104
-4.96274e-11
0.00176104
-3.7782e-11
0.00176104
-3.27931e-11
0.00176104
-3.0841e-11
0.00176104
-3.10734e-11
0.00176104
-2.87694e-11
0.00176104
-2.4795e-11
0.00176104
-1.73835e-11
3.01387e-11
0.00182765
1.26869e-11
0.00182765
2.33313e-11
0.00182765
3.19887e-11
0.00182765
3.69067e-11
0.00182765
3.81174e-11
0.00182765
3.86632e-11
0.00182764
4.04424e-11
0.00182764
4.40571e-11
0.00182764
4.93482e-11
0.00182764
5.53383e-11
0.00182764
6.05435e-11
0.00182764
6.35707e-11
0.00182764
6.37827e-11
0.00182764
6.13568e-11
0.00182764
5.70516e-11
0.00182764
5.1939e-11
0.00182764
4.71201e-11
0.00182764
4.33846e-11
0.00182764
4.10357e-11
0.00182764
3.97676e-11
0.00182764
3.85765e-11
0.00182764
3.54633e-11
0.00182764
2.70989e-11
0.00182765
9.70112e-12
0.00182764
-1.87016e-11
0.00182764
-5.45985e-11
0.00182764
-8.93325e-11
0.00182764
-1.14151e-10
0.00182764
-1.24187e-10
0.00182764
-1.19829e-10
0.00182764
-1.05972e-10
0.00182764
-8.91771e-11
0.00182765
-7.37418e-11
0.00182765
-6.0779e-11
0.00182765
-4.95798e-11
0.00182765
-3.98078e-11
0.00182765
-3.06404e-11
0.00182765
-2.30882e-11
0.00182765
-1.55585e-11
-2.12359e-12
0.00182765
-4.09184e-11
0.00182765
9.14017e-12
0.00182765
5.26824e-11
0.00182765
6.64931e-11
0.00182765
7.18734e-11
0.00182765
7.75177e-11
0.00182765
8.37063e-11
0.00182765
9.01756e-11
0.00182765
9.66298e-11
0.00182765
1.02099e-10
0.00182765
1.05169e-10
0.00182765
1.04485e-10
0.00182765
9.93475e-11
0.00182765
8.97127e-11
0.00182765
7.59611e-11
0.00182765
5.87458e-11
0.00182765
3.8994e-11
0.00182765
1.78907e-11
0.00182765
-2.76193e-12
0.00182765
-2.00743e-11
0.00182765
-3.02193e-11
0.00182765
-2.98741e-11
0.00182765
-1.92257e-11
0.00182765
-4.59698e-12
0.00182765
9.76642e-13
0.00182765
-1.42841e-11
0.00182765
-4.86145e-11
0.00182765
-8.93407e-11
0.00182765
-1.22727e-10
0.00182765
-1.39565e-10
0.00182765
-1.38699e-10
0.00182765
-1.25682e-10
0.00182765
-1.07284e-10
0.00182765
-8.70913e-11
0.00182765
-6.72991e-11
0.00182765
-4.80351e-11
0.00182765
-3.24432e-11
0.00182765
-2.18821e-11
0.00182765
-1.49772e-11
-3.60002e-11
0.00176105
-8.69174e-11
0.00176105
-3.50005e-12
0.00176105
7.0481e-11
0.00176105
9.44804e-11
0.00176105
1.04766e-10
0.00176105
1.15334e-10
0.00176105
1.25641e-10
0.00176105
1.34741e-10
0.00176105
1.42268e-10
0.00176105
1.47372e-10
0.00176104
1.48652e-10
0.00176104
1.44693e-10
0.00176104
1.34712e-10
0.00176104
1.18429e-10
0.00176104
9.58262e-11
0.00176104
6.71223e-11
0.00176104
3.30441e-11
0.00176104
-4.91471e-12
0.00176104
-4.36099e-11
0.00176104
-7.71172e-11
0.00176105
-9.68147e-11
0.00176105
-9.39287e-11
0.00176105
-6.54469e-11
0.00176105
-2.03741e-11
0.00176105
1.67803e-11
0.00176105
1.9474e-11
0.00176105
-1.59369e-11
0.00176105
-7.20893e-11
0.00176105
-1.26479e-10
0.00176105
-1.61165e-10
0.00176105
-1.7041e-10
0.00176105
-1.59574e-10
0.00176105
-1.37894e-10
0.00176105
-1.10792e-10
0.00176105
-8.28306e-11
0.00176105
-5.44556e-11
0.00176105
-3.25599e-11
0.00176105
-1.88617e-11
0.00176105
-1.29369e-11
-6.52039e-11
0.00169586
-1.23857e-10
0.00169586
-1.23299e-11
0.00169586
8.79457e-11
0.00169586
1.2242e-10
0.00169586
1.38295e-10
0.00169586
1.53723e-10
0.00169586
1.67757e-10
0.00169586
1.79082e-10
0.00169586
1.87495e-10
0.00169586
1.92324e-10
0.00169586
1.92125e-10
0.00169586
1.85349e-10
0.00169586
1.71108e-10
0.00169586
1.4889e-10
0.00169586
1.18214e-10
0.00169586
7.87756e-11
0.00169586
3.10237e-11
0.00169586
-2.3423e-11
0.00169586
-8.03446e-11
0.00169586
-1.30997e-10
0.00169586
-1.61968e-10
0.00169586
-1.58736e-10
0.00169586
-1.14732e-10
0.00169586
-4.15926e-11
0.00169586
2.42525e-11
0.00169586
4.19381e-11
0.00169586
3.87482e-12
0.00169586
-6.70275e-11
0.00169586
-1.39483e-10
0.00169586
-1.8792e-10
0.00169586
-2.03376e-10
0.00169586
-1.92242e-10
0.00169586
-1.66315e-10
0.00169586
-1.3197e-10
0.00169586
-9.59568e-11
0.00169586
-5.83519e-11
0.00169586
-2.97546e-11
0.00169586
-1.23778e-11
0.00169586
-5.7403e-12
-8.60931e-11
0.00163215
-1.51368e-10
0.00163215
-1.44364e-11
0.00163215
1.07261e-10
0.00163215
1.51094e-10
0.00163215
1.72956e-10
0.00163215
1.93221e-10
0.00163215
2.10567e-10
0.00163215
2.23705e-10
0.00163215
2.32865e-10
0.00163215
2.37592e-10
0.00163215
2.36202e-10
0.00163215
2.27062e-10
0.00163215
2.09251e-10
0.00163215
1.81958e-10
0.00163215
1.44129e-10
0.00163215
9.48449e-11
0.00163215
3.41803e-11
0.00163215
-3.64137e-11
0.00163215
-1.11973e-10
0.00163215
-1.81198e-10
0.00163215
-2.25907e-10
0.00163215
-2.25441e-10
0.00163215
-1.69092e-10
0.00163215
-7.09593e-11
0.00163215
2.01947e-11
0.00163215
4.97327e-11
0.00163215
7.66319e-12
0.00163215
-7.68507e-11
0.00163215
-1.63928e-10
0.00163215
-2.21459e-10
0.00163215
-2.38786e-10
0.00163215
-2.2455e-10
0.00163215
-1.92947e-10
0.00163215
-1.50784e-10
0.00163215
-1.06593e-10
0.00163215
-5.95003e-11
0.00163215
-2.36902e-11
0.00163215
-1.42392e-12
0.00163215
9.3216e-12
-9.64951e-11
0.00156993
-1.67955e-10
0.00156993
-9.56092e-12
0.00156993
1.28407e-10
0.00156993
1.80145e-10
0.00156993
2.085e-10
0.00156993
2.33576e-10
0.00156992
2.53806e-10
0.00156992
2.68524e-10
0.00156992
2.7855e-10
0.00156992
2.83313e-10
0.00156992
2.81008e-10
0.00156992
2.7006e-10
0.00156992
2.49512e-10
0.00156992
2.18105e-10
0.00156992
1.741e-10
0.00156992
1.16025e-10
0.00156992
4.33481e-11
0.00156992
-4.2978e-11
0.00156992
-1.37596e-10
0.00156992
-2.26967e-10
0.00156992
-2.88232e-10
0.00156992
-2.94178e-10
0.00156992
-2.29305e-10
0.00156992
-1.09928e-10
0.00156992
2.60367e-12
0.00156992
4.07749e-11
0.00156992
-6.2286e-12
0.00156992
-1.02538e-10
0.00156993
-2.00376e-10
0.00156993
-2.62066e-10
0.00156993
-2.76885e-10
0.00156993
-2.56705e-10
0.00156993
-2.17806e-10
0.00156993
-1.67281e-10
0.00156993
-1.14829e-10
0.00156993
-5.82621e-11
0.00156993
-1.46541e-11
0.00156993
1.39753e-11
0.00156993
3.3972e-11
-9.39707e-11
0.00150918
-1.71723e-10
0.00150918
1.17441e-12
0.00150918
1.50142e-10
0.00150918
2.08976e-10
0.00150918
2.44657e-10
0.00150918
2.74134e-10
0.00150918
2.96816e-10
0.00150918
3.13181e-10
0.00150918
3.24218e-10
0.00150918
3.29189e-10
0.00150918
3.26417e-10
0.00150918
3.14421e-10
0.00150918
2.91952e-10
0.00150918
2.573e-10
0.00150918
2.08272e-10
0.00150918
1.42598e-10
0.00150918
5.89638e-11
0.00150918
-4.24892e-11
0.00150918
-1.5638e-10
0.00150918
-2.67297e-10
0.00150918
-3.47889e-10
0.00150918
-3.6406e-10
0.00150918
-2.94915e-10
0.00150918
-1.58739e-10
0.00150918
-2.93643e-11
0.00150918
1.41557e-11
0.00150918
-3.81135e-11
0.00150918
-1.43762e-10
0.00150918
-2.48047e-10
0.00150918
-3.08947e-10
0.00150918
-3.17133e-10
0.00150918
-2.88427e-10
0.00150918
-2.4076e-10
0.00150918
-1.81393e-10
0.00150918
-1.20733e-10
0.00150918
-5.49039e-11
0.00150918
-2.89157e-12
0.00150918
3.26303e-11
0.00150918
6.63077e-11
-7.75334e-11
0.00144989
-1.62684e-10
0.00144989
1.76809e-11
0.00144989
1.72739e-10
0.00144989
2.37674e-10
0.00144989
2.79861e-10
0.00144989
3.13616e-10
0.00144989
3.38788e-10
0.00144989
3.56843e-10
0.00144989
3.69073e-10
0.00144989
3.74727e-10
0.00144989
3.72138e-10
0.00144989
3.59711e-10
0.00144989
3.35969e-10
0.00144989
2.9913e-10
0.00144989
2.4634e-10
0.00144989
1.74376e-10
0.00144989
8.10678e-11
0.00144989
-3.4588e-11
0.00144989
-1.6757e-10
0.00144989
-3.00979e-10
0.00144989
-4.03251e-10
0.00144989
-4.33299e-10
0.00144989
-3.64397e-10
0.00144989
-2.16491e-10
0.00144989
-7.55231e-11
0.00144989
-2.9935e-11
0.00144989
-8.72262e-11
0.00144989
-1.99148e-10
0.00144989
-3.05192e-10
0.00144989
-3.60684e-10
0.00144989
-3.58544e-10
0.00144989
-3.19001e-10
0.00144989
-2.61335e-10
0.00144989
-1.92969e-10
0.00144989
-1.241e-10
0.00144989
-4.98498e-11
0.00144989
1.06339e-11
0.00144989
5.22449e-11
0.00144989
1.02567e-10
-4.84116e-11
0.001392
-1.37875e-10
0.001392
3.81944e-11
0.001392
1.91623e-10
0.001392
2.62224e-10
0.001392
3.11618e-10
0.001392
3.50345e-10
0.001392
3.78294e-10
0.001392
3.98358e-10
0.001392
4.12275e-10
0.001392
4.19058e-10
0.001392
4.17098e-10
0.001392
4.04666e-10
0.001392
3.80568e-10
0.001392
3.42799e-10
0.001392
2.87512e-10
0.001392
2.10734e-10
0.001392
1.09336e-10
0.001392
-1.91769e-11
0.001392
-1.70534e-10
0.001392
-3.26713e-10
0.001392
-4.52352e-10
0.001392
-4.99477e-10
0.001392
-4.35339e-10
0.001392
-2.81429e-10
0.001392
-1.34732e-10
0.001392
-9.04014e-11
0.001392
-1.51971e-10
0.001392
-2.66566e-10
0.001392
-3.69692e-10
0.001392
-4.15518e-10
0.001392
-3.99667e-10
0.001392
-3.47455e-10
0.001392
-2.78843e-10
0.001392
-2.01891e-10
0.001392
-1.25379e-10
0.001392
-4.46321e-11
0.001392
2.43362e-11
0.001392
7.12047e-11
0.001392
1.42609e-10
-3.20464e-12
0.00133546
-9.45928e-11
0.00133546
5.61537e-11
0.00133546
2.01933e-10
0.00133546
2.8021e-10
0.00133546
3.3871e-10
0.00133546
3.82812e-10
0.00133546
4.13879e-10
0.00133546
4.36577e-10
0.00133546
4.52496e-10
0.00133546
4.60579e-10
0.00133546
4.59484e-10
0.00133546
4.47864e-10
0.00133546
4.24543e-10
0.00133546
3.8694e-10
0.00133546
3.30569e-10
0.00133546
2.50716e-10
0.00133546
1.43136e-10
0.00133546
3.561e-12
0.00133546
-1.64849e-10
0.00133546
-3.43316e-10
0.00133546
-4.93151e-10
0.00133546
-5.59831e-10
0.00133546
-5.04916e-10
0.00133546
-3.51314e-10
0.00133546
-2.05168e-10
0.00133546
-1.65265e-10
0.00133546
-2.3009e-10
0.00133546
-3.43589e-10
0.00133546
-4.39207e-10
0.00133546
-4.70982e-10
0.00133546
-4.38385e-10
0.00133546
-3.72792e-10
0.00133546
-2.92571e-10
0.00133546
-2.08301e-10
0.00133546
-1.25448e-10
0.00133546
-4.06205e-11
0.00133546
3.74959e-11
0.00133546
8.7939e-11
0.00133546
1.85448e-10
6.33469e-11
0.00128018
-3.42699e-11
0.00128018
7.3265e-11
0.00128018
2.05942e-10
0.00128018
2.93484e-10
0.00128018
3.61656e-10
0.00128018
4.10647e-10
0.00128018
4.44801e-10
0.00128018
4.70151e-10
0.00128018
4.88019e-10
0.00128018
4.97487e-10
0.00128018
4.97703e-10
0.00128018
4.87675e-10
0.00128018
4.66016e-10
0.00128018
4.29874e-10
0.00128018
3.74133e-10
0.00128018
2.93177e-10
0.00128018
1.81545e-10
0.00128018
3.30864e-11
0.00128018
-1.50438e-10
0.00128018
-3.4993e-10
0.00128018
-5.23817e-10
0.00128018
-6.11829e-10
0.00128018
-5.70426e-10
0.00128018
-4.23574e-10
0.00128018
-2.84274e-10
0.00128018
-2.51815e-10
0.00128018
-3.18672e-10
0.00128018
-4.27394e-10
0.00128018
-5.10252e-10
0.00128018
-5.2438e-10
0.00128018
-4.73232e-10
0.00128018
-3.93517e-10
0.00128018
-3.01901e-10
0.00128018
-2.12494e-10
0.00128018
-1.23846e-10
0.00128018
-3.77485e-11
0.00128018
4.952e-11
0.00128018
9.93528e-11
0.00128018
2.21351e-10
1.44926e-10
0.00122608
4.16657e-11
0.00122608
8.99057e-11
0.00122608
2.04265e-10
0.00122608
3.02674e-10
0.00122608
3.80333e-10
0.00122608
4.33352e-10
0.00122608
4.69976e-10
0.00122608
4.97634e-10
0.00122608
5.17342e-10
0.00122608
5.28183e-10
0.00122608
5.30067e-10
0.00122608
5.22264e-10
0.00122608
5.03374e-10
0.00122608
4.70265e-10
0.00122608
4.16905e-10
0.00122608
3.36738e-10
0.00122608
2.23215e-10
0.00122608
6.83358e-11
0.00122608
-1.27754e-10
0.00122608
-3.46171e-10
0.00122608
-5.43047e-10
0.00122608
-6.53421e-10
0.00122608
-6.29238e-10
0.00122608
-4.95393e-10
0.00122608
-3.69062e-10
0.00122608
-3.46688e-10
0.00122608
-4.14082e-10
0.00122608
-5.14042e-10
0.00122608
-5.79231e-10
0.00122608
-5.72819e-10
0.00122608
-5.01934e-10
0.00122608
-4.08037e-10
0.00122608
-3.05621e-10
0.00122608
-2.13612e-10
0.00122608
-1.19809e-10
0.00122608
-3.61362e-11
0.00122608
5.98518e-11
0.00122608
1.03674e-10
0.00122608
2.42452e-10
2.3363e-10
0.00117305
1.31685e-10
0.00117305
1.00831e-10
0.00117305
1.92797e-10
0.00117305
3.0498e-10
0.00117305
3.92832e-10
0.00117305
4.49364e-10
0.00117305
4.88053e-10
0.00117305
5.17713e-10
0.00117305
5.38981e-10
0.00117305
5.51262e-10
0.00117305
5.55329e-10
0.00117305
5.5065e-10
0.00117305
5.35738e-10
0.00117305
5.06914e-10
0.00117305
4.57242e-10
0.00117305
3.79439e-10
0.00117305
2.66102e-10
0.00117305
1.07524e-10
0.00117305
-9.79187e-11
0.00117305
-3.32177e-10