/*--------------------------------*- C++ -*----------------------------------*\
  =========                 |
  \\      /  F ield         | OpenFOAM: The Open Source CFD Toolbox
   \\    /   O peration     | Website:  https://openfoam.org
    \\  /    A nd           | Version:  dev
     \\/     M anipulation  |

   OpenFOAM for Windows 20.09 (v1)
   Built by CFD Support, www.cfdsupport.com (based on Symscape).
\*---------------------------------------------------------------------------*/
FoamFile
{
    version     2.0;
    format      ascii;
    class       volVectorField;
    location    "40";
    object      U;
}
// * * * * * * * * * * * * * * * * * * * * * * * * * * * * * * * * * * * * * //

dimensions      [0 1 -1 0 0 0 0];

internalField   nonuniform List<vector> 
1600
(
(0.103489 8.40821e-09 0)
(0.103489 -1.65026e-08 0)
(0.103489 -9.2707e-10 0)
(0.103489 4.89336e-10 0)
(0.103489 7.09938e-10 0)
(0.103489 3.40066e-09 0)
(0.103489 7.11832e-09 0)
(0.103489 1.18544e-08 0)
(0.103489 1.6884e-08 0)
(0.103489 2.06803e-08 0)
(0.103489 2.23471e-08 0)
(0.103489 2.20117e-08 0)
(0.103489 2.0416e-08 0)
(0.103489 1.81886e-08 0)
(0.10349 1.56997e-08 0)
(0.10349 1.33878e-08 0)
(0.10349 1.13033e-08 0)
(0.10349 9.3176e-09 0)
(0.10349 8.38932e-09 0)
(0.10349 1.01052e-08 0)
(0.10349 1.14638e-08 0)
(0.10349 7.65774e-09 0)
(0.10349 -1.06241e-08 0)
(0.103489 -3.9159e-08 0)
(0.103489 -5.75253e-08 0)
(0.103489 -5.83792e-08 0)
(0.103489 -4.80215e-08 0)
(0.103489 -3.10755e-08 0)
(0.103489 -1.41873e-08 0)
(0.103489 -1.51435e-09 0)
(0.103489 3.7402e-09 0)
(0.103489 4.44921e-09 0)
(0.103489 2.80345e-09 0)
(0.103489 9.7668e-10 0)
(0.103489 1.54374e-09 0)
(0.103489 -2.21459e-09 0)
(0.103489 3.70605e-09 0)
(0.103489 -7.42163e-09 0)
(0.103489 6.2859e-09 0)
(0.103489 3.87377e-08 0)
(0.111388 -4.52357e-08 0)
(0.111388 -1.93822e-08 0)
(0.111388 1.6197e-09 0)
(0.111388 -6.31032e-09 0)
(0.111388 -1.50178e-08 0)
(0.111388 -2.02816e-08 0)
(0.111388 -2.58039e-08 0)
(0.111388 -3.19612e-08 0)
(0.111388 -3.73788e-08 0)
(0.111388 -4.12122e-08 0)
(0.111388 -4.30575e-08 0)
(0.111388 -4.28414e-08 0)
(0.111388 -4.08132e-08 0)
(0.111388 -3.73859e-08 0)
(0.111388 -3.29992e-08 0)
(0.111388 -2.79968e-08 0)
(0.111388 -2.24305e-08 0)
(0.111388 -1.58387e-08 0)
(0.111388 -7.58919e-09 0)
(0.111388 2.96572e-09 0)
(0.111388 1.53087e-08 0)
(0.111388 2.84419e-08 0)
(0.111388 4.54244e-08 0)
(0.111388 6.47364e-08 0)
(0.111388 7.74798e-08 0)
(0.111388 7.93725e-08 0)
(0.111388 7.19358e-08 0)
(0.111388 5.88485e-08 0)
(0.111388 4.34094e-08 0)
(0.111388 2.97138e-08 0)
(0.111388 1.79607e-08 0)
(0.111388 1.0674e-08 0)
(0.111388 4.44988e-09 0)
(0.111388 1.88904e-09 0)
(0.111388 -1.34563e-09 0)
(0.111388 -3.39038e-09 0)
(0.111388 -2.70909e-09 0)
(0.111388 -1.24029e-08 0)
(0.111388 -1.08178e-09 0)
(0.111388 -1.67164e-08 0)
(0.115689 -4.15901e-08 0)
(0.115689 -1.47704e-08 0)
(0.115689 -5.73056e-10 0)
(0.115689 -9.38526e-09 0)
(0.115689 -1.80749e-08 0)
(0.115689 -2.31167e-08 0)
(0.115689 -2.74788e-08 0)
(0.115689 -3.13646e-08 0)
(0.115689 -3.41632e-08 0)
(0.115689 -3.59262e-08 0)
(0.115689 -3.67563e-08 0)
(0.115689 -3.65351e-08 0)
(0.115689 -3.51192e-08 0)
(0.115689 -3.2519e-08 0)
(0.115689 -2.89065e-08 0)
(0.115689 -2.4334e-08 0)
(0.115689 -1.86732e-08 0)
(0.115689 -1.13006e-08 0)
(0.115689 -1.55003e-09 0)
(0.115689 9.80483e-09 0)
(0.115689 2.35798e-08 0)
(0.115689 3.7213e-08 0)
(0.115689 4.70264e-08 0)
(0.115689 5.14844e-08 0)
(0.115689 5.29063e-08 0)
(0.115689 5.32992e-08 0)
(0.115689 5.19279e-08 0)
(0.115689 4.84697e-08 0)
(0.115689 4.17037e-08 0)
(0.115689 3.31743e-08 0)
(0.115689 2.28406e-08 0)
(0.115689 1.50678e-08 0)
(0.115689 7.38911e-09 0)
(0.115689 3.82697e-09 0)
(0.115689 -1.20561e-09 0)
(0.115689 -3.21968e-09 0)
(0.115689 -5.33126e-09 0)
(0.115689 -1.17524e-08 0)
(0.115689 6.63351e-10 0)
(0.115689 -1.91596e-08 0)
(0.118634 -3.94533e-08 0)
(0.118634 -1.33533e-08 0)
(0.118634 -3.44271e-09 0)
(0.118634 -1.22674e-08 0)
(0.118634 -2.05547e-08 0)
(0.118634 -2.56656e-08 0)
(0.118634 -2.98274e-08 0)
(0.118634 -3.33259e-08 0)
(0.118634 -3.58435e-08 0)
(0.118634 -3.74732e-08 0)
(0.118634 -3.82851e-08 0)
(0.118634 -3.8139e-08 0)
(0.118634 -3.68475e-08 0)
(0.118634 -3.43388e-08 0)
(0.118634 -3.06886e-08 0)
(0.118634 -2.58523e-08 0)
(0.118634 -1.95927e-08 0)
(0.118634 -1.13172e-08 0)
(0.118634 -3.90697e-10 0)
(0.118634 1.3424e-08 0)
(0.118634 2.8677e-08 0)
(0.118634 4.24887e-08 0)
(0.118634 5.12213e-08 0)
(0.118634 5.38143e-08 0)
(0.118634 5.3027e-08 0)
(0.118634 5.22131e-08 0)
(0.118634 5.13208e-08 0)
(0.118634 4.9668e-08 0)
(0.118634 4.51074e-08 0)
(0.118634 3.79077e-08 0)
(0.118634 2.76702e-08 0)
(0.118634 1.89657e-08 0)
(0.118634 1.01063e-08 0)
(0.118634 5.40607e-09 0)
(0.118634 -9.25104e-10 0)
(0.118634 -3.07934e-09 0)
(0.118634 -7.56061e-09 0)
(0.118634 -1.05485e-08 0)
(0.118634 -4.05349e-09 0)
(0.118634 -2.87603e-08 0)
(0.120881 -3.49678e-08 0)
(0.120881 -1.2232e-08 0)
(0.120881 -6.6835e-09 0)
(0.120881 -1.48076e-08 0)
(0.120881 -2.24035e-08 0)
(0.120881 -2.74212e-08 0)
(0.120881 -3.13893e-08 0)
(0.120881 -3.46138e-08 0)
(0.120881 -3.69303e-08 0)
(0.120881 -3.843e-08 0)
(0.120881 -3.91711e-08 0)
(0.120881 -3.90296e-08 0)
(0.120881 -3.78091e-08 0)
(0.120881 -3.53813e-08 0)
(0.120881 -3.17254e-08 0)
(0.120881 -2.67003e-08 0)
(0.120881 -1.99744e-08 0)
(0.120881 -1.09005e-08 0)
(0.120881 1.15566e-09 0)
(0.120881 1.61384e-08 0)
(0.120881 3.2101e-08 0)
(0.120881 4.59434e-08 0)
(0.120881 5.41729e-08 0)
(0.120881 5.55692e-08 0)
(0.120881 5.29342e-08 0)
(0.120881 5.07847e-08 0)
(0.120881 5.00142e-08 0)
(0.120881 4.95848e-08 0)
(0.120881 4.67308e-08 0)
(0.120881 4.0727e-08 0)
(0.120881 3.09468e-08 0)
(0.120881 2.17568e-08 0)
(0.120881 1.23097e-08 0)
(0.120881 6.67206e-09 0)
(0.120881 -3.6646e-10 0)
(0.120881 -3.07085e-09 0)
(0.120881 -8.93026e-09 0)
(0.120881 -1.00112e-08 0)
(0.120881 -9.97166e-09 0)
(0.120881 -3.45537e-08 0)
(0.1227 -2.92403e-08 0)
(0.1227 -1.21111e-08 0)
(0.1227 -9.6544e-09 0)
(0.1227 -1.67331e-08 0)
(0.1227 -2.34794e-08 0)
(0.1227 -2.82031e-08 0)
(0.1227 -3.18103e-08 0)
(0.1227 -3.45858e-08 0)
(0.1227 -3.64872e-08 0)
(0.1227 -3.76529e-08 0)
(0.1227 -3.8171e-08 0)
(0.1227 -3.79524e-08 0)
(0.1227 -3.67971e-08 0)
(0.1227 -3.45195e-08 0)
(0.1227 -3.09942e-08 0)
(0.1227 -2.5979e-08 0)
(0.1227 -1.90548e-08 0)
(0.1227 -9.56457e-09 0)
(0.1227 3.02621e-09 0)
(0.1227 1.83362e-08 0)
(0.1227 3.4319e-08 0)
(0.1227 4.76963e-08 0)
(0.1227 5.49222e-08 0)
(0.1227 5.46169e-08 0)
(0.1227 4.9885e-08 0)
(0.1227 4.63244e-08 0)
(0.1227 4.56579e-08 0)
(0.1227 4.65161e-08 0)
(0.1227 4.56069e-08 0)
(0.1227 4.12517e-08 0)
(0.1227 3.25314e-08 0)
(0.1227 2.34464e-08 0)
(0.1227 1.40152e-08 0)
(0.1227 7.63953e-09 0)
(0.1227 3.33762e-10 0)
(0.1227 -3.06169e-09 0)
(0.1227 -9.49762e-09 0)
(0.1227 -1.00794e-08 0)
(0.1227 -1.5064e-08 0)
(0.1227 -3.53678e-08 0)
(0.124226 -2.31853e-08 0)
(0.124226 -1.18031e-08 0)
(0.124226 -1.19712e-08 0)
(0.124226 -1.80468e-08 0)
(0.124226 -2.39034e-08 0)
(0.124226 -2.81782e-08 0)
(0.124226 -3.12881e-08 0)
(0.124226 -3.34823e-08 0)
(0.124226 -3.48335e-08 0)
(0.124226 -3.55486e-08 0)
(0.124226 -3.57541e-08 0)
(0.124226 -3.54003e-08 0)
(0.124226 -3.42897e-08 0)
(0.124226 -3.21873e-08 0)
(0.124226 -2.88724e-08 0)
(0.124226 -2.40135e-08 0)
(0.124226 -1.71317e-08 0)
(0.124226 -7.60541e-09 0)
(0.124226 4.97234e-09 0)
(0.124226 2.00326e-08 0)
(0.124226 3.54278e-08 0)
(0.124226 4.77672e-08 0)
(0.124226 5.35124e-08 0)
(0.124226 5.13833e-08 0)
(0.124226 4.47462e-08 0)
(0.124226 3.99076e-08 0)
(0.124226 3.93092e-08 0)
(0.124226 4.1376e-08 0)
(0.124226 4.24386e-08 0)
(0.124226 3.9943e-08 0)
(0.124226 3.27052e-08 0)
(0.124226 2.41911e-08 0)
(0.124226 1.51045e-08 0)
(0.124226 8.31394e-09 0)
(0.124226 1.0723e-09 0)
(0.124226 -3.01626e-09 0)
(0.124226 -9.43686e-09 0)
(0.124226 -1.04186e-08 0)
(0.124226 -1.86102e-08 0)
(0.124226 -3.32201e-08 0)
(0.125532 -1.71494e-08 0)
(0.125532 -1.13793e-08 0)
(0.125532 -1.36915e-08 0)
(0.125532 -1.88478e-08 0)
(0.125532 -2.38205e-08 0)
(0.125532 -2.75609e-08 0)
(0.125532 -3.01325e-08 0)
(0.125532 -3.17216e-08 0)
(0.125532 -3.24979e-08 0)
(0.125532 -3.27435e-08 0)
(0.125532 -3.26016e-08 0)
(0.125532 -3.20707e-08 0)
(0.125532 -3.09612e-08 0)
(0.125532 -2.90062e-08 0)
(0.125532 -2.59126e-08 0)
(0.125532 -2.12817e-08 0)
(0.125532 -1.46083e-08 0)
(0.125532 -5.32641e-09 0)
(0.125532 6.85229e-09 0)
(0.125532 2.12168e-08 0)
(0.125532 3.55658e-08 0)
(0.125532 4.65135e-08 0)
(0.125532 5.06457e-08 0)
(0.125532 4.6854e-08 0)
(0.125532 3.86311e-08 0)
(0.125532 3.2678e-08 0)
(0.125532 3.20322e-08 0)
(0.125532 3.50629e-08 0)
(0.125532 3.79095e-08 0)
(0.125532 3.72636e-08 0)
(0.125532 3.16719e-08 0)
(0.125532 2.40444e-08 0)
(0.125532 1.56256e-08 0)
(0.125532 8.74312e-09 0)
(0.125532 1.76813e-09 0)
(0.125532 -2.89021e-09 0)
(0.125532 -8.98449e-09 0)
(0.125532 -1.07123e-08 0)
(0.125532 -2.03391e-08 0)
(0.125532 -2.88451e-08 0)
(0.126662 -1.14444e-08 0)
(0.126662 -1.06898e-08 0)
(0.126662 -1.46557e-08 0)
(0.126662 -1.90351e-08 0)
(0.126662 -2.32182e-08 0)
(0.126662 -2.64525e-08 0)
(0.126662 -2.84929e-08 0)
(0.126662 -2.95285e-08 0)
(0.126662 -2.98138e-08 0)
(0.126662 -2.96266e-08 0)
(0.126662 -2.91587e-08 0)
(0.126662 -2.8429e-08 0)
(0.126662 -2.72763e-08 0)
(0.126662 -2.54191e-08 0)
(0.126662 -2.25195e-08 0)
(0.126662 -1.81423e-08 0)
(0.126662 -1.17849e-08 0)
(0.126662 -2.94312e-09 0)
(0.126662 8.55648e-09 0)
(0.126662 2.18992e-08 0)
(0.126662 3.48972e-08 0)
(0.126662 4.42808e-08 0)
(0.126662 4.68355e-08 0)
(0.126662 4.16294e-08 0)
(0.126662 3.21572e-08 0)
(0.126662 2.52782e-08 0)
(0.126662 2.44772e-08 0)
(0.126662 2.82098e-08 0)
(0.126662 3.24907e-08 0)
(0.126662 3.3547e-08 0)
(0.126662 2.96415e-08 0)
(0.126662 2.31387e-08 0)
(0.126662 1.55662e-08 0)
(0.126662 8.86762e-09 0)
(0.126662 2.33768e-09 0)
(0.126662 -2.63947e-09 0)
(0.126662 -8.24552e-09 0)
(0.126662 -1.07199e-08 0)
(0.126662 -2.03459e-08 0)
(0.126662 -2.32316e-08 0)
(0.127646 -6.33602e-09 0)
(0.127646 -9.43121e-09 0)
(0.127646 -1.47003e-08 0)
(0.127646 -1.85066e-08 0)
(0.127646 -2.20311e-08 0)
(0.127646 -2.47757e-08 0)
(0.127646 -2.64131e-08 0)
(0.127646 -2.70557e-08 0)
(0.127646 -2.6958e-08 0)
(0.127646 -2.64504e-08 0)
(0.127646 -2.56911e-08 0)
(0.127646 -2.4773e-08 0)
(0.127646 -2.35479e-08 0)
(0.127646 -2.17396e-08 0)
(0.127646 -1.89966e-08 0)
(0.127646 -1.48826e-08 0)
(0.127646 -8.90847e-09 0)
(0.127646 -6.40488e-10 0)
(0.127646 9.98596e-09 0)
(0.127646 2.2094e-08 0)
(0.127646 3.35648e-08 0)
(0.127646 4.13287e-08 0)
(0.127646 4.24192e-08 0)
(0.127646 3.60657e-08 0)
(0.127646 2.5702e-08 0)
(0.127646 1.81345e-08 0)
(0.127646 1.71143e-08 0)
(0.127646 2.12499e-08 0)
(0.127646 2.66092e-08 0)
(0.127646 2.90883e-08 0)
(0.127646 2.68317e-08 0)
(0.127646 2.15505e-08 0)
(0.127646 1.49785e-08 0)
(0.127646 8.77487e-09 0)
(0.127646 2.75427e-09 0)
(0.127646 -2.31836e-09 0)
(0.127646 -7.3518e-09 0)
(0.127646 -1.03178e-08 0)
(0.127646 -1.90228e-08 0)
(0.127646 -1.74001e-08 0)
(0.128504 -1.96516e-09 0)
(0.128504 -7.70544e-09 0)
(0.128504 -1.38405e-08 0)
(0.128504 -1.72147e-08 0)
(0.128504 -2.02165e-08 0)
(0.128504 -2.26291e-08 0)
(0.128504 -2.39611e-08 0)
(0.128503 -2.43204e-08 0)
(0.128503 -2.40178e-08 0)
(0.128503 -2.33014e-08 0)
(0.128503 -2.23486e-08 0)
(0.128503 -2.12765e-08 0)
(0.128503 -1.99727e-08 0)
(0.128503 -1.8186e-08 0)
(0.128503 -1.55874e-08 0)
(0.128503 -1.1735e-08 0)
(0.128503 -6.17949e-09 0)
(0.128503 1.42441e-09 0)
(0.128503 1.10624e-08 0)
(0.128503 2.18145e-08 0)
(0.128503 3.1682e-08 0)
(0.128503 3.7851e-08 0)
(0.128503 3.76367e-08 0)
(0.128503 3.04465e-08 0)
(0.128503 1.95693e-08 0)
(0.128503 1.15653e-08 0)
(0.128503 1.03018e-08 0)
(0.128504 1.45679e-08 0)
(0.128504 2.05975e-08 0)
(0.128504 2.42353e-08 0)
(0.128504 2.34467e-08 0)
(0.128504 1.94472e-08 0)
(0.128504 1.39637e-08 0)
(0.128504 8.35717e-09 0)
(0.128504 2.97911e-09 0)
(0.128504 -1.92676e-09 0)
(0.128504 -6.3897e-09 0)
(0.128504 -9.49453e-09 0)
(0.128504 -1.67657e-08 0)
(0.128504 -1.19259e-08 0)
(0.12925 1.62561e-09 0)
(0.12925 -5.60885e-09 0)
(0.12925 -1.21961e-08 0)
(0.12925 -1.52944e-08 0)
(0.12925 -1.79121e-08 0)
(0.12925 -2.00369e-08 0)
(0.12925 -2.11931e-08 0)
(0.12925 -2.14648e-08 0)
(0.12925 -2.10736e-08 0)
(0.12925 -2.02457e-08 0)
(0.12925 -1.91887e-08 0)
(0.12925 -1.80143e-08 0)
(0.12925 -1.66502e-08 0)
(0.12925 -1.48941e-08 0)
(0.12925 -1.24235e-08 0)
(0.12925 -8.83044e-09 0)
(0.12925 -3.73305e-09 0)
(0.12925 3.15632e-09 0)
(0.12925 1.17319e-08 0)
(0.12925 2.1079e-08 0)
(0.12925 2.93481e-08 0)
(0.12925 3.40123e-08 0)
(0.12925 3.27129e-08 0)
(0.12925 2.49993e-08 0)
(0.12925 1.39731e-08 0)
(0.12925 5.81191e-09 0)
(0.12925 4.30925e-09 0)
(0.12925 8.46501e-09 0)
(0.12925 1.47808e-08 0)
(0.12925 1.92575e-08 0)
(0.12925 1.9714e-08 0)
(0.12925 1.69397e-08 0)
(0.12925 1.25605e-08 0)
(0.12925 7.70521e-09 0)
(0.12925 3.00762e-09 0)
(0.12925 -1.53298e-09 0)
(0.12925 -5.36017e-09 0)
(0.12925 -8.35581e-09 0)
(0.12925 -1.40384e-08 0)
(0.12925 -7.15223e-09 0)
(0.129896 4.40875e-09 0)
(0.129896 -3.39641e-09 0)
(0.129896 -1.01336e-08 0)
(0.129896 -1.30044e-08 0)
(0.129896 -1.52993e-08 0)
(0.129896 -1.72175e-08 0)
(0.129896 -1.82841e-08 0)
(0.129896 -1.85103e-08 0)
(0.129896 -1.81042e-08 0)
(0.129896 -1.72771e-08 0)
(0.129896 -1.61851e-08 0)
(0.129896 -1.49735e-08 0)
(0.129896 -1.35993e-08 0)
(0.129896 -1.18885e-08 0)
(0.129896 -9.5571e-09 0)
(0.129896 -6.25429e-09 0)
(0.129896 -1.64128e-09 0)
(0.129896 4.49123e-09 0)
(0.129896 1.19745e-08 0)
(0.129896 1.99198e-08 0)
(0.129896 2.66563e-08 0)
(0.129896 2.99651e-08 0)
(0.129896 2.78126e-08 0)
(0.129896 1.99006e-08 0)
(0.129896 9.09041e-09 0)
(0.129896 1.03435e-09 0)
(0.129896 -6.75304e-10 0)
(0.129896 3.15939e-09 0)
(0.129896 9.43286e-09 0)
(0.129896 1.43727e-08 0)
(0.129896 1.58302e-08 0)
(0.129896 1.4225e-08 0)
(0.129896 1.08798e-08 0)
(0.129896 6.82263e-09 0)
(0.129896 2.85217e-09 0)
(0.129896 -1.15409e-09 0)
(0.129896 -4.37124e-09 0)
(0.129896 -7.0299e-09 0)
(0.129896 -1.10834e-08 0)
(0.129896 -3.18259e-09 0)
(0.130451 6.39326e-09 0)
(0.130451 -1.29557e-09 0)
(0.130451 -7.96082e-09 0)
(0.130451 -1.06073e-08 0)
(0.130451 -1.25862e-08 0)
(0.130451 -1.42994e-08 0)
(0.130451 -1.52766e-08 0)
(0.130451 -1.551e-08 0)
(0.130451 -1.51626e-08 0)
(0.130451 -1.43655e-08 0)
(0.130451 -1.33012e-08 0)
(0.130451 -1.21154e-08 0)
(0.130451 -1.07803e-08 0)
(0.130451 -9.1586e-09 0)
(0.130451 -7.00975e-09 0)
(0.130451 -4.02602e-09 0)
(0.130451 7.08546e-11 0)
(0.130451 5.4124e-09 0)
(0.130451 1.17907e-08 0)
(0.130451 1.83765e-08 0)
(0.130451 2.36926e-08 0)
(0.130451 2.58317e-08 0)
(0.130451 2.30928e-08 0)
(0.130451 1.52937e-08 0)
(0.130451 5.02764e-09 0)
(0.130451 -2.66996e-09 0)
(0.130451 -4.54196e-09 0)
(0.130451 -1.18436e-09 0)
(0.130451 4.72732e-09 0)
(0.130451 9.81019e-09 0)
(0.130451 1.20235e-08 0)
(0.130451 1.13825e-08 0)
(0.130451 8.98783e-09 0)
(0.130451 5.77656e-09 0)
(0.130451 2.52458e-09 0)
(0.130451 -8.59182e-10 0)
(0.130451 -3.46819e-09 0)
(0.130451 -5.6183e-09 0)
(0.130451 -8.23841e-09 0)
(0.130451 -1.68029e-10 0)
(0.130922 7.51346e-09 0)
(0.130922 3.30343e-10 0)
(0.130922 -5.92713e-09 0)
(0.130922 -8.25073e-09 0)
(0.130922 -9.89405e-09 0)
(0.130922 -1.13743e-08 0)
(0.130922 -1.22681e-08 0)
(0.130922 -1.25261e-08 0)
(0.130922 -1.22197e-08 0)
(0.130922 -1.14882e-08 0)
(0.130922 -1.05139e-08 0)
(0.130922 -9.40823e-09 0)
(0.130922 -8.16889e-09 0)
(0.130922 -6.68723e-09 0)
(0.130922 -4.76225e-09 0)
(0.130922 -2.13874e-09 0)
(0.130922 1.39237e-09 0)
(0.130922 5.90878e-09 0)
(0.130922 1.11921e-08 0)
(0.130922 1.64923e-08 0)
(0.130922 2.05349e-08 0)
(0.130922 2.17221e-08 0)
(0.130922 1.86638e-08 0)
(0.130922 1.12843e-08 0)
(0.130922 1.86371e-09 0)
(0.130922 -5.26821e-09 0)
(0.130922 -7.24856e-09 0)
(0.130922 -4.47756e-09 0)
(0.130922 8.16908e-10 0)
(0.130922 5.74842e-09 0)
(0.130922 8.39689e-09 0)
(0.130922 8.5269e-09 0)
(0.130922 6.99184e-09 0)
(0.130922 4.57457e-09 0)
(0.130922 2.04706e-09 0)
(0.130922 -6.74005e-10 0)
(0.130922 -2.68584e-09 0)
(0.130922 -4.26543e-09 0)
(0.130922 -5.72136e-09 0)
(0.130922 1.97452e-09 0)
(0.131312 7.75243e-09 0)
(0.131312 1.44369e-09 0)
(0.131312 -4.09589e-09 0)
(0.131312 -6.01897e-09 0)
(0.131312 -7.30761e-09 0)
(0.131312 -8.53621e-09 0)
(0.131312 -9.31939e-09 0)
(0.131312 -9.56044e-09 0)
(0.131312 -9.30591e-09 0)
(0.131312 -8.67842e-09 0)
(0.131312 -7.81958e-09 0)
(0.131312 -6.83656e-09 0)
(0.131312 -5.74499e-09 0)
(0.131312 -4.45491e-09 0)
(0.131312 -2.80625e-09 0)
(0.131312 -6.04966e-10 0)
(0.131312 2.30981e-09 0)
(0.131312 5.98545e-09 0)
(0.131312 1.02024e-08 0)
(0.131312 1.43125e-08 0)
(0.131312 1.72516e-08 0)
(0.131312 1.7719e-08 0)
(0.131312 1.462e-08 0)
(0.131312 7.94125e-09 0)
(0.131312 -3.89976e-10 0)
(0.131312 -6.77733e-09 0)
(0.131312 -8.803e-09 0)
(0.131312 -6.6926e-09 0)
(0.131312 -2.20745e-09 0)
(0.131312 2.27909e-09 0)
(0.131312 5.0699e-09 0)
(0.131312 5.75786e-09 0)
(0.131312 4.947e-09 0)
(0.131312 3.28758e-09 0)
(0.131312 1.421e-09 0)
(0.131312 -6.4017e-10 0)
(0.131312 -2.07354e-09 0)
(0.131312 -3.11015e-09 0)
(0.131312 -3.69828e-09 0)
(0.131312 3.18499e-09 0)
(0.131626 7.24182e-09 0)
(0.131626 2.0693e-09 0)
(0.131626 -2.516e-09 0)
(0.131626 -3.97987e-09 0)
(0.131626 -4.9094e-09 0)
(0.131626 -5.85602e-09 0)
(0.131626 -6.48324e-09 0)
(0.131626 -6.68051e-09 0)
(0.131626 -6.4773e-09 0)
(0.131626 -5.95123e-09 0)
(0.131626 -5.22553e-09 0)
(0.131626 -4.40529e-09 0)
(0.131626 -3.50302e-09 0)
(0.131626 -2.45867e-09 0)
(0.131626 -1.15035e-09 0)
(0.131626 5.74464e-10 0)
(0.131626 2.84069e-09 0)
(0.131626 5.6655e-09 0)
(0.131626 8.85549e-09 0)
(0.131626 1.18821e-08 0)
(0.131626 1.38968e-08 0)
(0.131626 1.38826e-08 0)
(0.131626 1.10058e-08 0)
(0.131626 5.27931e-09 0)
(0.131626 -1.75469e-09 0)
(0.131626 -7.25362e-09 0)
(0.131626 -9.26493e-09 0)
(0.131626 -7.85782e-09 0)
(0.131626 -4.33424e-09 0)
(0.131626 -5.37016e-10 0)
(0.131626 2.11953e-09 0)
(0.131626 3.15078e-09 0)
(0.131626 2.91697e-09 0)
(0.131626 1.9036e-09 0)
(0.131626 6.69528e-10 0)
(0.131626 -7.38512e-10 0)
(0.131626 -1.66483e-09 0)
(0.131626 -2.22664e-09 0)
(0.131626 -2.26078e-09 0)
(0.131626 3.5381e-09 0)
(0.131865 6.09752e-09 0)
(0.131865 2.24093e-09 0)
(0.131865 -1.19068e-09 0)
(0.131865 -2.15472e-09 0)
(0.131865 -2.7345e-09 0)
(0.131865 -3.38245e-09 0)
(0.131865 -3.82262e-09 0)
(0.131865 -3.95167e-09 0)
(0.131865 -3.76667e-09 0)
(0.131865 -3.33087e-09 0)
(0.131865 -2.75148e-09 0)
(0.131865 -2.11115e-09 0)
(0.131865 -1.43788e-09 0)
(0.131865 -6.87555e-10 0)
(0.131865 2.32025e-10 0)
(0.131865 1.43659e-09 0)
(0.131865 3.01845e-09 0)
(0.131865 4.98813e-09 0)
(0.131865 7.19504e-09 0)
(0.131865 9.24362e-09 0)
(0.131865 1.05059e-08 0)
(0.131865 1.02357e-08 0)
(0.131865 7.82337e-09 0)
(0.131865 3.27107e-09 0)
(0.131865 -2.29677e-09 0)
(0.131865 -6.79896e-09 0)
(0.131865 -8.74724e-09 0)
(0.131865 -8.06944e-09 0)
(0.131865 -5.62073e-09 0)
(0.131865 -2.70611e-09 0)
(0.131865 -4.27202e-10 0)
(0.131865 7.32828e-10 0)
(0.131865 9.27184e-10 0)
(0.131865 4.85718e-10 0)
(0.131865 -1.69467e-10 0)
(0.131865 -9.88193e-10 0)
(0.131865 -1.45311e-09 0)
(0.131865 -1.63725e-09 0)
(0.131865 -1.37908e-09 0)
(0.131865 3.18417e-09 0)
(0.132028 4.34926e-09 0)
(0.132028 2.04282e-09 0)
(0.132028 -3.52264e-11 0)
(0.132028 -4.91938e-10 0)
(0.132028 -7.66124e-10 0)
(0.132028 -1.12653e-09 0)
(0.132028 -1.36429e-09 0)
(0.132028 -1.38633e-09 0)
(0.132028 -1.19048e-09 0)
(0.132028 -8.27911e-10 0)
(0.132028 -3.84494e-10 0)
(0.132028 6.09527e-11 0)
(0.132028 4.80193e-10 0)
(0.132028 9.00246e-10 0)
(0.132028 1.38791e-09 0)
(0.132028 2.03007e-09 0)
(0.132028 2.89977e-09 0)
(0.132028 4.0121e-09 0)
(0.132028 5.27416e-09 0)
(0.132028 6.43528e-09 0)
(0.132028 7.09372e-09 0)
(0.132028 6.76251e-09 0)
(0.132028 5.02672e-09 0)
(0.132028 1.84006e-09 0)
(0.132028 -2.13063e-09 0)
(0.132028 -5.5657e-09 0)
(0.132028 -7.42277e-09 0)
(0.132028 -7.4951e-09 0)
(0.132028 -6.19762e-09 0)
(0.132028 -4.31265e-09 0)
(0.132028 -2.59271e-09 0)
(0.132028 -1.4823e-09 0)
(0.132028 -9.8915e-10 0)
(0.132028 -9.43753e-10 0)
(0.132028 -1.08305e-09 0)
(0.132028 -1.34682e-09 0)
(0.132028 -1.40711e-09 0)
(0.132028 -1.31285e-09 0)
(0.132028 -9.46264e-10 0)
(0.132028 2.20721e-09 0)
(0.132112 1.99486e-09 0)
(0.132112 1.53504e-09 0)
(0.132112 1.07183e-09 0)
(0.132112 1.08936e-09 0)
(0.132112 1.05055e-09 0)
(0.132112 9.53086e-10 0)
(0.132112 9.31909e-10 0)
(0.132112 1.04027e-09 0)
(0.132112 1.2755e-09 0)
(0.132112 1.59039e-09 0)
(0.132112 1.90715e-09 0)
(0.132112 2.15475e-09 0)
(0.132112 2.30257e-09 0)
(0.132112 2.36454e-09 0)
(0.132112 2.38767e-09 0)
(0.132112 2.43586e-09 0)
(0.132112 2.56882e-09 0)
(0.132112 2.81604e-09 0)
(0.132112 3.15466e-09 0)
(0.132112 3.48921e-09 0)
(0.132112 3.65046e-09 0)
(0.132112 3.40902e-09 0)
(0.132112 2.52029e-09 0)
(0.132112 8.51338e-10 0)
(0.132112 -1.42807e-09 0)
(0.132112 -3.76245e-09 0)
(0.132112 -5.5279e-09 0)
(0.132112 -6.37285e-09 0)
(0.132112 -6.27493e-09 0)
(0.132112 -5.50163e-09 0)
(0.132112 -4.46191e-09 0)
(0.132112 -3.51858e-09 0)
(0.132112 -2.82315e-09 0)
(0.132112 -2.36149e-09 0)
(0.132112 -2.02091e-09 0)
(0.132112 -1.77243e-09 0)
(0.132112 -1.47768e-09 0)
(0.132112 -1.17945e-09 0)
(0.132112 -7.95626e-10 0)
(0.132112 7.4082e-10 0)
(0.132112 -7.23153e-10 0)
(0.132112 8.11402e-10 0)
(0.132112 2.13745e-09 0)
(0.132112 2.60411e-09 0)
(0.132112 2.76056e-09 0)
(0.132112 2.91115e-09 0)
(0.132112 3.11003e-09 0)
(0.132112 3.36188e-09 0)
(0.132112 3.65438e-09 0)
(0.132112 3.93901e-09 0)
(0.132112 4.14333e-09 0)
(0.132112 4.1994e-09 0)
(0.132112 4.07411e-09 0)
(0.132112 3.77052e-09 0)
(0.132112 3.31746e-09 0)
(0.132112 2.75818e-09 0)
(0.132112 2.14333e-09 0)
(0.132112 1.52248e-09 0)
(0.132112 9.48761e-10 0)
(0.132112 4.86913e-10 0)
(0.132112 2.0632e-10 0)
(0.132112 1.37822e-10 0)
(0.132112 1.93066e-10 0)
(0.132112 1.23324e-10 0)
(0.132112 -4.39282e-10 0)
(0.132112 -1.70095e-09 0)
(0.132112 -3.41052e-09 0)
(0.132112 -5.04445e-09 0)
(0.132112 -6.14116e-09 0)
(0.132112 -6.47409e-09 0)
(0.132112 -6.12913e-09 0)
(0.132112 -5.39644e-09 0)
(0.132112 -4.55178e-09 0)
(0.132112 -3.71899e-09 0)
(0.132112 -2.93696e-09 0)
(0.132112 -2.20778e-09 0)
(0.132112 -1.58619e-09 0)
(0.132112 -1.12857e-09 0)
(0.132112 -7.61325e-10 0)
(0.132112 -9.56438e-10 0)
(0.132028 -3.26623e-09 0)
(0.132028 1.08972e-10 0)
(0.132028 3.08756e-09 0)
(0.132028 4.02956e-09 0)
(0.132028 4.40287e-09 0)
(0.132028 4.79943e-09 0)
(0.132028 5.21254e-09 0)
(0.132028 5.60371e-09 0)
(0.132028 5.95587e-09 0)
(0.132028 6.22015e-09 0)
(0.132028 6.32724e-09 0)
(0.132028 6.20915e-09 0)
(0.132028 5.82768e-09 0)
(0.132028 5.17598e-09 0)
(0.132028 4.26293e-09 0)
(0.132028 3.11206e-09 0)
(0.132028 1.76528e-09 0)
(0.132028 2.91307e-10 0)
(0.132028 -1.18424e-09 0)
(0.132028 -2.44009e-09 0)
(0.132028 -3.16695e-09 0)
(0.132028 -3.0678e-09 0)
(0.132028 -2.07682e-09 0)
(0.132028 -5.74924e-10 0)
(0.132028 5.06795e-10 0)
(0.132028 2.16363e-10 0)
(0.132028 -1.50512e-09 0)
(0.132028 -3.92188e-09 0)
(0.132028 -6.13216e-09 0)
(0.132028 -7.45654e-09 0)
(0.132028 -7.70263e-09 0)
(0.132028 -7.1342e-09 0)
(0.132028 -6.14675e-09 0)
(0.132028 -4.96524e-09 0)
(0.132028 -3.77459e-09 0)
(0.132028 -2.58495e-09 0)
(0.132028 -1.64999e-09 0)
(0.132028 -1.0499e-09 0)
(0.132028 -7.35661e-10 0)
(0.132028 -2.5849e-09 0)
(0.131865 -5.35921e-09 0)
(0.131865 -4.35852e-10 0)
(0.131865 3.94644e-09 0)
(0.131865 5.40317e-09 0)
(0.131865 6.04458e-09 0)
(0.131865 6.69007e-09 0)
(0.131865 7.29875e-09 0)
(0.131865 7.81414e-09 0)
(0.131865 8.21516e-09 0)
(0.131865 8.46445e-09 0)
(0.131865 8.49046e-09 0)
(0.131865 8.2187e-09 0)
(0.131865 7.60871e-09 0)
(0.131865 6.63971e-09 0)
(0.131865 5.30249e-09 0)
(0.131865 3.59365e-09 0)
(0.131865 1.54589e-09 0)
(0.131865 -7.60664e-10 0)
(0.131865 -3.13868e-09 0)
(0.131865 -5.21976e-09 0)
(0.131865 -6.45529e-09 0)
(0.131865 -6.2705e-09 0)
(0.131865 -4.43349e-09 0)
(0.131865 -1.46112e-09 0)
(0.131865 1.13395e-09 0)
(0.131865 1.67329e-09 0)
(0.131865 -1.39927e-10 0)
(0.131865 -3.31344e-09 0)
(0.131865 -6.50842e-09 0)
(0.131865 -8.63213e-09 0)
(0.131865 -9.29934e-09 0)
(0.131865 -8.78685e-09 0)
(0.131865 -7.61468e-09 0)
(0.131865 -6.08961e-09 0)
(0.131865 -4.49362e-09 0)
(0.131865 -2.84698e-09 0)
(0.131865 -1.59463e-09 0)
(0.131865 -8.28008e-10 0)
(0.131865 -5.47325e-10 0)
(0.131865 -3.87999e-09 0)
(0.131626 -6.97551e-09 0)
(0.131626 -7.9137e-10 0)
(0.131626 4.82333e-09 0)
(0.131626 6.79522e-09 0)
(0.131626 7.73929e-09 0)
(0.131626 8.63012e-09 0)
(0.131626 9.41886e-09 0)
(0.131626 1.00341e-08 0)
(0.131626 1.04767e-08 0)
(0.131626 1.07161e-08 0)
(0.131626 1.06727e-08 0)
(0.131626 1.02706e-08 0)
(0.131626 9.46423e-09 0)
(0.131626 8.22049e-09 0)
(0.131626 6.49806e-09 0)
(0.131626 4.27363e-09 0)
(0.131626 1.55955e-09 0)
(0.131626 -1.56353e-09 0)
(0.131626 -4.86158e-09 0)
(0.131626 -7.83118e-09 0)
(0.131626 -9.68466e-09 0)
(0.131626 -9.55078e-09 0)
(0.131626 -7.00726e-09 0)
(0.131626 -2.70049e-09 0)
(0.131626 1.25207e-09 0)
(0.131626 2.46723e-09 0)
(0.131626 4.86433e-10 0)
(0.131626 -3.40035e-09 0)
(0.131626 -7.42431e-09 0)
(0.131626 -1.01232e-08 0)
(0.131626 -1.09989e-08 0)
(0.131626 -1.04068e-08 0)
(0.131626 -8.98633e-09 0)
(0.131626 -7.08763e-09 0)
(0.131626 -5.08761e-09 0)
(0.131626 -2.98208e-09 0)
(0.131626 -1.38449e-09 0)
(0.131626 -3.96374e-10 0)
(0.131626 -3.21746e-12 0)
(0.131626 -4.67229e-09 0)
(0.131312 -8.04408e-09 0)
(0.131312 -7.09142e-10 0)
(0.131312 5.75828e-09 0)
(0.131312 8.23278e-09 0)
(0.131312 9.49812e-09 0)
(0.131312 1.06319e-08 0)
(0.131312 1.15708e-08 0)
(0.131312 1.22746e-08 0)
(0.131312 1.27578e-08 0)
(0.131312 1.29884e-08 0)
(0.131312 1.28939e-08 0)
(0.131312 1.23891e-08 0)
(0.131312 1.1424e-08 0)
(0.131312 9.94554e-09 0)
(0.131312 7.89047e-09 0)
(0.131312 5.19774e-09 0)
(0.131312 1.85752e-09 0)
(0.131312 -2.06471e-09 0)
(0.131312 -6.30623e-09 0)
(0.131312 -1.02433e-08 0)
(0.131312 -1.28513e-08 0)
(0.131312 -1.29412e-08 0)
(0.131312 -9.86902e-09 0)
(0.131312 -4.39744e-09 0)
(0.131312 7.31712e-10 0)
(0.131312 2.46325e-09 0)
(0.131312 2.55487e-10 0)
(0.131312 -4.27596e-09 0)
(0.131312 -8.93909e-09 0)
(0.131312 -1.19794e-08 0)
(0.131312 -1.2843e-08 0)
(0.131312 -1.20158e-08 0)
(0.131312 -1.02763e-08 0)
(0.131312 -7.97302e-09 0)
(0.131312 -5.56388e-09 0)
(0.131312 -2.97964e-09 0)
(0.131312 -9.98641e-10 0)
(0.131312 2.64758e-10 0)
(0.131312 9.90518e-10 0)
(0.131312 -4.83952e-09 0)
(0.130922 -8.59767e-09 0)
(0.130922 -3.13037e-10 0)
(0.130922 6.9518e-09 0)
(0.130922 9.73041e-09 0)
(0.130922 1.13202e-08 0)
(0.130922 1.26666e-08 0)
(0.130922 1.37433e-08 0)
(0.130922 1.45231e-08 0)
(0.130922 1.5042e-08 0)
(0.130922 1.52874e-08 0)
(0.130922 1.51586e-08 0)
(0.130922 1.4582e-08 0)
(0.130922 1.34942e-08 0)
(0.130922 1.18301e-08 0)
(0.130922 9.49555e-09 0)
(0.130922 6.38887e-09 0)
(0.130922 2.47119e-09 0)
(0.130922 -2.22596e-09 0)
(0.130922 -7.42944e-09 0)
(0.130922 -1.2412e-08 0)
(0.130922 -1.59182e-08 0)
(0.130922 -1.64229e-08 0)
(0.130922 -1.30258e-08 0)
(0.130922 -6.5922e-09 0)
(0.130922 -4.9815e-10 0)
(0.130922 1.58773e-09 0)
(0.130922 -8.79781e-10 0)
(0.130922 -5.95239e-09 0)
(0.130922 -1.10502e-08 0)
(0.130922 -1.41789e-08 0)
(0.130922 -1.48051e-08 0)
(0.130922 -1.36212e-08 0)
(0.130922 -1.14832e-08 0)
(0.130922 -8.73531e-09 0)
(0.130922 -5.91484e-09 0)
(0.130922 -2.84889e-09 0)
(0.130922 -4.6544e-10 0)
(0.130922 1.12087e-09 0)
(0.130922 2.37764e-09 0)
(0.130922 -4.4136e-09 0)
(0.130452 -8.55888e-09 0)
(0.130452 4.85516e-10 0)
(0.130452 8.19377e-09 0)
(0.130452 1.12175e-08 0)
(0.130452 1.312e-08 0)
(0.130452 1.46975e-08 0)
(0.130452 1.58935e-08 0)
(0.130452 1.67421e-08 0)
(0.130452 1.73245e-08 0)
(0.130452 1.75907e-08 0)
(0.130452 1.74566e-08 0)
(0.130452 1.68292e-08 0)
(0.130452 1.56611e-08 0)
(0.130452 1.38681e-08 0)
(0.130452 1.13057e-08 0)
(0.130452 7.84965e-09 0)
(0.130452 3.41256e-09 0)
(0.130452 -2.02255e-09 0)
(0.130452 -8.19115e-09 0)
(0.130452 -1.42807e-08 0)
(0.130452 -1.88171e-08 0)
(0.130452 -1.9927e-08 0)
(0.130452 -1.64261e-08 0)
(0.130452 -9.26933e-09 0)
(0.130452 -2.45308e-09 0)
(0.130452 -1.78002e-10 0)
(0.130452 -2.9107e-09 0)
(0.130452 -8.37861e-09 0)
(0.130452 -1.36886e-08 0)
(0.130452 -1.6667e-08 0)
(0.130452 -1.68706e-08 0)
(0.130452 -1.51859e-08 0)
(0.130452 -1.25719e-08 0)
(0.130452 -9.38765e-09 0)
(0.130452 -6.13634e-09 0)
(0.130452 -2.62513e-09 0)
(0.130452 1.62089e-10 0)
(0.130452 2.08005e-09 0)
(0.130452 4.12274e-09 0)
(0.130452 -3.40919e-09 0)
(0.129897 -7.70977e-09 0)
(0.129897 1.37183e-09 0)
(0.129897 9.13043e-09 0)
(0.129897 1.254e-08 0)
(0.129897 1.48221e-08 0)
(0.129897 1.66237e-08 0)
(0.129897 1.79456e-08 0)
(0.129897 1.89032e-08 0)
(0.129897 1.95539e-08 0)
(0.129897 1.98611e-08 0)
(0.129897 1.9731e-08 0)
(0.129897 1.90996e-08 0)
(0.129897 1.79002e-08 0)
(0.129897 1.60169e-08 0)
(0.129897 1.32963e-08 0)
(0.129897 9.55932e-09 0)
(0.129897 4.67429e-09 0)
(0.129897 -1.44282e-09 0)
(0.129897 -8.55541e-09 0)
(0.129897 -1.57849e-08 0)
(0.129897 -2.14565e-08 0)
(0.129897 -2.33444e-08 0)
(0.129897 -1.99658e-08 0)
(0.129897 -1.23588e-08 0)
(0.129897 -5.09837e-09 0)
(0.129897 -2.80151e-09 0)
(0.129897 -5.77491e-09 0)
(0.129897 -1.14703e-08 0)
(0.129897 -1.67683e-08 0)
(0.129897 -1.93536e-08 0)
(0.129897 -1.89417e-08 0)
(0.129897 -1.66841e-08 0)
(0.129897 -1.35357e-08 0)
(0.129897 -9.89274e-09 0)
(0.129897 -6.27059e-09 0)
(0.129897 -2.37997e-09 0)
(0.129897 8.51232e-10 0)
(0.129897 3.08759e-09 0)
(0.129897 6.15416e-09 0)
(0.129897 -1.48036e-09 0)
(0.12925 -6.05457e-09 0)
(0.12925 2.26611e-09 0)
(0.12925 9.90889e-09 0)
(0.12925 1.36388e-08 0)
(0.12925 1.63148e-08 0)
(0.12925 1.83724e-08 0)
(0.12925 1.98565e-08 0)
(0.12925 2.09232e-08 0)
(0.12925 2.16619e-08 0)
(0.12925 2.20214e-08 0)
(0.12925 2.19366e-08 0)
(0.12925 2.13336e-08 0)
(0.12925 2.01308e-08 0)
(0.12925 1.82241e-08 0)
(0.12925 1.54138e-08 0)
(0.12925 1.14783e-08 0)
(0.12925 6.23279e-09 0)
(0.12925 -4.87937e-10 0)
(0.12925 -8.4939e-09 0)
(0.12925 -1.68608e-08 0)
(0.12925 -2.37301e-08 0)
(0.12925 -2.65389e-08 0)
(0.12925 -2.3514e-08 0)
(0.12925 -1.57585e-08 0)
(0.12925 -8.35577e-09 0)
(0.12925 -6.20227e-09 0)
(0.12925 -9.37181e-09 0)
(0.12925 -1.51229e-08 0)
(0.12925 -2.01514e-08 0)
(0.12925 -2.21356e-08 0)
(0.12925 -2.09669e-08 0)
(0.12925 -1.80414e-08 0)
(0.12925 -1.43244e-08 0)
(0.12925 -1.02976e-08 0)