/*--------------------------------*- C++ -*----------------------------------*\
  =========                 |
  \\      /  F ield         | OpenFOAM: The Open Source CFD Toolbox
   \\    /   O peration     | Website:  https://openfoam.org
    \\  /    A nd           | Version:  dev
     \\/     M anipulation  |

   OpenFOAM for Windows 20.09 (v1)
   Built by CFD Support, www.cfdsupport.com (based on Symscape).
\*---------------------------------------------------------------------------*/
FoamFile
{
    version     2.0;
    format      ascii;
    class       surfaceScalarField;
    location    "8";
    object      alphaPhi0.water;
}
// * * * * * * * * * * * * * * * * * * * * * * * * * * * * * * * * * * * * * //

dimensions      [0 3 -1 0 0 0 0];

internalField   nonuniform List<scalar> 
217
(
2.97572e-82
4.96314e-87
2.86004e-82
7.79503e-87
2.616e-82
-2.053e-86
-9.88801e-87
2.79277e-82
1.50183e-84
2.85064e-89
1.60453e-84
5.87754e-89
1.46006e-84
-8.70419e-89
-4.15147e-89
1.4595e-84
6.61922e-87
1.19469e-91
6.8585e-87
2.15548e-91
6.31243e-87
-3.21653e-91
-1.50411e-91
6.31948e-87
2.68737e-89
4.61678e-94
2.69756e-89
8.39906e-94
2.41185e-89
-1.21561e-93
-5.45869e-94
2.4514e-89
1.06931e-91
1.69128e-96
1.06532e-91
3.3575e-96
9.48485e-92
-4.39893e-96
-1.85763e-96
9.57613e-92
4.12215e-94
5.94179e-99
4.07665e-94
1.27184e-98
3.61878e-94
-1.54365e-98
-6.26749e-99
3.63343e-94
1.5341e-96
1.95811e-101
1.51211e-96
4.64267e-101
1.34877e-96
-5.20406e-101
-2.02656e-101
1.35303e-96
5.42266e-99
6.00837e-104
5.3925e-99
1.58452e-103
4.86283e-99
-1.65335e-103
-6.43421e-104
4.91106e-99
1.8117e-101
1.69584e-106
1.81041e-101
4.88819e-106
1.6555e-101
-4.88155e-106
-1.90266e-106
1.69113e-101
5.66129e-104
4.25755e-109
5.65389e-104
1.35288e-108
5.25577e-104
-1.31541e-108
-5.26323e-109
5.44706e-104
1.62171e-106
9.16167e-112
1.61707e-106
3.27989e-111
1.52958e-106
-3.14968e-111
-1.28308e-111
1.61098e-106
4.13705e-109
1.64287e-114
4.27889e-109
6.8651e-114
4.00552e-109
-6.65495e-114
-2.76303e-114
4.29171e-109
9.3535e-112
2.61331e-117
9.90929e-112
1.23425e-116
9.30344e-112
-1.2082e-116
-5.08503e-117
1.00548e-111
1.8288e-114
3.39117e-120
1.99699e-114
1.89142e-119
1.87682e-114
-1.86151e-119
-8.02692e-120
2.03807e-114
3.21324e-117
3.44742e-117
3.24059e-117
3.54127e-117
2.73583e-82
6.07101e-87
2.79647e-82
3.12242e-87
3.13444e-82
6.28409e-87
-6.15895e-87
1.45044e-84
4.31319e-89
1.38396e-84
2.1601e-89
1.43091e-84
3.16664e-89
-3.29491e-89
6.36006e-87
1.58978e-91
6.11727e-87
8.85262e-92
6.25189e-87
1.10775e-91
-1.5604e-91
2.45134e-89
5.95507e-94
2.38558e-89
3.46617e-94
2.48767e-89
3.48537e-94
-7.14141e-94
9.524e-92
2.30909e-96
9.43547e-92
1.34052e-96
9.8832e-92
1.09632e-96
-3.06688e-96
3.57931e-94
8.38433e-99
3.58241e-94
5.14421e-99
3.76825e-94
3.27305e-99
-1.25199e-98
1.30619e-96
2.95319e-101
1.30086e-96
1.87046e-101
1.37086e-96
9.36172e-102
-4.7976e-101
4.66571e-99
9.87361e-104
4.57841e-99
6.86033e-104
4.80898e-99
2.77529e-104
-1.72254e-103
1.59505e-101
3.06237e-106
1.55268e-101
2.3291e-106
1.63767e-101
8.41593e-107
-5.57883e-106
5.13162e-104
8.56405e-109
4.9551e-104
7.41617e-109
5.18526e-104
2.59873e-109
-1.62245e-108
1.51948e-106
2.13512e-111
1.45603e-106
2.08147e-111
1.5127e-106
7.39744e-112
-4.13037e-111
4.07028e-109
4.64726e-114
3.80671e-109
5.08677e-114
3.96361e-109
1.94067e-114
-9.16093e-114
9.31648e-112
8.73257e-117
8.90111e-112
1.0428e-116
9.12029e-112
4.12053e-117
-1.70587e-116
1.93958e-114
1.32663e-119
1.85816e-114
1.91336e-119
1.79544e-114
7.82189e-120
-2.71775e-119
3.4978e-117
3.35607e-117
3.0572e-117
)
;

boundaryField
{
    topWall
    {
        type            calculated;
        value           nonuniform List<scalar> 0();
    }
    botWall
    {
        type            calculated;
        value           nonuniform List<scalar> 0();
    }
    inlet
    {
        type            cyclic;
        value           nonuniform List<scalar> 
15
(
-3.25214e-82
-1.42132e-84
-6.22824e-87
-2.53356e-89
-1.0067e-91
-3.8737e-94
-1.4321e-96
-5.08316e-99
-1.72216e-101
-5.42297e-104
-1.56016e-106
-4.00806e-109
-9.07843e-112
-1.76242e-114
-2.95434e-117
)
;
    }
    outlet
    {
        type            cyclic;
        value           nonuniform List<scalar> 
15
(
3.25214e-82
1.42132e-84
6.22824e-87
2.53356e-89
1.0067e-91
3.8737e-94
1.4321e-96
5.08316e-99
1.72216e-101
5.42297e-104
1.56016e-106
4.00806e-109
9.07843e-112
1.76242e-114
2.95434e-117
)
;
    }
    fixWall
    {
        type            empty;
        value           nonuniform List<scalar> 0();
    }
    procBoundary6to5
    {
        type            processor;
        value           nonuniform List<scalar> 8(-1.62073e-84 -2.51951e-84 3.64425e-84 1.86612e-84 -2.17135e-84 -1.04265e-84 -2.41914e-84 1.11709e-84);
    }
    procBoundary6to7
    {
        type            processor;
        value           nonuniform List<scalar> 8(3.66226e-123 8.05736e-121 -2.03505e-122 -9.02765e-123 1.46949e-122 2.80806e-121 1.18666e-122 -3.74583e-122);
    }
}


// ************************************************************************* //
