/*--------------------------------*- C++ -*----------------------------------*\
  =========                 |
  \\      /  F ield         | OpenFOAM: The Open Source CFD Toolbox
   \\    /   O peration     | Website:  https://openfoam.org
    \\  /    A nd           | Version:  dev
     \\/     M anipulation  |

   OpenFOAM for Windows 20.09 (v1)
   Built by CFD Support, www.cfdsupport.com (based on Symscape).
\*---------------------------------------------------------------------------*/
FoamFile
{
    version     2.0;
    format      ascii;
    class       volSymmTensorField;
    location    "8";
    object      devReff;
}
// * * * * * * * * * * * * * * * * * * * * * * * * * * * * * * * * * * * * * //

dimensions      [0 2 -2 0 0 0 0];

internalField   nonuniform List<symmTensor> 
120
(
(3.8997e-07 4.39862e-05 -0 -3.29017e-07 -0 -6.09535e-08)
(8.49859e-07 3.0867e-05 -0 -8.53205e-07 -0 3.34532e-09)
(5.42346e-08 3.62343e-05 -0 -3.97576e-08 -0 -1.4477e-08)
(1.65157e-07 4.60061e-05 -0 -1.38592e-07 -0 -2.65647e-08)
(1.79713e-07 9.79774e-05 -0 -1.74619e-07 -0 -5.09402e-09)
(7.24827e-07 8.43352e-05 -0 -7.94009e-07 -0 6.91823e-08)
(3.43891e-07 8.72786e-05 -0 -3.34266e-07 -0 -9.62471e-09)
(4.25319e-07 9.92214e-05 -0 -4.02109e-07 -0 -2.32104e-08)
(-3.80588e-08 0.000155079 -0 9.00623e-08 -0 -5.20035e-08)
(4.84392e-07 0.000144065 -0 -4.84354e-07 -0 -3.83588e-11)
(5.57741e-07 0.000146258 -0 -5.42719e-07 -0 -1.50223e-08)
(5.74228e-07 0.000157021 -0 -6.12722e-07 -0 3.8494e-08)
(-1.96994e-07 0.000216743 -0 2.47356e-07 -0 -5.03623e-08)
(3.9424e-07 0.000208245 -0 -4.32477e-07 -0 3.82368e-08)
(7.92614e-07 0.000209904 -0 -7.91999e-07 -0 -6.14968e-10)
(7.78162e-07 0.000218743 -0 -7.2972e-07 -0 -4.84417e-08)
(-2.53012e-07 0.000284834 -0 2.73532e-07 -0 -2.05198e-08)
(2.93229e-07 0.000278761 -0 -3.35894e-07 -0 4.26646e-08)
(9.30741e-07 0.000280754 -0 -9.31147e-07 -0 4.06072e-10)
(8.47397e-07 0.000287547 -0 -8.84308e-07 -0 3.69114e-08)
(-3.4527e-07 0.000360987 -0 3.86265e-07 -0 -4.09946e-08)
(2.16743e-07 0.000355763 -0 -2.19574e-07 -0 2.83155e-09)
(1.08767e-06 0.000358323 -0 -1.08186e-06 -0 -5.81291e-09)
(9.38443e-07 0.000362234 -0 -9.23081e-07 -0 -1.53622e-08)
(-4.23476e-07 0.000450498 -0 4.64226e-07 -0 -4.07501e-08)
(1.7674e-07 0.000442292 -0 -1.97884e-07 -0 2.11439e-08)
(1.1389e-06 0.000443511 -0 -1.1247e-06 -0 -1.41983e-08)
(7.20062e-07 0.000444714 -0 -7.30566e-07 -0 1.05038e-08)
(-4.83241e-07 0.00055522 -0 5.13417e-07 -0 -3.01755e-08)
(-8.02448e-09 0.00054337 -0 -9.25809e-09 -0 1.72826e-08)
(1.16696e-06 0.000540347 -0 -1.15303e-06 -0 -1.39279e-08)
(7.25403e-07 0.000541393 -0 -7.03271e-07 -0 -2.21316e-08)
(-5.26643e-07 0.00066808 -0 5.65239e-07 -0 -3.85966e-08)
(-3.2005e-07 0.00065458 -0 2.93547e-07 -0 2.65023e-08)
(1.09035e-06 0.000650274 -0 -1.08722e-06 -0 -3.12721e-09)
(5.05836e-07 0.000652177 -0 -5.1839e-07 -0 1.25542e-08)
(-5.55051e-07 0.000791541 -0 5.88766e-07 -0 -3.37148e-08)
(-6.0339e-07 0.000779894 -0 5.81592e-07 -0 2.17976e-08)
(1.10217e-06 0.000776872 -0 -1.09774e-06 -0 -4.42461e-09)
(4.88204e-07 0.000779852 -0 -4.75946e-07 -0 -1.22579e-08)
(-5.87823e-07 0.000934597 -0 6.16614e-07 -0 -2.87913e-08)
(-8.1787e-07 0.000923812 -0 7.94017e-07 -0 2.38527e-08)
(1.09075e-06 0.000921444 -0 -1.08408e-06 -0 -6.67209e-09)
(4.26195e-07 0.000926179 -0 -4.38653e-07 -0 1.2458e-08)
(-5.8706e-07 0.00109961 -0 6.25473e-07 -0 -3.84137e-08)
(-1.03314e-06 0.00109181 -0 9.96742e-07 -0 3.64028e-08)
(1.16239e-06 0.00109016 -0 -1.13442e-06 -0 -2.7968e-08)
(5.02559e-07 0.00109406 -0 -4.86835e-07 -0 -1.57239e-08)
(-5.66764e-07 0.00128872 -0 5.86576e-07 -0 -1.98121e-08)
(-1.14788e-06 0.00128621 -0 1.1334e-06 -0 1.44877e-08)
(1.17215e-06 0.00128521 -0 -1.16761e-06 -0 -4.54324e-09)
(5.04483e-07 0.00128592 -0 -5.10956e-07 -0 6.47312e-09)
(-3.88517e-07 0.00150557 -0 4.41702e-07 -0 -5.31851e-08)
(-1.16798e-06 0.00150597 -0 1.14412e-06 -0 2.38574e-08)
(1.18081e-06 0.0015057 -0 -1.17708e-06 -0 -3.7366e-09)
(5.18492e-07 0.00150429 -0 -5.09618e-07 -0 -8.87427e-09)
(-3.81526e-07 0.00175151 -0 3.87455e-07 -0 -5.92863e-09)
(-1.13228e-06 0.00175463 -0 1.10193e-06 -0 3.03542e-08)
(1.13137e-06 0.00175489 -0 -1.13877e-06 -0 7.39926e-09)
(4.8962e-07 0.00175175 -0 -4.91533e-07 -0 1.91319e-09)
(3.11494e-07 4.45442e-05 -0 -3.03204e-07 -0 -8.29004e-09)
(5.63859e-07 4.73911e-05 -0 -5.57366e-07 -0 -6.49371e-09)
(-8.81151e-07 4.27624e-05 -0 9.22882e-07 -0 -4.17312e-08)
(-1.6837e-06 4.37709e-05 -0 1.75882e-06 -0 -7.51142e-08)
(1.58217e-07 9.74317e-05 -0 -1.49777e-07 -0 -8.43961e-09)
(2.79413e-07 9.76826e-05 -0 -2.28143e-07 -0 -5.12698e-08)
(-7.45743e-07 9.55832e-05 -0 7.86506e-07 -0 -4.07632e-08)
(-1.37079e-06 9.7325e-05 -0 1.30672e-06 -0 6.40659e-08)
(3.01361e-07 0.000157434 -0 -3.38646e-07 -0 3.72855e-08)
(5.05481e-07 0.000157221 -0 -5.0666e-07 -0 1.17866e-09)
(-8.19416e-07 0.00015316 -0 7.88048e-07 -0 3.13681e-08)
(-1.46081e-06 0.00015389 -0 1.39715e-06 -0 6.36595e-08)
(1.73886e-07 0.000217982 -0 -1.79001e-07 -0 5.11543e-09)
(1.83597e-07 0.000216752 -0 -1.83598e-07 -0 1.77303e-13)
(-9.12408e-07 0.000214618 -0 1.00945e-06 -0 -9.70397e-08)
(-1.37152e-06 0.000215519 -0 1.37684e-06 -0 -5.31791e-09)
(1.86867e-07 0.000284409 -0 -1.80705e-07 -0 -6.16193e-09)
(3.28374e-07 0.000281926 -0 -2.69492e-07 -0 -5.88815e-08)
(-8.65805e-07 0.000281603 -0 8.40738e-07 -0 2.50665e-08)
(-1.3286e-06 0.000283374 -0 1.20889e-06 -0 1.19706e-07)
(5.77831e-09 0.000355141 -0 -3.49069e-08 -0 2.91285e-08)
(1.24356e-07 0.000350158 -0 -1.63571e-07 -0 3.92151e-08)
(-7.72544e-07 0.000354178 -0 7.79232e-07 -0 -6.68835e-09)
(-1.26423e-06 0.000360157 -0 1.27561e-06 -0 -1.13772e-08)
(-1.85459e-07 0.000437173 -0 1.56659e-07 -0 2.87999e-08)
(2.92594e-07 0.000436283 -0 -2.35107e-07 -0 -5.74863e-08)
(-5.85677e-07 0.000439416 -0 6.15238e-07 -0 -2.95608e-08)
(-1.17304e-06 0.000446649 -0 1.13085e-06 -0 4.21932e-08)
(-3.06404e-07 0.000533714 -0 3.0371e-07 -0 2.69449e-09)
(1.75904e-07 0.000531348 -0 -1.97047e-07 -0 2.11426e-08)
(-4.13798e-07 0.00053434 -0 4.08877e-07 -0 4.92087e-09)
(-8.32492e-07 0.000546429 -0 7.87996e-07 -0 4.44965e-08)
(-5.25153e-07 0.000642722 -0 4.96648e-07 -0 2.85048e-08)
(3.18651e-07 0.000641915 -0 -2.71594e-07 -0 -4.70575e-08)
(-8.24445e-08 0.000645196 -0 1.13118e-07 -0 -3.06731e-08)
(-4.73796e-07 0.000656537 -0 4.35154e-07 -0 3.86425e-08)
(-6.47398e-07 0.00077435 -0 6.39301e-07 -0 8.09712e-09)
(2.40995e-07 0.00077228 -0 -2.50054e-07 -0 9.05916e-09)
(6.57646e-08 0.000772171 -0 -6.12891e-08 -0 -4.47553e-09)
(-8.35158e-08 0.000781941 -0 5.98216e-08 -0 2.36942e-08)
(-7.84645e-07 0.000921849 -0 7.59203e-07 -0 2.54424e-08)
(2.49555e-07 0.000920502 -0 -2.11381e-07 -0 -3.8174e-08)
(2.46116e-07 0.000917992 -0 -2.20538e-07 -0 -2.55775e-08)
(1.82107e-07 0.00092456 -0 -2.23958e-07 -0 4.18507e-08)
(-8.4626e-07 0.00109257 -0 8.44105e-07 -0 2.15444e-09)
(9.0732e-08 0.00108986 -0 -8.33824e-08 -0 -7.34952e-09)
(2.04206e-07 0.00108549 -0 -2.01709e-07 -0 -2.49676e-09)
(4.87548e-07 0.00109139 -0 -5.21913e-07 -0 3.43648e-08)
(-9.26369e-07 0.00128536 -0 8.99207e-07 -0 2.71618e-08)
(1.69402e-08 0.00128285 -0 1.28203e-08 -0 -2.97605e-08)
(2.95882e-07 0.00127631 -0 -2.67975e-07 -0 -2.7907e-08)
(6.50471e-07 0.00127976 -0 -6.83281e-07 -0 3.28099e-08)
(-9.47879e-07 0.00150529 -0 9.42161e-07 -0 5.71773e-09)
(-1.99259e-07 0.00150054 -0 1.89644e-07 -0 9.61486e-09)
(1.18576e-07 0.00149589 -0 -1.32772e-07 -0 1.41959e-08)
(9.07542e-07 0.00150079 -0 -9.41743e-07 -0 3.42014e-08)
(-1.04583e-06 0.00175362 -0 1.01054e-06 -0 3.52875e-08)
(-2.93514e-07 0.00175061 -0 3.15643e-07 -0 -2.21285e-08)
(2.70906e-07 0.00174729 -0 -2.09068e-07 -0 -6.18385e-08)
(9.76225e-07 0.00174929 -0 -1.00613e-06 -0 2.99069e-08)
)
;

boundaryField
{
    topWall
    {
        type            calculated;
        value           nonuniform List<symmTensor> 0();
    }
    botWall
    {
        type            calculated;
        value           nonuniform List<symmTensor> 0();
    }
    inlet
    {
        type            cyclic;
    }
    outlet
    {
        type            cyclic;
    }
    fixWall
    {
        type            empty;
    }
    procBoundary6to5
    {
        type            processor;
        value           nonuniform List<symmTensor> 8((6.00701e-07 -8.60109e-06 -0 -5.82748e-07 -0 -1.79531e-08) (9.10969e-07 -1.80994e-05 -0 -9.02981e-07 -0 -7.98871e-09) (-1.94756e-07 -9.2572e-06 -0 2.30442e-07 -0 -3.56859e-08) (2.19935e-07 -3.81781e-06 -0 -2.73823e-07 -0 5.38877e-08) (2.35216e-07 -1.44826e-05 -0 -3.45588e-07 -0 1.10372e-07) (3.87913e-07 -1.09229e-05 -0 -3.81463e-07 -0 -6.45032e-09) (-5.26352e-07 -9.21615e-06 -0 4.68275e-07 -0 5.80768e-08) (-1.42759e-06 -8.18401e-06 -0 1.37581e-06 -0 5.17791e-08));
    }
    procBoundary6to7
    {
        type            processor;
        value           nonuniform List<symmTensor> 8((-2.14198e-07 0.00203068 -0 2.69989e-07 -0 -5.57904e-08) (-1.06042e-06 0.00203489 -0 1.03759e-06 -0 2.28318e-08) (1.09168e-06 0.00203563 -0 -1.09208e-06 -0 3.98466e-10) (4.8788e-07 0.00203098 -0 -4.87679e-07 -0 -2.00566e-10) (-9.82628e-07 0.0020339 -0 9.71659e-07 -0 1.09694e-08) (-4.20696e-07 0.00203099 -0 4.17246e-07 -0 3.44987e-09) (1.01042e-07 0.0020277 -0 -1.41359e-07 -0 4.03166e-08) (1.05571e-06 0.00203028 -0 -1.09211e-06 -0 3.63953e-08));
    }
}


// ************************************************************************* //
