/*--------------------------------*- C++ -*----------------------------------*\
  =========                 |
  \\      /  F ield         | OpenFOAM: The Open Source CFD Toolbox
   \\    /   O peration     | Website:  https://openfoam.org
    \\  /    A nd           | Version:  dev
     \\/     M anipulation  |

   OpenFOAM for Windows 20.09 (v1)
   Built by CFD Support, www.cfdsupport.com (based on Symscape).
\*---------------------------------------------------------------------------*/
FoamFile
{
    version     2.0;
    format      ascii;
    class       volScalarField;
    location    "8";
    object      epsilon;
}
// * * * * * * * * * * * * * * * * * * * * * * * * * * * * * * * * * * * * * //

dimensions      [0 2 -3 0 0 0 0];

internalField   nonuniform List<scalar> 
120
(
2.68556e-15
2.68532e-15
2.68093e-15
2.67894e-15
2.50436e-15
2.50437e-15
2.50021e-15
2.49851e-15
2.34209e-15
2.34238e-15
2.33846e-15
2.33698e-15
2.19638e-15
2.19704e-15
2.19333e-15
2.19203e-15
2.06537e-15
2.06654e-15
2.06301e-15
2.06183e-15
1.94762e-15
1.94949e-15
1.94611e-15
1.94501e-15
1.84315e-15
1.84492e-15
1.84166e-15
1.84063e-15
1.7507e-15
1.75228e-15
1.74915e-15
1.74817e-15
1.67006e-15
1.67151e-15
1.66853e-15
1.6676e-15
1.60172e-15
1.6031e-15
1.6003e-15
1.59941e-15
1.5469e-15
1.54826e-15
1.54567e-15
1.5448e-15
1.50776e-15
1.50914e-15
1.50683e-15
1.50592e-15
1.48781e-15
1.48926e-15
1.48728e-15
1.48629e-15
1.63152e-15
1.6315e-15
1.63183e-15
1.63173e-15
1.85922e-15
1.85924e-15
1.8596e-15
1.85946e-15
2.68223e-15
2.68442e-15
2.68266e-15
2.68256e-15
2.50135e-15
2.50355e-15
2.50225e-15
2.50187e-15
2.33945e-15
2.34163e-15
2.34069e-15
2.34013e-15
2.19416e-15
2.19633e-15
2.19566e-15
2.195e-15
2.06367e-15
2.06581e-15
2.06535e-15
2.06463e-15
1.94659e-15
1.94869e-15
1.94839e-15
1.94767e-15
1.842e-15
1.84405e-15
1.84386e-15
1.84315e-15
1.74937e-15
1.75137e-15
1.75123e-15
1.75054e-15
1.66867e-15
1.67058e-15
1.67046e-15
1.66979e-15
1.60038e-15
1.60219e-15
1.60206e-15
1.60138e-15
1.5457e-15
1.54739e-15
1.54722e-15
1.54654e-15
1.50677e-15
1.50831e-15
1.5081e-15
1.50743e-15
1.48708e-15
1.48846e-15
1.48818e-15
1.48758e-15
1.63159e-15
1.63151e-15
1.63147e-15
1.63181e-15
1.85935e-15
1.85927e-15
1.85923e-15
1.85957e-15
)
;

boundaryField
{
    topWall
    {
        type            epsilonWallFunction;
        value           nonuniform List<scalar> 0();
    }
    botWall
    {
        type            epsilonWallFunction;
        value           nonuniform List<scalar> 0();
    }
    inlet
    {
        type            cyclic;
    }
    outlet
    {
        type            cyclic;
    }
    fixWall
    {
        type            empty;
    }
    procBoundary6to5
    {
        type            processor;
        value           nonuniform List<scalar> 8(2.88878e-15 2.88831e-15 2.88368e-15 2.88138e-15 2.88518e-15 2.88734e-15 2.88499e-15 2.8853e-15);
    }
    procBoundary6to7
    {
        type            processor;
        value           nonuniform List<scalar> 8(2.13964e-15 2.13969e-15 2.14006e-15 2.1399e-15 2.13983e-15 2.13972e-15 2.13968e-15 2.14004e-15);
    }
}


// ************************************************************************* //
