/*--------------------------------*- C++ -*----------------------------------*\
  =========                 |
  \\      /  F ield         | OpenFOAM: The Open Source CFD Toolbox
   \\    /   O peration     | Website:  https://openfoam.org
    \\  /    A nd           | Version:  dev
     \\/     M anipulation  |

   OpenFOAM for Windows 20.09 (v1)
   Built by CFD Support, www.cfdsupport.com (based on Symscape).
\*---------------------------------------------------------------------------*/
FoamFile
{
    version     2.0;
    format      ascii;
    class       volVectorField;
    location    "8";
    object      gradp;
}
// * * * * * * * * * * * * * * * * * * * * * * * * * * * * * * * * * * * * * //

dimensions      [1 -2 -2 0 0 0 0];

internalField   nonuniform List<vector> 
120
(
(3.74799 -9.81184 0)
(-1.25165 -9.80902 0)
(-1.24761 -9.80955 0)
(-1.2469 -9.80924 0)
(3.74798 -9.81114 0)
(-1.25163 -9.80902 0)
(-1.24761 -9.8096 0)
(-1.2469 -9.8096 0)
(3.74797 -9.81065 0)
(-1.25162 -9.80889 0)
(-1.24762 -9.80963 0)
(-1.24691 -9.80979 0)
(3.74797 -9.81045 0)
(-1.25162 -9.80879 0)
(-1.24762 -9.80956 0)
(-1.24692 -9.80992 0)
(3.74797 -9.81032 0)
(-1.25161 -9.80863 0)
(-1.24764 -9.80941 0)
(-1.24693 -9.80997 0)
(3.74797 -9.81024 0)
(-1.2516 -9.80865 0)
(-1.24765 -9.8093 0)
(-1.24695 -9.80988 0)
(3.74796 -9.81026 0)
(-1.25159 -9.80884 0)
(-1.24766 -9.8093 0)
(-1.24697 -9.80985 0)
(3.74796 -9.81029 0)
(-1.25159 -9.80903 0)
(-1.24766 -9.80938 0)
(-1.24698 -9.80985 0)
(3.74795 -9.81031 0)
(-1.25158 -9.80916 0)
(-1.24767 -9.80945 0)
(-1.247 -9.80986 0)
(3.74794 -9.81033 0)
(-1.25157 -9.80922 0)
(-1.24768 -9.80951 0)
(-1.24702 -9.80982 0)
(3.74793 -9.81029 0)
(-1.25157 -9.80922 0)
(-1.24768 -9.80961 0)
(-1.24703 -9.80977 0)
(3.74792 -9.81024 0)
(-1.25156 -9.80915 0)
(-1.24768 -9.80979 0)
(-1.24704 -9.80976 0)
(3.74792 -9.81015 0)
(-1.25156 -9.80912 0)
(-1.24769 -9.80991 0)
(-1.24705 -9.80979 0)
(3.74791 -9.81009 0)
(-1.25156 -9.80918 0)
(-1.2477 -9.80983 0)
(-1.24706 -9.80983 0)
(3.74791 -9.80999 0)
(-1.25155 -9.80926 0)
(-1.2477 -9.80961 0)
(-1.24707 -9.8099 0)
(-1.24496 -9.81025 0)
(-1.24788 -9.81025 0)
(-1.25542 -9.81118 0)
(3.74643 -9.80726 0)
(-1.24497 -9.81045 0)
(-1.24789 -9.81081 0)
(-1.2554 -9.81099 0)
(3.74643 -9.8082 0)
(-1.24498 -9.81067 0)
(-1.24789 -9.81126 0)
(-1.25538 -9.8109 0)
(3.74643 -9.80855 0)
(-1.24499 -9.81091 0)
(-1.24789 -9.81147 0)
(-1.25535 -9.81104 0)
(3.74643 -9.80868 0)
(-1.245 -9.81124 0)
(-1.2479 -9.81168 0)
(-1.25533 -9.81118 0)
(3.74644 -9.80849 0)
(-1.24502 -9.81142 0)
(-1.24789 -9.81171 0)
(-1.2553 -9.811 0)
(3.74645 -9.80827 0)
(-1.24504 -9.8114 0)
(-1.24789 -9.81165 0)
(-1.25527 -9.81087 0)
(3.74645 -9.80827 0)
(-1.24505 -9.81137 0)
(-1.24788 -9.8116 0)
(-1.25524 -9.81073 0)
(3.74646 -9.80819 0)
(-1.24506 -9.81131 0)
(-1.24788 -9.81154 0)
(-1.25521 -9.81062 0)
(3.74646 -9.80813 0)
(-1.24508 -9.81123 0)
(-1.24787 -9.81152 0)
(-1.25519 -9.81057 0)
(3.74646 -9.80817 0)
(-1.24509 -9.81115 0)
(-1.24787 -9.8115 0)
(-1.25516 -9.81054 0)
(3.74646 -9.80825 0)
(-1.24511 -9.8111 0)
(-1.24786 -9.8115 0)
(-1.25513 -9.81051 0)
(3.74646 -9.80834 0)
(-1.24512 -9.81102 0)
(-1.24786 -9.81143 0)
(-1.25511 -9.81048 0)
(3.74647 -9.80848 0)
(-1.24514 -9.81089 0)
(-1.24785 -9.81125 0)
(-1.25508 -9.81045 0)
(3.74647 -9.80865 0)
(-1.24515 -9.81073 0)
(-1.24785 -9.81107 0)
(-1.25506 -9.81051 0)
(3.74647 -9.80885 0)
)
;

boundaryField
{
    topWall
    {
        type            extrapolatedCalculated;
        value           nonuniform List<vector> 0();
    }
    botWall
    {
        type            extrapolatedCalculated;
        value           nonuniform List<vector> 0();
    }
    inlet
    {
        type            cyclic;
    }
    outlet
    {
        type            cyclic;
    }
    fixWall
    {
        type            empty;
    }
    procBoundary6to5
    {
        type            processor;
        value           nonuniform List<vector> 8((3.748 -9.8126 0) (-1.25167 -9.80874 0) (-1.24761 -9.80946 0) (-1.24689 -9.80906 0) (-1.24495 -9.81045 0) (-1.24788 -9.80976 0) (-1.25545 -9.81181 0) (3.74644 -9.80626 0));
    }
    procBoundary6to7
    {
        type            processor;
        value           nonuniform List<vector> 8((3.74791 -9.80987 0) (-1.25155 -9.80935 0) (-1.24771 -9.80938 0) (-1.24708 -9.80997 0) (-1.24515 -9.81056 0) (-1.24785 -9.81093 0) (-1.25505 -9.81052 0) (3.74648 -9.80901 0));
    }
}


// ************************************************************************* //
