/*--------------------------------*- C++ -*----------------------------------*\
  =========                 |
  \\      /  F ield         | OpenFOAM: The Open Source CFD Toolbox
   \\    /   O peration     | Website:  https://openfoam.org
    \\  /    A nd           | Version:  dev
     \\/     M anipulation  |

   OpenFOAM for Windows 20.09 (v1)
   Built by CFD Support, www.cfdsupport.com (based on Symscape).
\*---------------------------------------------------------------------------*/
FoamFile
{
    version     2.0;
    format      ascii;
    class       volVectorField;
    location    "8";
    object      gradp_rgh;
}
// * * * * * * * * * * * * * * * * * * * * * * * * * * * * * * * * * * * * * //

dimensions      [1 -2 -2 0 0 0 0];

internalField   nonuniform List<vector> 
120
(
(-1.25201 -0.00184166 0)
(-1.25165 0.000983915 0)
(-1.24761 0.000453009 0)
(-1.2469 0.000764343 0)
(-1.25202 -0.00114193 0)
(-1.25163 0.00098025 0)
(-1.24761 0.000399122 0)
(-1.2469 0.000395754 0)
(-1.25203 -0.000648313 0)
(-1.25162 0.00110515 0)
(-1.24762 0.000372787 0)
(-1.24691 0.000213284 0)
(-1.25203 -0.000453668 0)
(-1.25162 0.00121098 0)
(-1.24762 0.000437945 0)
(-1.24692 7.798e-05 0)
(-1.25203 -0.000321354 0)
(-1.25161 0.00137283 0)
(-1.24764 0.000588673 0)
(-1.24693 2.84647e-05 0)
(-1.25203 -0.000237888 0)
(-1.2516 0.00135131 0)
(-1.24765 0.00070299 0)
(-1.24695 0.000116376 0)
(-1.25204 -0.000256836 0)
(-1.25159 0.00116165 0)
(-1.24766 0.000704049 0)
(-1.24697 0.000154856 0)
(-1.25204 -0.000287645 0)
(-1.25159 0.000970454 0)
(-1.24766 0.000622294 0)
(-1.24698 0.000145344 0)
(-1.25205 -0.000314005 0)
(-1.25158 0.000836861 0)
(-1.24767 0.000547838 0)
(-1.247 0.00014084 0)
(-1.25206 -0.000329426 0)
(-1.25157 0.000779927 0)
(-1.24768 0.000489986 0)
(-1.24702 0.000179809 0)
(-1.25207 -0.00029492 0)
(-1.25157 0.000783344 0)
(-1.24768 0.000388425 0)
(-1.24703 0.000225432 0)
(-1.25208 -0.000240187 0)
(-1.25156 0.000850197 0)
(-1.24768 0.00020828 0)
(-1.24704 0.00024098 0)
(-1.25208 -0.000154006 0)
(-1.25156 0.00087509 0)
(-1.24769 9.2122e-05 0)
(-1.24705 0.000212823 0)
(-1.25209 -9.06501e-05 0)
(-1.25156 0.000821548 0)
(-1.2477 0.00017006 0)
(-1.24706 0.000171524 0)
(-1.25209 6.92151e-06 0)
(-1.25155 0.000742018 0)
(-1.2477 0.000391844 0)
(-1.24707 9.57243e-05 0)
(-1.24496 -0.000249755 0)
(-1.24788 -0.000246361 0)
(-1.25542 -0.00117776 0)
(-1.25357 0.00273571 0)
(-1.24497 -0.000446372 0)
(-1.24789 -0.000814541 0)
(-1.2554 -0.000993576 0)
(-1.25357 0.00180138 0)
(-1.24498 -0.000672032 0)
(-1.24789 -0.00126417 0)
(-1.25538 -0.000896334 0)
(-1.25357 0.00145484 0)
(-1.24499 -0.000907079 0)
(-1.24789 -0.00146745 0)
(-1.25535 -0.00104374 0)
(-1.25357 0.00131719 0)
(-1.245 -0.00123524 0)
(-1.2479 -0.00168091 0)
(-1.25533 -0.00118188 0)
(-1.25356 0.00150645 0)
(-1.24502 -0.00142345 0)
(-1.24789 -0.00171087 0)
(-1.2553 -0.0010047 0)
(-1.25355 0.00172791 0)
(-1.24504 -0.00140332 0)
(-1.24789 -0.00165031 0)
(-1.25527 -0.000870085 0)
(-1.25355 0.00172608 0)
(-1.24505 -0.00136684 0)
(-1.24788 -0.00160445 0)
(-1.25524 -0.000730323 0)
(-1.25354 0.00180914 0)
(-1.24506 -0.00131105 0)
(-1.24788 -0.00154469 0)
(-1.25521 -0.000622553 0)
(-1.25354 0.00187227 0)
(-1.24508 -0.00122943 0)
(-1.24787 -0.00152226 0)
(-1.25519 -0.000573576 0)
(-1.25354 0.00183193 0)
(-1.24509 -0.00115448 0)
(-1.24787 -0.00149702 0)
(-1.25516 -0.000538345 0)
(-1.25354 0.00174979 0)
(-1.24511 -0.00109511 0)
(-1.24786 -0.00149659 0)
(-1.25513 -0.000507542 0)
(-1.25354 0.0016621 0)
(-1.24512 -0.00101579 0)
(-1.24786 -0.00142663 0)
(-1.25511 -0.000483563 0)
(-1.25353 0.00152256 0)
(-1.24514 -0.000893798 0)
(-1.24785 -0.0012548 0)
(-1.25508 -0.000447717 0)
(-1.25353 0.00134697 0)
(-1.24515 -0.000732712 0)
(-1.24785 -0.00107387 0)
(-1.25506 -0.000509557 0)
(-1.25353 0.00115107 0)
)
;

boundaryField
{
    topWall
    {
        type            extrapolatedCalculated;
        value           nonuniform List<vector> 0();
    }
    botWall
    {
        type            extrapolatedCalculated;
        value           nonuniform List<vector> 0();
    }
    inlet
    {
        type            cyclic;
    }
    outlet
    {
        type            cyclic;
    }
    fixWall
    {
        type            empty;
    }
    procBoundary6to5
    {
        type            processor;
        value           nonuniform List<vector> 8((-1.252 -0.00260302 0) (-1.25167 0.0012557 0) (-1.24761 0.000542231 0) (-1.24689 0.00094427 0) (-1.24495 -0.00044812 0) (-1.24788 0.000236629 0) (-1.25545 -0.00181451 0) (-1.25356 0.00374136 0));
    }
    procBoundary6to7
    {
        type            processor;
        value           nonuniform List<vector> 8((-1.25209 0.000126945 0) (-1.25155 0.000649642 0) (-1.24771 0.000619676 0) (-1.24708 2.79702e-05 0) (-1.24515 -0.000562057 0) (-1.24785 -0.000930991 0) (-1.25505 -0.000523295 0) (-1.25352 0.000991288 0));
    }
}


// ************************************************************************* //
