/*--------------------------------*- C++ -*----------------------------------*\
  =========                 |
  \\      /  F ield         | OpenFOAM: The Open Source CFD Toolbox
   \\    /   O peration     | Website:  https://openfoam.org
    \\  /    A nd           | Version:  dev
     \\/     M anipulation  |

   OpenFOAM for Windows 20.09 (v1)
   Built by CFD Support, www.cfdsupport.com (based on Symscape).
\*---------------------------------------------------------------------------*/
FoamFile
{
    version     2.0;
    format      ascii;
    class       volTensorField;
    location    "8";
    object      gradU;
}
// * * * * * * * * * * * * * * * * * * * * * * * * * * * * * * * * * * * * * //

dimensions      [0 0 -1 0 0 0 0];

internalField   nonuniform List<tensor> 
120
(
(-0.00119495 0.000320582 0 -0.233448 0.000710368 0 0 0 0)
(-0.00224326 -0.0006065 0 -0.162989 0.00226986 0 0 0 0)
(-0.000182086 -0.000461104 0 -0.191581 6.69937e-05 0 0 0 0)
(-0.000508061 0.000657171 0 -0.24449 0.000296872 0 0 0 0)
(-0.00048974 0.000383826 0 -0.519664 0.000449242 0 0 0 0)
(-0.00173746 -0.000606689 0 -0.44637 0.00228746 0 0 0 0)
(-0.000936817 -0.000484027 0 -0.462093 0.0008603 0 0 0 0)
(-0.0011886 0.000640859 0 -0.526514 0.00100408 0 0 0 0)
(-3.69536e-05 0.000413591 0 -0.82233 -0.000376475 0 0 0 0)
(-0.00128374 -0.000599649 0 -0.762944 0.00128344 0 0 0 0)
(-0.00151782 -0.000482494 0 -0.774687 0.0013984 0 0 0 0)
(-0.0014197 0.000649075 0 -0.832859 0.00172572 0 0 0 0)
(0.000388574 0.000464113 0 -1.1492 -0.000788954 0 0 0 0)
(-0.000943409 -0.000577108 0 -1.10312 0.00124739 0 0 0 0)
(-0.00210206 -0.000476655 0 -1.11202 0.00209717 0 0 0 0)
(-0.0021905 0.000634156 0 -1.15997 0.00180539 0 0 0 0)
(0.000616105 0.000495426 0 -1.51012 -0.000779238 0 0 0 0)
(-0.000663997 -0.000551547 0 -1.47688 0.00100318 0 0 0 0)
(-0.00246539 -0.000473194 0 -1.48752 0.00246862 0 0 0 0)
(-0.00214779 0.000622254 0 -1.52462 0.00244123 0 0 0 0)
(0.000806331 0.000528938 0 -1.91376 -0.00113224 0 0 0 0)
(-0.000566865 -0.000522977 0 -1.88502 0.000589376 0 0 0 0)
(-0.00289773 -0.000452688 0 -1.89866 0.00285151 0 0 0 0)
(-0.00252758 0.000600722 0 -1.92044 0.00240546 0 0 0 0)
(0.00101422 0.000562091 0 -2.3882 -0.00133819 0 0 0 0)
(-0.000412331 -0.000485151 0 -2.34366 0.000580425 0 0 0 0)
(-0.00305572 -0.000442926 0 -2.35016 0.00294284 0 0 0 0)
(-0.00188033 0.000577557 0 -2.35756 0.00196384 0 0 0 0)
(0.00120062 0.000586694 0 -2.94325 -0.00144052 0 0 0 0)
(6.70637e-05 -0.000451627 0 -2.87941 7.03328e-05 0 0 0 0)
(-0.00312934 -0.000429631 0 -2.86341 0.00301862 0 0 0 0)
(-0.00198097 0.000546027 0 -2.86993 0.00180502 0 0 0 0)
(0.00129332 0.000596101 0 -3.54142 -0.00160017 0 0 0 0)
(0.000918363 -0.000410832 0 -3.46886 -0.000707669 0 0 0 0)
(-0.00289771 -0.000414015 0 -3.44604 0.00287285 0 0 0 0)
(-0.0013072 0.000513952 0 -3.45705 0.001407 0 0 0 0)
(0.00138154 0.000592412 0 -4.19576 -0.00164957 0 0 0 0)
(0.00165675 -0.000377076 0 -4.13306 -0.00148346 0 0 0 0)
(-0.00293247 -0.000394386 0 -4.11703 0.00289729 0 0 0 0)
(-0.00132622 0.00047747 0 -4.13369 0.00122877 0 0 0 0)
(0.00148143 0.000572972 0 -4.95394 -0.00171033 0 0 0 0)
(0.00223057 -0.000335051 0 -4.89587 -0.00204094 0 0 0 0)
(-0.00290818 -0.000368811 0 -4.88329 0.00285514 0 0 0 0)
(-0.0010964 0.000437785 0 -4.90919 0.00119544 0 0 0 0)
(0.00145391 0.000546657 0 -5.8285 -0.0017593 0 0 0 0)
(0.0028343 -0.000300985 0 -5.78632 -0.0025449 0 0 0 0)
(-0.00315445 -0.000340447 0 -5.77751 0.0029321 0 0 0 0)
(-0.00137345 0.000397477 0 -5.79892 0.00124844 0 0 0 0)
(0.00144942 0.000505988 0 -6.83073 -0.00160693 0 0 0 0)
(0.00308029 -0.000256861 0 -6.81665 -0.00296511 0 0 0 0)
(-0.00311824 -0.000305588 0 -6.81129 0.00308212 0 0 0 0)
(-0.00131973 0.000351731 0 -6.81572 0.00137119 0 0 0 0)
(0.000888629 0.000465611 0 -7.97999 -0.00131145 0 0 0 0)
(0.00315836 -0.000222835 0 -7.98144 -0.00296869 0 0 0 0)
(-0.00313905 -0.000268175 0 -7.97995 0.00310935 0 0 0 0)
(-0.00139752 0.000307593 0 -7.97306 0.00132697 0 0 0 0)
(0.000995333 0.000413406 0 -9.28341 -0.00104247 0 0 0 0)
(0.00308099 -0.000183181 0 -9.29936 -0.00283968 0 0 0 0)
(-0.00297852 -0.000233994 0 -9.30068 0.00303734 0 0 0 0)
(-0.00129242 0.000258549 0 -9.28453 0.00130763 0 0 0 0)
(-0.000847427 0.000411243 0 -0.236496 0.000781522 0 0 0 0)
(-0.00151144 -3.51065e-05 0 -0.251138 0.00145981 0 0 0 0)
(0.00222446 -0.000270721 0 -0.22637 -0.00255622 0 0 0 0)
(0.00426276 -1.55644e-05 0 -0.23197 -0.00485992 0 0 0 0)
(-0.000441639 0.000402802 0 -0.516791 0.000374544 0 0 0 0)
(-0.000876308 -6.1176e-05 0 -0.517657 0.000468713 0 0 0 0)
(0.0018682 -0.000302601 0 -0.506289 -0.00219226 0 0 0 0)
(0.00380237 2.70061e-05 0 -0.51585 -0.00329305 0 0 0 0)
(-0.0006998 0.000402321 0 -0.834801 0.00099622 0 0 0 0)
(-0.0013364 -7.78866e-05 0 -0.833195 0.00134577 0 0 0 0)
(0.00225458 -0.000333417 0 -0.811414 -0.0020052 0 0 0 0)
(0.00403984 2.84607e-05 0 -0.815643 -0.00353374 0 0 0 0)
(-0.000447241 0.000396469 0 -1.1557 0.000487908 0 0 0 0)
(-0.000486533 -0.0001112 0 -1.14868 0.000486534 0 0 0 0)
(0.00216072 -0.000383927 0 -1.13709 -0.00293219 0 0 0 0)
(0.00362044 5.41516e-05 0 -1.1423 -0.00366272 0 0 0 0)
(-0.000511527 0.00038034 0 -1.50775 0.00046254 0 0 0 0)
(-0.00102623 -0.000134888 0 -1.49407 0.000558119 0 0 0 0)
(0.00236081 -0.000402572 0 -1.49209 -0.00216153 0 0 0 0)
(0.00383801 6.41813e-05 0 -1.50195 -0.00288634 0 0 0 0)
(6.18781e-05 0.000365084 0 -1.88261 0.000169694 0 0 0 0)
(-0.000225624 -0.000154934 0 -1.85568 0.000537384 0 0 0 0)
(0.00202952 -0.000441334 0 -1.8767 -0.00208269 0 0 0 0)
(0.00332007 7.71898e-05 0 -1.90891 -0.00341052 0 0 0 0)
(0.000567787 0.000349205 0 -2.31737 -0.000338828 0 0 0 0)
(-0.000927712 -0.000172428 0 -2.31213 0.000470696 0 0 0 0)
(0.00147371 -0.00046837 0 -2.32844 -0.00170872 0 0 0 0)
(0.00322037 8.00221e-05 0 -2.36732 -0.00288494 0 0 0 0)
(0.000819112 0.000340198 0 -2.82902 -0.000797691 0 0 0 0)
(-0.000410118 -0.000177766 0 -2.81597 0.000578202 0 0 0 0)
(0.00110961 -0.000497262 0 -2.83151 -0.00107048 0 0 0 0)
(0.00232402 8.33652e-05 0 -2.89616 -0.00197027 0 0 0 0)
(0.00146719 0.000328758 0 -3.40676 -0.00124058 0 0 0 0)
(-0.000969128 -0.000176974 0 -3.40197 0.000595021 0 0 0 0)
(0.000137194 -0.000510845 0 -3.41903 -0.000381045 0 0 0 0)
(0.00135796 7.38549e-05 0 -3.47972 -0.00105075 0 0 0 0)
(0.00173706 0.000326665 0 -4.10438 -0.00167269 0 0 0 0)
(-0.000614631 -0.00016344 0 -4.09292 0.000686651 0 0 0 0)
(-0.000186136 -0.000524691 0 -4.09198 0.000150556 0 0 0 0)
(0.000284107 6.30466e-05 0 -4.14435 -9.57374e-05 0 0 0 0)
(0.00214673 0.000319723 0 -4.88612 -0.00194447 0 0 0 0)
(-0.000762482 -0.000146587 0 -4.87851 0.000458999 0 0 0 0)
(-0.000719987 -0.000523884 0 -4.86484 0.000516646 0 0 0 0)
(-0.00037168 4.38528e-05 0 -4.90021 0.000704393 0 0 0 0)
(0.0022483 0.000314391 0 -5.79091 -0.00223117 0 0 0 0)
(-0.000259916 -0.000122422 0 -5.77611 0.000201487 0 0 0 0)
(-0.000547762 -0.000520601 0 -5.75259 0.000527913 0 0 0 0)
(-0.00120094 2.59304e-05 0 -5.7844 0.00147414 0 0 0 0)
(0.00252686 0.000302274 0 -6.81273 -0.00231092 0 0 0 0)
(-0.000123757 -0.000100602 0 -6.799 -0.000112839 0 0 0 0)
(-0.000858041 -0.000502674 0 -6.76393 0.000636181 0 0 0 0)
(-0.0016368 5.73253e-06 0 -6.78273 0.00189764 0 0 0 0)
(0.00252703 0.000289657 0 -7.97831 -0.00248157 0 0 0 0)
(0.000553515 -7.33032e-05 0 -7.95278 -0.000477077 0 0 0 0)
(-0.000276606 -0.000487093 0 -7.92774 0.000389464 0 0 0 0)
(-0.00231435 -1.14548e-05 0 -7.9542 0.00258625 0 0 0 0)
(0.00286496 0.000272206 0 -9.29443 -0.00258442 0 0 0 0)
(0.000719173 -5.27517e-05 0 -9.27817 -0.000895094 0 0 0 0)
(-0.000881774 -0.000451618 0 -9.2602 0.000390158 0 0 0 0)
(-0.00250774 -2.2616e-05 0 -9.27123 0.0027455 0 0 0 0)
)
;

boundaryField
{
    topWall
    {
        type            extrapolatedCalculated;
        value           nonuniform List<tensor> 0();
    }
    botWall
    {
        type            extrapolatedCalculated;
        value           nonuniform List<tensor> 0();
    }
    inlet
    {
        type            cyclic;
    }
    outlet
    {
        type            cyclic;
    }
    fixWall
    {
        type            empty;
    }
    procBoundary6to5
    {
        type            processor;
        value           nonuniform List<tensor> 8((-0.00163943 0.000264997 0 0.0453208 0.00149671 0 0 0 0) (-0.00243524 -0.000595966 0 0.0965229 0.00237173 0 0 0 0) (0.000421535 -0.000451143 0 0.0495143 -0.000705239 0 0 0 0) (-0.000440025 0.00062895 0 0.0196055 0.000868433 0 0 0 0) (-0.000330838 0.000383419 0 0.0763743 0.00120829 0 0 0 0) (-0.00104506 -5.54692e-06 0 0.0578972 0.000993784 0 0 0 0) (0.00154874 -0.000197273 0 0.0490429 -0.00108702 0 0 0 0) (0.00392033 -2.74371e-05 0 0.0434027 -0.00350868 0 0 0 0));
    }
    procBoundary6to7
    {
        type            processor;
        value           nonuniform List<tensor> 8((0.000419781 0.000372524 0 -10.763 -0.000863314 0 0 0 0) (0.00287062 -0.000154838 0 -10.7848 -0.0026891 0 0 0 0) (-0.00289189 -0.000199053 0 -10.7886 0.00289506 0 0 0 0) (-0.00129341 0.000213897 0 -10.7644 0.00129182 0 0 0 0) (0.00263303 0.000252945 0 -10.7799 -0.00254583 0 0 0 0) (0.00112399 -2.37269e-05 0 -10.7642 -0.00109656 0 0 0 0) (-0.000160923 -0.000426417 0 -10.7464 0.000481439 0 0 0 0) (-0.00270119 -3.53318e-05 0 -10.7604 0.00299053 0 0 0 0));
    }
}


// ************************************************************************* //
