/*--------------------------------*- C++ -*----------------------------------*\
  =========                 |
  \\      /  F ield         | OpenFOAM: The Open Source CFD Toolbox
   \\    /   O peration     | Website:  https://openfoam.org
    \\  /    A nd           | Version:  dev
     \\/     M anipulation  |

   OpenFOAM for Windows 20.09 (v1)
   Built by CFD Support, www.cfdsupport.com (based on Symscape).
\*---------------------------------------------------------------------------*/
FoamFile
{
    version     2.0;
    format      ascii;
    class       volScalarField;
    location    "8";
    object      k;
}
// * * * * * * * * * * * * * * * * * * * * * * * * * * * * * * * * * * * * * //

dimensions      [0 2 -2 0 0 0 0];

internalField   nonuniform List<scalar> 
120
(
1.1452e-15
1.14522e-15
1.14315e-15
1.14238e-15
1.00836e-15
1.00849e-15
1.00662e-15
1.00598e-15
8.86109e-16
8.86351e-16
8.84669e-16
8.84147e-16
7.77098e-16
7.77455e-16
7.75955e-16
7.7552e-16
6.80097e-16
6.80592e-16
6.79258e-16
6.78891e-16
5.94003e-16
5.94673e-16
5.93484e-16
5.93169e-16
5.18121e-16
5.18704e-16
5.17652e-16
5.17379e-16
4.51327e-16
4.5181e-16
4.50886e-16
4.50649e-16
3.92803e-16
3.93206e-16
3.92405e-16
3.92199e-16
3.41859e-16
3.42199e-16
3.41518e-16
3.41338e-16
2.97894e-16
2.98186e-16
2.9762e-16
2.97461e-16
2.60391e-16
2.60647e-16
2.6019e-16
2.60044e-16
2.28918e-16
2.29148e-16
2.28796e-16
2.28655e-16
2.22045e-16
2.22045e-16
2.22045e-16
2.22045e-16
2.22045e-16
2.22045e-16
2.22045e-16
2.22045e-16
1.14412e-15
1.14503e-15
1.14431e-15
1.14409e-15
1.00744e-15
1.00831e-15
1.00779e-15
1.00747e-15
8.85364e-16
8.86187e-16
8.85817e-16
8.85428e-16
7.7653e-16
7.77298e-16
7.77038e-16
7.76626e-16
6.79721e-16
6.80429e-16
6.80251e-16
6.79843e-16
5.93846e-16
5.9449e-16
5.94373e-16
5.93987e-16
5.17928e-16
5.1851e-16
5.18432e-16
5.1808e-16
4.51092e-16
4.5161e-16
4.51558e-16
4.51245e-16
3.92556e-16
3.93011e-16
3.92974e-16
3.92697e-16
3.41627e-16
3.4202e-16
3.41988e-16
3.41745e-16
2.97694e-16
2.98026e-16
2.97995e-16
2.97783e-16
2.60231e-16
2.60506e-16
2.60473e-16
2.60294e-16
2.28805e-16
2.29025e-16
2.28989e-16
2.28845e-16
2.22045e-16
2.22045e-16
2.22045e-16
2.22045e-16
2.22045e-16
2.22045e-16
2.22045e-16
2.22045e-16
)
;

boundaryField
{
    topWall
    {
        type            kqRWallFunction;
        value           nonuniform List<scalar> 0();
    }
    botWall
    {
        type            kqRWallFunction;
        value           nonuniform List<scalar> 0();
    }
    inlet
    {
        type            cyclic;
    }
    outlet
    {
        type            cyclic;
    }
    fixWall
    {
        type            empty;
    }
    procBoundary6to5
    {
        type            processor;
        value           nonuniform List<scalar> 8(1.29817e-15 1.29805e-15 1.29578e-15 1.29484e-15 1.2969e-15 1.29785e-15 1.29685e-15 1.29681e-15);
    }
    procBoundary6to7
    {
        type            processor;
        value           uniform 2.22045e-16;
    }
}


// ************************************************************************* //
