/*--------------------------------*- C++ -*----------------------------------*\
  =========                 |
  \\      /  F ield         | OpenFOAM: The Open Source CFD Toolbox
   \\    /   O peration     | Website:  https://openfoam.org
    \\  /    A nd           | Version:  dev
     \\/     M anipulation  |

   OpenFOAM for Windows 20.09 (v1)
   Built by CFD Support, www.cfdsupport.com (based on Symscape).
\*---------------------------------------------------------------------------*/
FoamFile
{
    version     2.0;
    format      ascii;
    class       volScalarField;
    location    "8";
    object      nut;
}
// * * * * * * * * * * * * * * * * * * * * * * * * * * * * * * * * * * * * * //

dimensions      [0 2 -1 0 0 0 0];

internalField   nonuniform List<scalar> 
120
(
4.39514e-17
4.39567e-17
4.38698e-17
4.38429e-17
3.65405e-17
3.65501e-17
3.64749e-17
3.64538e-17
3.01727e-17
3.01854e-17
3.01213e-17
3.01048e-17
2.47449e-17
2.47603e-17
2.47064e-17
2.46935e-17
2.01552e-17
2.01731e-17
2.01284e-17
2.01182e-17
1.63048e-17
1.63259e-17
1.6289e-17
1.62809e-17
1.31082e-17
1.31252e-17
1.30951e-17
1.30886e-17
1.04716e-17
1.04846e-17
1.04604e-17
1.04552e-17
8.31498e-18
8.32477e-18
8.30574e-18
8.30163e-18
6.56675e-18
6.57415e-18
6.55948e-18
6.55622e-18
5.16303e-18
5.16862e-18
5.15761e-18
5.15501e-18
4.04727e-18
4.05153e-18
4.04354e-18
4.04142e-18
3.16997e-18
3.17326e-18
3.16772e-18
3.16593e-18
2.71977e-18
2.71979e-18
2.71924e-18
2.71941e-18
2.38667e-18
2.38664e-18
2.38618e-18
2.38636e-18
4.39227e-17
4.39567e-17
4.393e-17
4.39151e-17
3.6518e-17
3.65491e-17
3.65304e-17
3.65122e-17
3.01559e-17
3.01838e-17
3.01708e-17
3.01515e-17
2.47337e-17
2.47582e-17
2.47493e-17
2.47305e-17
2.01495e-17
2.01706e-17
2.01645e-17
2.01473e-17
1.63048e-17
1.63226e-17
1.63186e-17
1.63036e-17
1.31067e-17
1.31215e-17
1.3119e-17
1.31062e-17
1.04687e-17
1.04808e-17
1.04792e-17
1.04687e-17
8.31144e-18
8.32121e-18
8.32018e-18
8.31181e-18
6.56332e-18
6.571e-18
6.5703e-18
6.56373e-18
5.16007e-18
5.16597e-18
5.16544e-18
5.16039e-18
4.04498e-18
4.04939e-18
4.04892e-18
4.04515e-18
3.16838e-18
3.17157e-18
3.17115e-18
3.16843e-18
2.71965e-18
2.71977e-18
2.71984e-18
2.71928e-18
2.3865e-18
2.38661e-18
2.38666e-18
2.38622e-18
)
;

boundaryField
{
    topWall
    {
        type            nutkWallFunction;
        Cmu             0.09;
        kappa           0.41;
        E               9.8;
        value           nonuniform List<scalar> 0();
    }
    botWall
    {
        type            nutkWallFunction;
        Cmu             0.09;
        kappa           0.41;
        E               9.8;
        value           nonuniform List<scalar> 0();
    }
    inlet
    {
        type            cyclic;
    }
    outlet
    {
        type            cyclic;
    }
    fixWall
    {
        type            empty;
    }
    procBoundary6to5
    {
        type            processor;
        value           nonuniform List<scalar> 8(5.25036e-17 5.25023e-17 5.24033e-17 5.23688e-17 5.24669e-17 5.25039e-17 5.24658e-17 5.24573e-17);
    }
    procBoundary6to7
    {
        type            processor;
        value           nonuniform List<scalar> 8(2.07388e-18 2.07382e-18 2.07347e-18 2.07363e-18 2.07369e-18 2.07379e-18 2.07383e-18 2.07349e-18);
    }
}


// ************************************************************************* //
