/*--------------------------------*- C++ -*----------------------------------*\
  =========                 |
  \\      /  F ield         | OpenFOAM: The Open Source CFD Toolbox
   \\    /   O peration     | Website:  https://openfoam.org
    \\  /    A nd           | Version:  dev
     \\/     M anipulation  |

   OpenFOAM for Windows 20.09 (v1)
   Built by CFD Support, www.cfdsupport.com (based on Symscape).
\*---------------------------------------------------------------------------*/
FoamFile
{
    version     2.0;
    format      ascii;
    class       volScalarField;
    location    "8";
    object      omega;
}
// * * * * * * * * * * * * * * * * * * * * * * * * * * * * * * * * * * * * * //

dimensions      [0 0 -1 0 0 0 0];

internalField   nonuniform List<scalar> 
120
(
26.0561
26.0534
26.0578
26.0562
27.5956
27.592
27.5975
27.5961
29.3679
29.3636
29.3702
29.3689
31.4043
31.3993
31.407
31.4058
33.743
33.7376
33.7462
33.745
36.4312
36.4252
36.4348
36.4335
39.5264
39.5198
39.5302
39.5289
43.1
43.0929
43.104
43.1026
47.2405
47.2332
47.245
47.2436
52.0591
52.0523
52.0648
52.0633
57.6976
57.6917
57.705
57.7032
64.3374
64.333
64.3472
64.3447
72.2147
72.2122
72.2274
72.2238
81.6411
81.6405
81.6568
81.6518
93.0353
93.0364
93.0542
93.0476
26.0485
26.049
26.0484
26.0523
27.5876
27.5879
27.5878
27.5926
29.3595
29.3597
29.3601
29.366
31.3956
31.3955
31.3964
31.4036
33.7339
33.7337
33.735
33.7436
36.4216
36.4212
36.4229
36.433
39.5164
39.516
39.5178
39.5294
43.0898
43.0894
43.091
43.104
47.2308
47.2301
47.2314
47.2456
52.051
52.0499
52.0506
52.0656
57.6918
57.6902
57.6901
57.7056
64.3345
64.3323
64.3315
64.3472
72.215
72.2121
72.2103
72.2266
81.6447
81.6409
81.6388
81.6556
93.0421
93.0378
93.0357
93.0529
)
;

boundaryField
{
    topWall
    {
        beta1           0.075;
        blended         0;
        type            omegaWallFunction;
        value           nonuniform List<scalar> 0();
    }
    botWall
    {
        beta1           0.075;
        blended         0;
        type            omegaWallFunction;
        value           nonuniform List<scalar> 0();
    }
    inlet
    {
        type            cyclic;
    }
    outlet
    {
        type            cyclic;
    }
    fixWall
    {
        type            empty;
    }
    procBoundary6to5
    {
        type            processor;
        value           nonuniform List<scalar> 8(24.7253 24.7236 24.7271 24.7253 24.7185 24.7191 24.718 24.7213);
    }
    procBoundary6to7
    {
        type            processor;
        value           nonuniform List<scalar> 8(107.067 107.07 107.089 107.08 107.077 107.072 107.07 107.087);
    }
}


// ************************************************************************* //
