/*--------------------------------*- C++ -*----------------------------------*\
  =========                 |
  \\      /  F ield         | OpenFOAM: The Open Source CFD Toolbox
   \\    /   O peration     | Website:  https://openfoam.org
    \\  /    A nd           | Version:  dev
     \\/     M anipulation  |

   OpenFOAM for Windows 20.09 (v1)
   Built by CFD Support, www.cfdsupport.com (based on Symscape).
\*---------------------------------------------------------------------------*/
FoamFile
{
    version     2.0;
    format      ascii;
    class       volScalarField;
    location    "8";
    object      p;
}
// * * * * * * * * * * * * * * * * * * * * * * * * * * * * * * * * * * * * * //

dimensions      [1 -1 -2 0 0 0 0];

internalField   nonuniform List<scalar> 
120
(
-5.13339
-5.19617
-5.25856
-5.32093
-5.14157
-5.20434
-5.26673
-5.3291
-5.14974
-5.21251
-5.27491
-5.33728
-5.15792
-5.22069
-5.28308
-5.34545
-5.16609
-5.22886
-5.29126
-5.35363
-5.17427
-5.23704
-5.29943
-5.3618
-5.18245
-5.24521
-5.3076
-5.36997
-5.19062
-5.25338
-5.31578
-5.37815
-5.1988
-5.26156
-5.32395
-5.38632
-5.20697
-5.26973
-5.33213
-5.3945
-5.21515
-5.27791
-5.3403
-5.40267
-5.22332
-5.28608
-5.34848
-5.41085
-5.2315
-5.29425
-5.35665
-5.41902
-5.23967
-5.30243
-5.36483
-5.4272
-5.24785
-5.3106
-5.373
-5.43537
-5.38325
-5.44542
-5.50804
-5.57096
-5.39142
-5.4536
-5.51621
-5.57914
-5.3996
-5.46177
-5.52439
-5.58731
-5.40777
-5.46995
-5.53256
-5.59548
-5.41595
-5.47813
-5.54074
-5.60366
-5.42413
-5.4863
-5.54891
-5.61183
-5.4323
-5.49448
-5.55709
-5.62001
-5.44048
-5.50265
-5.56527
-5.62818
-5.44865
-5.51083
-5.57344
-5.63635
-5.45683
-5.51901
-5.58162
-5.64453
-5.46501
-5.52718
-5.58979
-5.6527
-5.47318
-5.53536
-5.59797
-5.66087
-5.48136
-5.54354
-5.60614
-5.66905
-5.48953
-5.55171
-5.61432
-5.67722
-5.49771
-5.55989
-5.62249
-5.68539
)
;

boundaryField
{
    topWall
    {
        type            calculated;
        value           nonuniform List<scalar> 0();
    }
    botWall
    {
        type            calculated;
        value           nonuniform List<scalar> 0();
    }
    inlet
    {
        type            cyclic;
    }
    outlet
    {
        type            cyclic;
    }
    fixWall
    {
        type            empty;
    }
    procBoundary6to5
    {
        type            processor;
        value           nonuniform List<scalar> 8(-5.12522 -5.18799 -5.25038 -5.31275 -5.37507 -5.43725 -5.49986 -5.56279);
    }
    procBoundary6to7
    {
        type            processor;
        value           nonuniform List<scalar> 8(-5.25602 -5.31878 -5.38118 -5.44355 -5.50588 -5.56806 -5.63067 -5.69357);
    }
}


// ************************************************************************* //
