/*--------------------------------*- C++ -*----------------------------------*\
  =========                 |
  \\      /  F ield         | OpenFOAM: The Open Source CFD Toolbox
   \\    /   O peration     | Website:  https://openfoam.org
    \\  /    A nd           | Version:  dev
     \\/     M anipulation  |

   OpenFOAM for Windows 20.09 (v1)
   Built by CFD Support, www.cfdsupport.com (based on Symscape).
\*---------------------------------------------------------------------------*/
FoamFile
{
    version     2.0;
    format      ascii;
    class       surfaceScalarField;
    location    "8";
    object      phi;
}
// * * * * * * * * * * * * * * * * * * * * * * * * * * * * * * * * * * * * * //

dimensions      [0 3 -1 0 0 0 0];

internalField   nonuniform List<scalar> 
217
(
3.46391e-07
8.05362e-10
3.4629e-07
1.02101e-09
3.46285e-07
-2.22774e-09
-1.35157e-09
3.46264e-07
3.4616e-07
8.14053e-10
3.4608e-07
1.10157e-09
3.46043e-07
-2.19142e-09
-1.30271e-09
3.45994e-07
3.4572e-07
8.03958e-10
3.45659e-07
1.16309e-09
3.45598e-07
-2.1309e-09
-1.24423e-09
3.4554e-07
3.45059e-07
7.76178e-10
3.45012e-07
1.21034e-09
3.44927e-07
-2.04603e-09
-1.15365e-09
3.44836e-07
3.44156e-07
7.38988e-10
3.44121e-07
1.24588e-09
3.44021e-07
-1.946e-09
-1.06486e-09
3.43932e-07
3.42985e-07
6.93961e-10
3.42953e-07
1.27729e-09
3.42835e-07
-1.82792e-09
-9.60249e-10
3.42731e-07
3.41518e-07
6.40296e-10
3.41493e-07
1.30225e-09
3.41369e-07
-1.70326e-09
-8.82631e-10
3.41291e-07
3.39699e-07
5.78941e-10
3.39694e-07
1.3072e-09
3.39566e-07
-1.57551e-09
-8.00832e-10
3.39484e-07
3.37475e-07
5.13916e-10
3.37505e-07
1.27657e-09
3.37387e-07
-1.45738e-09
-7.4713e-10
3.37333e-07
3.3483e-07
4.45294e-10
3.34892e-07
1.21513e-09
3.34772e-07
-1.33778e-09
-6.92657e-10
3.34718e-07
3.31691e-07
3.72588e-10
3.31776e-07
1.12975e-09
3.31657e-07
-1.21918e-09
-6.47779e-10
3.31612e-07
3.2799e-07
3.01084e-10
3.28101e-07
1.01922e-09
3.27972e-07
-1.09031e-09
-5.91387e-10
3.27915e-07
3.23625e-07
2.29848e-10
3.23746e-07
8.98395e-10
3.23618e-07
-9.62912e-10
-5.37263e-10
3.23564e-07
3.18513e-07
1.82009e-10
3.18637e-07
7.74282e-10
3.18508e-07
-8.34612e-10
-4.79933e-10
3.18451e-07
3.1254e-07
3.12661e-07
3.1254e-07
3.12487e-07
3.46224e-07
1.01212e-09
3.46166e-07
6.79769e-10
3.46264e-07
7.70147e-10
-7.32881e-10
3.45971e-07
1.03567e-09
3.4594e-07
7.10784e-10
3.46023e-07
6.87027e-10
-8.7865e-10
3.45506e-07
1.07008e-09
3.45455e-07
7.60985e-10
3.45554e-07
5.87987e-10
-1.0345e-09
3.44812e-07
1.09395e-09
3.44798e-07
7.75861e-10
3.44893e-07
4.92863e-10
-1.17303e-09
3.43905e-07
1.12049e-09
3.43868e-07
8.13247e-10
3.43971e-07
3.89467e-10
-1.32073e-09
3.42728e-07
1.12316e-09
3.42724e-07
8.1728e-10
3.42813e-07
2.99918e-10
-1.44695e-09
3.41309e-07
1.1048e-09
3.41276e-07
8.50512e-10
3.41342e-07
2.33595e-10
-1.5691e-09
3.39513e-07
1.07594e-09
3.39501e-07
8.62239e-10
3.39552e-07
1.8246e-10
-1.65398e-09
3.37389e-07
1.02014e-09
3.37354e-07
8.97193e-10
3.37365e-07
1.71928e-10
-1.69878e-09
3.34785e-07
9.53106e-10
3.34764e-07
9.17381e-10
3.34761e-07
1.74907e-10
-1.69893e-09
3.31697e-07
8.69016e-10
3.3167e-07
9.4372e-10
3.31645e-07
2.00163e-10
-1.67183e-09
3.28004e-07
7.80702e-10
3.27998e-07
9.49122e-10
3.2798e-07
2.18277e-10
-1.61025e-09
3.23664e-07
6.80792e-10
3.23664e-07
9.48844e-10
3.23633e-07
2.49342e-10
-1.53058e-09
3.18551e-07
5.80875e-10
3.1858e-07
9.20359e-10
3.18573e-07
2.56149e-10
-1.42265e-09
3.12601e-07
3.12636e-07
3.12604e-07
)
;

boundaryField
{
    topWall
    {
        type            calculated;
        value           nonuniform List<scalar> 0();
    }
    botWall
    {
        type            calculated;
        value           nonuniform List<scalar> 0();
    }
    inlet
    {
        type            cyclic;
        value           nonuniform List<scalar> 
15
(
-3.46429e-07
-3.46169e-07
-3.4571e-07
-3.45031e-07
-3.44119e-07
-3.4294e-07
-3.41465e-07
-3.39637e-07
-3.3741e-07
-3.34762e-07
-3.31618e-07
-3.27919e-07
-3.23553e-07
-3.18465e-07
-3.12488e-07
)
;
    }
    outlet
    {
        type            cyclic;
        value           nonuniform List<scalar> 
15
(
3.46429e-07
3.46169e-07
3.4571e-07
3.45031e-07
3.44119e-07
3.4294e-07
3.41465e-07
3.39637e-07
3.3741e-07
3.34762e-07
3.31618e-07
3.27919e-07
3.23553e-07
3.18465e-07
3.12488e-07
)
;
    }
    fixWall
    {
        type            empty;
        value           nonuniform List<scalar> 0();
    }
    procBoundary6to5
    {
        type            processor;
        value           nonuniform List<scalar> 8(-7.71899e-10 -9.17914e-10 2.23022e-09 1.37388e-09 -9.71047e-10 -6.21173e-10 -8.68133e-10 5.62268e-10);
    }
    procBoundary6to7
    {
        type            processor;
        value           nonuniform List<scalar> 8(1.31403e-10 6.57172e-10 -7.12803e-10 -4.2559e-10 4.68419e-10 8.89579e-10 2.88412e-10 -1.30591e-09);
    }
}


// ************************************************************************* //
