/*--------------------------------*- C++ -*----------------------------------*\
  =========                 |
  \\      /  F ield         | OpenFOAM: The Open Source CFD Toolbox
   \\    /   O peration     | Website:  https://openfoam.org
    \\  /    A nd           | Version:  dev
     \\/     M anipulation  |

   OpenFOAM for Windows 20.09 (v1)
   Built by CFD Support, www.cfdsupport.com (based on Symscape).
\*---------------------------------------------------------------------------*/
FoamFile
{
    version     2.0;
    format      ascii;
    class       volSymmTensorField;
    location    "8";
    object      R;
}
// * * * * * * * * * * * * * * * * * * * * * * * * * * * * * * * * * * * * * //

dimensions      [0 2 -2 0 0 0 0];

internalField   nonuniform List<symmTensor> 
120
(
(7.63561e-16 1.02463e-17 -0 7.63393e-16 -0 7.63456e-16)
(7.63679e-16 7.1911e-18 -0 7.63282e-16 -0 7.63482e-16)
(7.62114e-16 8.42484e-18 -0 7.62092e-16 -0 7.62098e-16)
(7.61624e-16 1.06903e-17 -0 7.61553e-16 -0 7.61579e-16)
(6.72273e-16 1.89748e-17 -0 6.72205e-16 -0 6.72237e-16)
(6.72467e-16 1.6337e-17 -0 6.72173e-16 -0 6.7234e-16)
(6.71144e-16 1.68724e-17 -0 6.71013e-16 -0 6.71076e-16)
(6.70737e-16 1.91701e-17 -0 6.70577e-16 -0 6.70651e-16)
(5.90733e-16 2.47994e-17 -0 5.90754e-16 -0 5.90731e-16)
(5.90978e-16 2.30479e-17 -0 5.90823e-16 -0 5.90901e-16)
(5.89868e-16 2.33491e-17 -0 5.89692e-16 -0 5.89777e-16)
(5.89523e-16 2.50535e-17 -0 5.89333e-16 -0 5.89437e-16)
(5.18039e-16 2.84254e-17 -0 5.18097e-16 -0 5.18058e-16)
(5.18355e-16 2.73278e-17 -0 5.18247e-16 -0 5.18309e-16)
(5.17407e-16 2.74857e-17 -0 5.17199e-16 -0 5.17303e-16)
(5.17115e-16 2.86282e-17 -0 5.16918e-16 -0 5.17007e-16)
(4.53371e-16 3.04266e-17 -0 4.53427e-16 -0 4.53396e-16)
(4.53759e-16 2.98045e-17 -0 4.53692e-16 -0 4.53733e-16)
(4.52938e-16 2.9951e-17 -0 4.52739e-16 -0 4.52839e-16)
(4.52684e-16 3.06602e-17 -0 4.525e-16 -0 4.52598e-16)
(3.95972e-16 3.11948e-17 -0 3.96035e-16 -0 3.95998e-16)
(3.96467e-16 3.07832e-17 -0 3.9643e-16 -0 3.96449e-16)
(3.9575e-16 3.09345e-17 -0 3.95563e-16 -0 3.95655e-16)
(3.95527e-16 3.12567e-17 -0 3.95366e-16 -0 3.95445e-16)
(3.45385e-16 3.12977e-17 -0 3.45446e-16 -0 3.45411e-16)
(3.45815e-16 3.07673e-17 -0 3.45789e-16 -0 3.45804e-16)
(3.4518e-16 3.07814e-17 -0 3.45023e-16 -0 3.451e-16)
(3.44969e-16 3.08497e-17 -0 3.44868e-16 -0 3.4492e-16)
(3.00858e-16 3.08145e-17 -0 3.00913e-16 -0 3.00883e-16)
(3.01206e-16 3.01941e-17 -0 3.01206e-16 -0 3.01208e-16)
(3.00655e-16 2.99569e-17 -0 3.00527e-16 -0 3.0059e-16)
(3.00473e-16 3.00001e-17 -0 3.00393e-16 -0 3.00431e-16)
(2.61846e-16 2.94419e-17 -0 2.61894e-16 -0 2.61867e-16)
(2.62123e-16 2.88809e-17 -0 2.6215e-16 -0 2.62138e-16)
(2.61651e-16 2.86254e-17 -0 2.61555e-16 -0 2.61603e-16)
(2.61488e-16 2.86949e-17 -0 2.61443e-16 -0 2.61466e-16)
(2.27887e-16 2.75486e-17 -0 2.27927e-16 -0 2.27905e-16)
(2.28112e-16 2.71739e-17 -0 2.28153e-16 -0 2.28134e-16)
(2.27717e-16 2.70082e-17 -0 2.27641e-16 -0 2.27679e-16)
(2.27576e-16 2.70983e-17 -0 2.27542e-16 -0 2.27559e-16)
(1.9858e-16 2.55744e-17 -0 1.98613e-16 -0 1.98596e-16)
(1.98769e-16 2.53066e-17 -0 1.98813e-16 -0 1.98792e-16)
(1.98443e-16 2.5188e-17 -0 1.98384e-16 -0 1.98413e-16)
(1.98319e-16 2.53047e-17 -0 1.98295e-16 -0 1.98307e-16)
(1.73581e-16 2.35873e-17 -0 1.73607e-16 -0 1.73593e-16)
(1.73743e-16 2.34447e-17 -0 1.73786e-16 -0 1.73766e-16)
(1.73485e-16 2.3363e-17 -0 1.73436e-16 -0 1.7346e-16)
(1.73373e-16 2.34343e-17 -0 1.73352e-16 -0 1.73362e-16)
(1.52603e-16 2.16516e-17 -0 1.52622e-16 -0 1.52612e-16)
(1.52746e-16 2.16318e-17 -0 1.52784e-16 -0 1.52766e-16)
(1.52551e-16 2.15773e-17 -0 1.52511e-16 -0 1.52531e-16)
(1.52445e-16 2.1577e-17 -0 1.52428e-16 -0 1.52437e-16)
(1.48024e-16 2.17024e-17 -0 1.48036e-16 -0 1.48029e-16)
(1.48013e-16 2.17084e-17 -0 1.48046e-16 -0 1.4803e-16)
(1.48047e-16 2.17001e-17 -0 1.48013e-16 -0 1.4803e-16)
(1.48037e-16 2.16812e-17 -0 1.48022e-16 -0 1.4803e-16)
(1.48025e-16 2.21555e-17 -0 1.48035e-16 -0 1.4803e-16)
(1.48015e-16 2.21947e-17 -0 1.48044e-16 -0 1.4803e-16)
(1.48044e-16 2.21937e-17 -0 1.48015e-16 -0 1.4803e-16)
(1.48036e-16 2.21556e-17 -0 1.48024e-16 -0 1.4803e-16)
(7.62818e-16 1.03694e-17 -0 7.62675e-16 -0 7.62743e-16)
(7.63483e-16 1.10407e-17 -0 7.63222e-16 -0 7.63351e-16)
(7.62666e-16 9.95633e-18 -0 7.63086e-16 -0 7.62861e-16)
(7.62335e-16 1.01877e-17 -0 7.63136e-16 -0 7.62709e-16)
(6.71658e-16 1.88574e-17 -0 6.71598e-16 -0 6.71626e-16)
(6.72262e-16 1.89221e-17 -0 6.72163e-16 -0 6.72198e-16)
(6.71718e-16 1.8506e-17 -0 6.72014e-16 -0 6.71854e-16)
(6.71378e-16 1.88338e-17 -0 6.71896e-16 -0 6.71656e-16)
(5.90291e-16 2.51621e-17 -0 5.90189e-16 -0 5.90249e-16)
(5.90872e-16 2.51514e-17 -0 5.9071e-16 -0 5.90791e-16)
(5.90414e-16 2.44911e-17 -0 5.90671e-16 -0 5.9055e-16)
(5.90052e-16 2.4592e-17 -0 5.90509e-16 -0 5.90296e-16)
(5.17709e-16 2.8575e-17 -0 5.17663e-16 -0 5.17687e-16)
(5.18223e-16 2.8442e-17 -0 5.18174e-16 -0 5.18199e-16)
(5.17906e-16 2.81517e-17 -0 5.18158e-16 -0 5.18013e-16)
(5.17571e-16 2.82483e-17 -0 5.17931e-16 -0 5.1775e-16)
(4.53168e-16 3.03727e-17 -0 4.53128e-16 -0 4.53147e-16)
(4.53654e-16 3.01391e-17 -0 4.53591e-16 -0 4.53613e-16)
(4.53408e-16 3.00955e-17 -0 4.53591e-16 -0 4.53503e-16)
(4.53087e-16 3.02589e-17 -0 4.53358e-16 -0 4.53241e-16)
(3.95898e-16 3.06896e-17 -0 3.95894e-16 -0 3.959e-16)
(3.96338e-16 3.02922e-17 -0 3.96313e-16 -0 3.9633e-16)
(3.96182e-16 3.06324e-17 -0 3.96316e-16 -0 3.96248e-16)
(3.95882e-16 3.11208e-17 -0 3.96102e-16 -0 3.95991e-16)
(3.45273e-16 3.03684e-17 -0 3.45296e-16 -0 3.45287e-16)
(3.45694e-16 3.03409e-17 -0 3.45657e-16 -0 3.45669e-16)
(3.45581e-16 3.05528e-17 -0 3.45664e-16 -0 3.45619e-16)
(3.45305e-16 3.10256e-17 -0 3.45466e-16 -0 3.4539e-16)
(3.00711e-16 2.96125e-17 -0 3.00745e-16 -0 3.00728e-16)
(3.01083e-16 2.95154e-17 -0 3.01063e-16 -0 3.01075e-16)
(3.01016e-16 2.96771e-17 -0 3.01062e-16 -0 3.01039e-16)
(3.00784e-16 3.03182e-17 -0 3.00874e-16 -0 3.00832e-16)
(2.61681e-16 2.83123e-17 -0 2.61726e-16 -0 2.61705e-16)
(2.62022e-16 2.831e-17 -0 2.61996e-16 -0 2.62005e-16)
(2.61979e-16 2.84512e-17 -0 2.61988e-16 -0 2.61981e-16)
(2.61777e-16 2.89221e-17 -0 2.61817e-16 -0 2.61799e-16)
(2.27729e-16 2.69362e-17 -0 2.27774e-16 -0 2.27752e-16)
(2.28022e-16 2.68956e-17 -0 2.28005e-16 -0 2.28014e-16)
(2.27994e-16 2.6889e-17 -0 2.2799e-16 -0 2.27992e-16)
(2.27827e-16 2.7202e-17 -0 2.27832e-16 -0 2.27831e-16)
(1.98441e-16 2.52111e-17 -0 1.98483e-16 -0 1.98463e-16)
(1.98691e-16 2.5203e-17 -0 1.98678e-16 -0 1.98683e-16)
(1.9867e-16 2.51317e-17 -0 1.98657e-16 -0 1.98663e-16)
(1.98527e-16 2.52868e-17 -0 1.98516e-16 -0 1.98523e-16)
(1.7347e-16 2.34228e-17 -0 1.73506e-16 -0 1.73488e-16)
(1.73673e-16 2.33902e-17 -0 1.73669e-16 -0 1.73671e-16)
(1.73653e-16 2.32939e-17 -0 1.73644e-16 -0 1.73649e-16)
(1.7354e-16 2.33986e-17 -0 1.73518e-16 -0 1.7353e-16)
(1.52521e-16 2.15844e-17 -0 1.52552e-16 -0 1.52537e-16)
(1.52684e-16 2.15638e-17 -0 1.52684e-16 -0 1.52683e-16)
(1.52665e-16 2.1451e-17 -0 1.52655e-16 -0 1.52659e-16)
(1.52574e-16 2.14906e-17 -0 1.52552e-16 -0 1.52564e-16)
(1.48016e-16 2.16974e-17 -0 1.48043e-16 -0 1.4803e-16)
(1.48027e-16 2.16299e-17 -0 1.48032e-16 -0 1.4803e-16)
(1.48031e-16 2.15635e-17 -0 1.48028e-16 -0 1.4803e-16)
(1.48043e-16 2.16297e-17 -0 1.48016e-16 -0 1.4803e-16)
(1.48017e-16 2.21805e-17 -0 1.48043e-16 -0 1.4803e-16)
(1.48026e-16 2.21435e-17 -0 1.48034e-16 -0 1.48029e-16)
(1.48033e-16 2.2102e-17 -0 1.48027e-16 -0 1.48029e-16)
(1.48042e-16 2.21232e-17 -0 1.48017e-16 -0 1.4803e-16)
)
;

boundaryField
{
    topWall
    {
        type            kqRWallFunction;
        value           nonuniform List<symmTensor> 0();
    }
    botWall
    {
        type            kqRWallFunction;
        value           nonuniform List<symmTensor> 0();
    }
    inlet
    {
        type            cyclic;
    }
    outlet
    {
        type            cyclic;
    }
    fixWall
    {
        type            empty;
    }
    procBoundary6to5
    {
        type            processor;
        value           nonuniform List<symmTensor> 8((8.65612e-16 -2.39342e-18 -0 8.65283e-16 -0 8.6544e-16) (8.65617e-16 -5.03638e-18 -0 8.65112e-16 -0 8.65361e-16) (8.638e-16 -2.57107e-18 -0 8.63918e-16 -0 8.63844e-16) (8.63286e-16 -1.05965e-18 -0 8.63149e-16 -0 8.6324e-16) (8.64668e-16 -4.02724e-18 -0 8.64506e-16 -0 8.64633e-16) (8.6534e-16 -3.03953e-18 -0 8.65126e-16 -0 8.6523e-16) (8.64419e-16 -2.56272e-18 -0 8.64696e-16 -0 8.64582e-16) (8.64144e-16 -2.27535e-18 -0 8.64924e-16 -0 8.64556e-16));
    }
    procBoundary6to7
    {
        type            processor;
        value           nonuniform List<symmTensor> 8((1.48027e-16 2.23203e-17 -0 1.48033e-16 -0 1.48029e-16) (1.48018e-16 2.2366e-17 -0 1.48041e-16 -0 1.4803e-16) (1.48042e-16 2.23703e-17 -0 1.48018e-16 -0 1.4803e-16) (1.48035e-16 2.23209e-17 -0 1.48024e-16 -0 1.4803e-16) (1.48019e-16 2.23537e-17 -0 1.4804e-16 -0 1.4803e-16) (1.48025e-16 2.23228e-17 -0 1.48034e-16 -0 1.4803e-16) (1.48031e-16 2.2287e-17 -0 1.48028e-16 -0 1.4803e-16) (1.48041e-16 2.23117e-17 -0 1.48018e-16 -0 1.4803e-16));
    }
}


// ************************************************************************* //
