/*--------------------------------*- C++ -*----------------------------------*\
  =========                 |
  \\      /  F ield         | OpenFOAM: The Open Source CFD Toolbox
   \\    /   O peration     | Website:  https://openfoam.org
    \\  /    A nd           | Version:  dev
     \\/     M anipulation  |

   OpenFOAM for Windows 20.09 (v1)
   Built by CFD Support, www.cfdsupport.com (based on Symscape).
\*---------------------------------------------------------------------------*/
FoamFile
{
    version     2.0;
    format      ascii;
    class       volVectorField;
    location    "8";
    object      U;
}
// * * * * * * * * * * * * * * * * * * * * * * * * * * * * * * * * * * * * * //

dimensions      [0 1 -1 0 0 0 0];

internalField   nonuniform List<vector> 
120
(
(0.415781 1.56495e-05 0)
(0.415545 1.89877e-05 0)
(0.415557 -4.50005e-05 0)
(0.415527 -2.71227e-05 0)
(0.41547 1.65415e-05 0)
(0.415301 2.14371e-05 0)
(0.415297 -4.41275e-05 0)
(0.415207 -2.69656e-05 0)
(0.414915 1.63982e-05 0)
(0.414801 2.28001e-05 0)
(0.414786 -4.35667e-05 0)
(0.41465 -2.54493e-05 0)
(0.4141 1.5914e-05 0)
(0.414029 2.35761e-05 0)
(0.414006 -4.17968e-05 0)
(0.413819 -2.40894e-05 0)
(0.413 1.50833e-05 0)
(0.412963 2.48791e-05 0)
(0.412933 -4.00714e-05 0)
(0.412716 -2.24403e-05 0)
(0.411583 1.46153e-05 0)
(0.411567 2.52481e-05 0)
(0.411526 -3.76824e-05 0)
(0.411278 -2.00207e-05 0)
(0.40981 1.31962e-05 0)
(0.409821 2.58614e-05 0)
(0.409769 -3.53189e-05 0)
(0.409516 -1.84312e-05 0)
(0.407603 1.2385e-05 0)
(0.407661 2.62155e-05 0)
(0.407609 -3.27777e-05 0)
(0.407348 -1.67476e-05 0)
(0.404905 1.07954e-05 0)
(0.405022 2.59786e-05 0)
(0.404996 -3.02878e-05 0)
(0.404732 -1.54228e-05 0)
(0.4017 9.71802e-06 0)
(0.40188 2.5036e-05 0)
(0.401866 -2.79896e-05 0)
(0.401587 -1.44026e-05 0)
(0.397912 8.04609e-06 0)
(0.398134 2.35062e-05 0)
(0.398135 -2.5459e-05 0)
(0.397843 -1.33749e-05 0)
(0.393444 6.86748e-06 0)
(0.39372 2.16344e-05 0)
(0.393727 -2.32311e-05 0)
(0.393405 -1.24102e-05 0)
(0.388197 5.11392e-06 0)
(0.38849 1.92647e-05 0)
(0.388505 -2.05722e-05 0)
(0.388178 -1.12941e-05 0)
(0.382059 4.18927e-06 0)
(0.382359 1.66926e-05 0)
(0.382375 -1.80942e-05 0)
(0.382045 -1.01249e-05 0)
(0.374897 2.92817e-06 0)
(0.375187 1.43169e-05 0)
(0.375206 -1.53899e-05 0)
(0.37489 -9.08253e-06 0)
(0.415506 2.07166e-05 0)
(0.415442 1.40016e-05 0)
(0.415355 1.72059e-05 0)
(0.415665 -1.30706e-05 0)
(0.415178 1.99585e-05 0)
(0.415163 1.33146e-05 0)
(0.41509 1.38409e-05 0)
(0.415349 -1.69456e-05 0)
(0.414645 2.13408e-05 0)
(0.41458 1.47828e-05 0)
(0.414511 1.35522e-05 0)
(0.414805 -1.8559e-05 0)
(0.413787 2.16188e-05 0)
(0.413774 1.55575e-05 0)
(0.413738 1.04988e-05 0)
(0.41399 -2.28351e-05 0)
(0.412718 2.2154e-05 0)
(0.412665 1.55937e-05 0)
(0.412616 8.66517e-06 0)
(0.412901 -2.46635e-05 0)
(0.411274 2.23897e-05 0)
(0.411284 1.64877e-05 0)
(0.411251 6.8963e-06 0)
(0.411487 -2.76457e-05 0)
(0.409581 2.24368e-05 0)
(0.409572 1.64893e-05 0)
(0.409488 5.19403e-06 0)
(0.40972 -3.03477e-05 0)
(0.407411 2.1825e-05 0)
(0.40743 1.72722e-05 0)
(0.40737 4.04844e-06 0)
(0.407541 -3.24539e-05 0)
(0.404866 2.11073e-05 0)
(0.404879 1.7453e-05 0)
(0.404769 3.40988e-06 0)
(0.404893 -3.36315e-05 0)
(0.401733 1.97574e-05 0)
(0.40176 1.82639e-05 0)
(0.401672 3.41336e-06 0)
(0.401742 -3.42052e-05 0)
(0.398025 1.83195e-05 0)
(0.398057 1.85974e-05 0)
(0.397949 3.66081e-06 0)
(0.397985 -3.3791e-05 0)
(0.39359 1.65166e-05 0)
(0.39363 1.90289e-05 0)
(0.393564 4.27444e-06 0)
(0.393575 -3.30312e-05 0)
(0.388373 1.46009e-05 0)
(0.388431 1.89332e-05 0)
(0.388361 4.54067e-06 0)
(0.388345 -3.13342e-05 0)
(0.382235 1.26651e-05 0)
(0.382298 1.88409e-05 0)
(0.382291 5.33474e-06 0)
(0.38227 -2.98685e-05 0)
(0.375076 1.04649e-05 0)
(0.375176 1.81381e-05 0)
(0.375148 5.18977e-06 0)
(0.375088 -2.70237e-05 0)
)
;

boundaryField
{
    topWall
    {
        type            noSlip;
    }
    botWall
    {
        type            noSlip;
    }
    inlet
    {
        type            cyclic;
    }
    outlet
    {
        type            cyclic;
    }
    fixWall
    {
        type            empty;
    }
    procBoundary6to5
    {
        type            processor;
        value           nonuniform List<vector> 8((0.41586 1.53575e-05 0) (0.415572 1.7654e-05 0) (0.415616 -4.42391e-05 0) (0.415614 -2.74604e-05 0) (0.415572 1.86559e-05 0) (0.415581 1.08816e-05 0) (0.415468 1.81012e-05 0) (0.415736 -8.8457e-06 0));
    }
    procBoundary6to7
    {
        type            processor;
        value           nonuniform List<vector> 8((0.366587 2.45182e-06 0) (0.36686 1.19598e-05 0) (0.366874 -1.3032e-05 0) (0.366571 -7.94551e-06 0) (0.366745 8.35769e-06 0) (0.366834 1.7349e-05 0) (0.366857 5.985e-06 0) (0.366818 -2.52926e-05 0));
    }
}


// ************************************************************************* //
