/*--------------------------------*- C++ -*----------------------------------*\
  =========                 |
  \\      /  F ield         | OpenFOAM: The Open Source CFD Toolbox
   \\    /   O peration     | Website:  https://openfoam.org
    \\  /    A nd           | Version:  dev
     \\/     M anipulation  |

   OpenFOAM for Windows 20.09 (v1)
   Built by CFD Support, www.cfdsupport.com (based on Symscape).
\*---------------------------------------------------------------------------*/
FoamFile
{
    version     2.0;
    format      ascii;
    class       volVectorField;
    location    "8";
    object      UMean;
}
// * * * * * * * * * * * * * * * * * * * * * * * * * * * * * * * * * * * * * //

dimensions      [0 1 -1 0 0 0 0];

internalField   nonuniform List<vector> 
120
(
(0.256117 1.25e-05 0)
(0.255974 1.03408e-05 0)
(0.256039 -2.33668e-05 0)
(0.256037 -2.71488e-06 0)
(0.256029 1.17628e-05 0)
(0.255918 9.86139e-06 0)
(0.255968 -2.42117e-05 0)
(0.255935 -3.08789e-06 0)
(0.255874 1.28284e-05 0)
(0.255809 1.17036e-05 0)
(0.25584 -2.34551e-05 0)
(0.255782 -2.57303e-06 0)
(0.255643 1.22197e-05 0)
(0.255616 1.10668e-05 0)
(0.255633 -2.36394e-05 0)
(0.25554 -2.80049e-06 0)
(0.255332 1.20403e-05 0)
(0.25535 1.11919e-05 0)
(0.255352 -2.23106e-05 0)
(0.255233 -2.56866e-06 0)
(0.254927 1.13616e-05 0)
(0.254972 1.15332e-05 0)
(0.254965 -2.12561e-05 0)
(0.254827 -2.21107e-06 0)
(0.254409 1.09315e-05 0)
(0.254481 1.0738e-05 0)
(0.254468 -2.00899e-05 0)
(0.254319 -2.15223e-06 0)
(0.253744 9.93404e-06 0)
(0.253841 1.05432e-05 0)
(0.25383 -1.85503e-05 0)
(0.253672 -1.91378e-06 0)
(0.252917 9.44457e-06 0)
(0.253033 9.63064e-06 0)
(0.253026 -1.72897e-05 0)
(0.252864 -1.87516e-06 0)
(0.251891 8.71233e-06 0)
(0.252023 8.87355e-06 0)
(0.252017 -1.57189e-05 0)
(0.251851 -1.77385e-06 0)
(0.250624 8.3451e-06 0)
(0.250761 7.7827e-06 0)
(0.250758 -1.44365e-05 0)
(0.250594 -1.74845e-06 0)
(0.249056 7.93135e-06 0)
(0.249201 6.83841e-06 0)
(0.249198 -1.29211e-05 0)
(0.249032 -1.70346e-06 0)
(0.247128 7.64622e-06 0)
(0.247262 5.6236e-06 0)
(0.247261 -1.17289e-05 0)
(0.247107 -1.75278e-06 0)
(0.244755 7.62384e-06 0)
(0.244887 4.63944e-06 0)
(0.244884 -1.02736e-05 0)
(0.244735 -1.52181e-06 0)
(0.241855 7.3634e-06 0)
(0.241973 3.70843e-06 0)
(0.241971 -9.14281e-06 0)
(0.241835 -1.62823e-06 0)
(0.25604 2.22215e-05 0)
(0.256017 -3.67051e-06 0)
(0.255891 -4.85904e-06 0)
(0.256058 -6.95962e-06 0)
(0.255958 2.08366e-05 0)
(0.255954 -3.12367e-06 0)
(0.255829 -7.07244e-06 0)
(0.255976 -1.09956e-05 0)
(0.255823 2.23157e-05 0)
(0.255805 -1.19176e-06 0)
(0.255689 -4.50121e-06 0)
(0.255828 -1.00742e-05 0)
(0.255608 2.04769e-05 0)
(0.255611 -7.78151e-07 0)
(0.255493 -7.07755e-06 0)
(0.255608 -1.34539e-05 0)
(0.255325 2.07354e-05 0)
(0.255322 4.59591e-07 0)
(0.255205 -5.17028e-06 0)
(0.255305 -1.35397e-05 0)
(0.254937 1.95116e-05 0)
(0.25495 1.73954e-06 0)
(0.254836 -5.47087e-06 0)
(0.254913 -1.47e-05 0)
(0.254447 1.8486e-05 0)
(0.254459 2.06826e-06 0)
(0.254348 -5.1734e-06 0)
(0.25441 -1.50715e-05 0)
(0.25381 1.72011e-05 0)
(0.253829 3.15334e-06 0)
(0.253731 -4.74376e-06 0)
(0.253771 -1.54821e-05 0)
(0.253015 1.58265e-05 0)
(0.253034 3.53473e-06 0)
(0.252946 -4.23504e-06 0)
(0.252972 -1.51799e-05 0)
(0.252007 1.44008e-05 0)
(0.25203 4.17663e-06 0)
(0.251963 -3.79091e-06 0)
(0.251975 -1.47944e-05 0)
(0.250753 1.2805e-05 0)
(0.250777 4.30574e-06 0)
(0.250726 -3.4023e-06 0)
(0.25073 -1.38683e-05 0)
(0.249188 1.13895e-05 0)
(0.249215 4.62136e-06 0)
(0.24918 -2.97106e-06 0)
(0.249177 -1.28861e-05 0)
(0.247259 9.74878e-06 0)
(0.24729 4.40829e-06 0)
(0.247264 -2.80783e-06 0)
(0.247257 -1.18082e-05 0)
(0.244877 8.49781e-06 0)
(0.24491 4.53559e-06 0)
(0.244894 -2.43112e-06 0)
(0.24488 -1.03192e-05 0)
(0.241968 6.81553e-06 0)
(0.242006 4.29617e-06 0)
(0.241987 -2.36437e-06 0)
(0.241971 -9.21602e-06 0)
)
;

boundaryField
{
    topWall
    {
        type            calculated;
        value           nonuniform List<vector> 0();
    }
    botWall
    {
        type            calculated;
        value           nonuniform List<vector> 0();
    }
    inlet
    {
        type            cyclic;
    }
    outlet
    {
        type            cyclic;
    }
    fixWall
    {
        type            empty;
    }
    procBoundary6to5
    {
        type            processor;
        value           nonuniform List<vector> 8((0.256144 1.10772e-05 0) (0.255968 9.37925e-06 0) (0.256054 -2.24617e-05 0) (0.256064 -2.78948e-06 0) (0.256059 2.17354e-05 0) (0.256056 -4.73872e-06 0) (0.255912 -3.68763e-06 0) (0.256081 -6.02163e-06 0));
    }
    procBoundary6to7
    {
        type            processor;
        value           nonuniform List<vector> 8((0.238314 7.21152e-06 0) (0.238429 2.95519e-06 0) (0.238424 -8.00961e-06 0) (0.238296 -1.49008e-06 0) (0.238408 5.44589e-06 0) (0.238443 4.02096e-06 0) (0.238443 -2.21901e-06 0) (0.238426 -8.04447e-06 0));
    }
}


// ************************************************************************* //
