/*--------------------------------*- C++ -*----------------------------------*\
  =========                 |
  \\      /  F ield         | OpenFOAM: The Open Source CFD Toolbox
   \\    /   O peration     | Website:  https://openfoam.org
    \\  /    A nd           | Version:  dev
     \\/     M anipulation  |

   OpenFOAM for Windows 20.09 (v1)
   Built by CFD Support, www.cfdsupport.com (based on Symscape).
\*---------------------------------------------------------------------------*/
FoamFile
{
    version     2.0;
    format      ascii;
    class       volSymmTensorField;
    location    "8";
    object      UPrime2Mean;
}
// * * * * * * * * * * * * * * * * * * * * * * * * * * * * * * * * * * * * * //

dimensions      [0 2 -2 0 0 0 0];

internalField   nonuniform List<symmTensor> 
120
(
(0.00621152 1.27512e-07 0 2.4439e-11 0 0)
(0.00620373 4.12588e-07 0 2.98081e-11 0 0)
(0.00620127 -1.16376e-06 0 2.76723e-10 0 0)
(0.00619713 -7.10947e-07 0 9.57288e-11 0 0)
(0.00619754 1.785e-07 0 1.68563e-11 0 0)
(0.00619221 5.11073e-07 0 4.64224e-11 0 0)
(0.00618986 -1.10524e-06 0 2.41742e-10 0 0)
(0.00618323 -6.65751e-07 0 8.88622e-11 0 0)
(0.00617234 1.30559e-07 0 2.04576e-11 0 0)
(0.00616855 4.71459e-07 0 4.11364e-11 0 0)
(0.0061663 -1.0957e-06 0 2.30534e-10 0 0)
(0.0061576 -6.33503e-07 0 8.06288e-11 0 0)
(0.00613557 1.60698e-07 0 2.25379e-11 0 0)
(0.00613246 5.34452e-07 0 4.94403e-11 0 0)
(0.00613042 -1.01918e-06 0 2.0358e-10 0 0)
(0.00612023 -5.83861e-07 0 7.01012e-11 0 0)
(0.00608546 1.09877e-07 0 1.60777e-11 0 0)
(0.00608218 5.46546e-07 0 5.54979e-11 0 0)
(0.00608009 -9.86149e-07 0 1.88244e-10 0 0)
(0.00606972 -5.25885e-07 0 5.96199e-11 0 0)
(0.00602082 1.42566e-07 0 1.9608e-11 0 0)
(0.00601746 5.37933e-07 0 5.34049e-11 0 0)
(0.00601488 -9.23186e-07 0 1.6719e-10 0 0)
(0.00600426 -4.69582e-07 0 4.84389e-11 0 0)
(0.00593943 8.11653e-08 0 1.32653e-11 0 0)
(0.00593687 5.87147e-07 0 6.5553e-11 0 0)
(0.005934 -8.53808e-07 0 1.46126e-10 0 0)
(0.00592389 -4.23619e-07 0 4.0718e-11 0 0)
(0.00583857 9.86477e-08 0 1.19167e-11 0 0)
(0.00583818 5.80604e-07 0 6.62666e-11 0 0)
(0.00583584 -8.0422e-07 0 1.32667e-10 0 0)
(0.00582598 -3.78322e-07 0 3.46299e-11 0 0)
(0.00571766 5.17509e-08 0 9.44481e-12 0 0)
(0.00571997 5.87571e-07 0 7.16781e-11 0 0)
(0.00571887 -7.39893e-07 0 1.16869e-10 0 0)
(0.00570913 -3.42406e-07 0 2.9979e-11 0 0)
(0.00557669 4.449e-08 0 6.38997e-12 0 0)
(0.00558154 5.6195e-07 0 6.85887e-11 0 0)
(0.00558107 -6.96922e-07 0 1.07388e-10 0 0)
(0.00557109 -3.11664e-07 0 2.75191e-11 0 0)
(0.00541379 8.40636e-09 0 6.20524e-12 0 0)
(0.0054206 5.30041e-07 0 6.64378e-11 0 0)
(0.00542076 -6.32666e-07 0 9.42708e-11 0 0)
(0.00541029 -2.82456e-07 0 2.52661e-11 0 0)
(0.00522684 -1.18867e-08 0 3.75741e-12 0 0)
(0.00523568 4.84218e-07 0 6.00354e-11 0 0)
(0.0052361 -5.935e-07 0 8.74162e-11 0 0)
(0.00522469 -2.55963e-07 0 2.36807e-11 0 0)
(0.0050143 -4.00082e-08 0 5.4649e-12 0 0)
(0.00502408 4.27845e-07 0 5.30297e-11 0 0)
(0.0050248 -5.24882e-07 0 7.59172e-11 0 0)
(0.00501297 -2.33275e-07 0 2.28854e-11 0 0)
(0.00477498 -5.48261e-08 0 4.24169e-12 0 0)
(0.00478482 3.71565e-07 0 4.39563e-11 0 0)
(0.00478552 -4.77993e-07 0 6.84814e-11 0 0)
(0.00477382 -1.97493e-07 0 1.98235e-11 0 0)
(0.004508 -6.55504e-08 0 4.7305e-12 0 0)
(0.00451753 3.22242e-07 0 3.99945e-11 0 0)
(0.00451827 -4.12348e-07 0 5.85944e-11 0 0)
(0.00450694 -1.68884e-07 0 1.80699e-11 0 0)
(0.00619659 4.40973e-07 0 9.16296e-11 0 0)
(0.00619385 1.74456e-07 0 7.17148e-11 0 0)
(0.00619266 6.53765e-07 0 8.69564e-11 0 0)
(0.00620626 -4.01774e-08 0 1.62389e-11 0 0)
(0.00618188 5.12534e-07 0 1.1293e-10 0 0)
(0.00618082 1.66791e-07 0 6.02457e-11 0 0)
(0.00617983 6.15505e-07 0 8.29232e-11 0 0)
(0.00619191 -4.85643e-08 0 2.31743e-11 0 0)
(0.00615698 4.5934e-07 0 9.24518e-11 0 0)
(0.00615424 1.74681e-07 0 5.31092e-11 0 0)
(0.00615299 5.03955e-07 0 5.14692e-11 0 0)
(0.00616708 -1.81014e-07 0 1.40153e-11 0 0)
(0.00611826 5.23238e-07 0 9.89119e-11 0 0)
(0.00611743 2.00511e-07 0 5.42211e-11 0 0)
(0.00611665 5.00637e-07 0 5.79372e-11 0 0)
(0.00612979 -2.15419e-07 0 2.13373e-11 0 0)
(0.00606874 5.15172e-07 0 9.41355e-11 0 0)
(0.00606641 2.04798e-07 0 4.35085e-11 0 0)
(0.00606489 3.8661e-07 0 3.16846e-11 0 0)
(0.00607978 -2.94751e-07 0 2.28986e-11 0 0)
(0.00600259 5.25371e-07 0 8.70468e-11 0 0)
(0.00600284 2.1e-07 0 3.98372e-11 0 0)
(0.00600162 3.41683e-07 0 2.62538e-11 0 0)
(0.00601442 -3.77062e-07 0 3.02415e-11 0 0)
(0.0059248 5.32784e-07 0 8.30224e-11 0 0)
(0.00592439 2.23873e-07 0 3.85084e-11 0 0)
(0.00592102 2.93651e-07 0 1.9333e-11 0 0)
(0.00593324 -4.55061e-07 0 4.04802e-11 0 0)
(0.0058267 5.23638e-07 0 7.66484e-11 0 0)
(0.00582748 2.33304e-07 0 3.51883e-11 0 0)
(0.0058248 2.50596e-07 0 1.45211e-11 0 0)
(0.00583367 -5.14707e-07 0 5.0468e-11 0 0)
(0.00571266 5.1536e-07 0 7.13417e-11 0 0)
(0.00571322 2.41737e-07 0 3.49645e-11 0 0)
(0.00570841 2.28686e-07 0 1.19809e-11 0 0)
(0.00571489 -5.52395e-07 0 5.86709e-11 0 0)
(0.0055752 4.87119e-07 0 6.3533e-11 0 0)
(0.00557639 2.57062e-07 0 3.51006e-11 0 0)
(0.00557183 2.16777e-07 0 1.1489e-11 0 0)
(0.00557563 -5.74594e-07 0 6.48322e-11 0 0)
(0.00541589 4.64279e-07 0 5.75076e-11 0 0)
(0.0054172 2.68041e-07 0 3.71106e-11 0 0)
(0.00541193 2.19848e-07 0 1.20496e-11 0 0)
(0.00541426 -5.73294e-07 0 6.71366e-11 0 0)
(0.00523056 4.22009e-07 0 4.90923e-11 0 0)
(0.00523217 2.74202e-07 0 3.72305e-11 0 0)
(0.00522874 2.17571e-07 0 1.24157e-11 0 0)
(0.00522986 -5.66141e-07 0 6.82307e-11 0 0)
(0.00501941 3.84682e-07 0 4.22294e-11 0 0)
(0.00502151 2.68222e-07 0 3.84217e-11 0 0)
(0.00501857 2.19916e-07 0 1.31045e-11 0 0)
(0.00501874 -5.30575e-07 0 6.33181e-11 0 0)
(0.00478039 3.44615e-07 0 3.63745e-11 0 0)
(0.00478244 2.61509e-07 0 3.71806e-11 0 0)
(0.00478216 2.15049e-07 0 1.37589e-11 0 0)
(0.00478239 -4.91344e-07 0 6.04531e-11 0 0)
(0.00451367 3.03211e-07 0 3.03117e-11 0 0)
(0.00451732 2.49987e-07 0 3.51811e-11 0 0)
(0.00451637 2.08254e-07 0 1.35399e-11 0 0)
(0.00451498 -4.37975e-07 0 5.05547e-11 0 0)
)
;

boundaryField
{
    topWall
    {
        type            calculated;
        value           nonuniform List<symmTensor> 0();
    }
    botWall
    {
        type            calculated;
        value           nonuniform List<symmTensor> 0();
    }
    inlet
    {
        type            cyclic;
    }
    outlet
    {
        type            cyclic;
    }
    fixWall
    {
        type            empty;
    }
    procBoundary6to5
    {
        type            processor;
        value           nonuniform List<symmTensor> 8((0.00621465 1.54975e-07 0 1.83883e-11 0 0) (0.00620548 3.71441e-07 0 2.78291e-11 0 0) (0.00620359 -1.19743e-06 0 2.96538e-10 0 0) (0.00620087 -7.03824e-07 0 9.60438e-11 0 0) (0.00620007 4.32889e-07 0 1.02202e-10 0 0) (0.00619975 1.15845e-07 0 6.13803e-11 0 0) (0.00619765 6.5596e-07 0 8.33298e-11 0 0) (0.00620907 8.91374e-08 0 2.24054e-11 0 0));
    }
    procBoundary6to7
    {
        type            processor;
        value           nonuniform List<symmTensor> 8((0.00421417 -5.6826e-08 0 4.78357e-12 0 0) (0.0042225 2.71478e-07 0 3.27863e-11 0 0) (0.00422301 -3.54935e-07 0 5.02254e-11 0 0) (0.00421256 -1.44179e-07 0 1.63654e-11 0 0) (0.00421945 2.53816e-07 0 2.32782e-11 0 0) (0.00422297 2.29132e-07 0 3.2764e-11 0 0) (0.00422363 2.08714e-07 0 1.4716e-11 0 0) (0.00422296 -3.98651e-07 0 4.64905e-11 0 0));
    }
}


// ************************************************************************* //
