/*--------------------------------*- C++ -*----------------------------------*\
  =========                 |
  \\      /  F ield         | OpenFOAM: The Open Source CFD Toolbox
   \\    /   O peration     | Website:  https://openfoam.org
    \\  /    A nd           | Version:  dev
     \\/     M anipulation  |

   OpenFOAM for Windows 20.09 (v1)
   Built by CFD Support, www.cfdsupport.com (based on Symscape).
\*---------------------------------------------------------------------------*/
FoamFile
{
    version     2.0;
    format      ascii;
    class       volScalarField;
    location    "20";
    object      nut;
}
// * * * * * * * * * * * * * * * * * * * * * * * * * * * * * * * * * * * * * //

dimensions      [0 2 -1 0 0 0 0];

internalField   nonuniform List<scalar> 
1600
(
9.47823e-05
9.47825e-05
9.47826e-05
9.47827e-05
9.47827e-05
9.47827e-05
9.47827e-05
9.47828e-05
9.4783e-05
9.47832e-05
9.47833e-05
9.47835e-05
9.47836e-05
9.47837e-05
9.47837e-05
9.47838e-05
9.47835e-05
9.47831e-05
9.47828e-05
9.47827e-05
9.47826e-05
9.47827e-05
9.47827e-05
9.47827e-05
9.47827e-05
9.47825e-05
9.47823e-05
9.47823e-05
9.47823e-05
9.47823e-05
9.47823e-05
9.47823e-05
9.47823e-05
9.47823e-05
9.47823e-05
9.47823e-05
9.47823e-05
9.47823e-05
9.47823e-05
9.47822e-05
0.000543483
0.000543492
0.000543496
0.000543496
0.000543496
0.000543495
0.000543495
0.000543495
0.000543496
0.000543497
0.000543498
0.000543499
0.0005435
0.000543501
0.000543501
0.000543501
0.000543498
0.000543494
0.000543491
0.000543491
0.000543492
0.000543492
0.000543493
0.000543493
0.000543491
0.000543489
0.000543488
0.000543488
0.000543488
0.000543488
0.000543488
0.000543488
0.000543488
0.000543489
0.000543488
0.000543488
0.000543487
0.000543487
0.000543487
0.000543479
0.00110827
0.00110828
0.00110828
0.00110828
0.00110828
0.00110828
0.00110827
0.00110827
0.00110827
0.00110828
0.00110828
0.00110828
0.00110828
0.00110828
0.00110829
0.00110829
0.00110828
0.00110827
0.00110826
0.00110827
0.00110827
0.00110827
0.00110827
0.00110827
0.00110827
0.00110826
0.00110826
0.00110826
0.00110826
0.00110826
0.00110826
0.00110827
0.00110826
0.00110827
0.00110826
0.00110826
0.00110826
0.00110826
0.00110826
0.00110825
0.00161103
0.00161105
0.00161104
0.00161103
0.00161103
0.00161102
0.00161101
0.00161101
0.00161102
0.00161102
0.00161102
0.00161102
0.00161103
0.00161103
0.00161103
0.00161104
0.00161103
0.00161101
0.001611
0.00161101
0.00161101
0.00161102
0.00161102
0.00161102
0.00161101
0.00161101
0.00161101
0.00161101
0.00161101
0.00161101
0.00161101
0.00161101
0.00161101
0.00161101
0.00161101
0.001611
0.001611
0.001611
0.001611
0.00161099
0.00203836
0.00203835
0.00203832
0.00203831
0.00203831
0.00203828
0.00203826
0.00203827
0.00203828
0.00203829
0.00203829
0.00203829
0.0020383
0.0020383
0.00203831
0.00203831
0.0020383
0.00203828
0.00203827
0.00203828
0.00203828
0.00203828
0.00203829
0.00203829
0.00203829
0.00203828
0.00203828
0.00203828
0.00203828
0.00203828
0.00203829
0.00203829
0.00203829
0.00203829
0.00203828
0.00203827
0.00203827
0.00203828
0.00203828
0.00203827
0.00240076
0.00240074
0.0024007
0.00240069
0.00240067
0.00240064
0.00240061
0.00240063
0.00240064
0.00240066
0.00240066
0.00240066
0.00240067
0.00240067
0.00240068
0.00240069
0.00240067
0.00240064
0.00240063
0.00240064
0.00240065
0.00240066
0.00240066
0.00240066
0.00240065
0.00240065
0.00240065
0.00240065
0.00240065
0.00240066
0.00240066
0.00240066
0.00240067
0.00240066
0.00240065
0.00240064
0.00240065
0.00240065
0.00240065
0.00240066
0.00270978
0.00270975
0.0027097
0.00270969
0.00270966
0.00270961
0.00270958
0.00270961
0.00270964
0.00270966
0.00270966
0.00270966
0.00270966
0.00270967
0.00270968
0.00270969
0.00270967
0.00270964
0.00270963
0.00270963
0.00270964
0.00270965
0.00270965
0.00270965
0.00270965
0.00270965
0.00270964
0.00270965
0.00270965
0.00270965
0.00270966
0.00270967
0.00270967
0.00270966
0.00270965
0.00270964
0.00270965
0.00270965
0.00270966
0.00270968
0.00297478
0.00297473
0.00297467
0.00297466
0.00297462
0.00297456
0.00297453
0.00297455
0.0029746
0.00297463
0.00297462
0.00297463
0.00297463
0.00297464
0.00297465
0.00297465
0.00297464
0.0029746
0.00297459
0.00297459
0.0029746
0.00297461
0.00297461
0.00297461
0.00297461
0.0029746
0.00297461
0.00297462
0.00297461
0.00297462
0.00297463
0.00297462
0.00297463
0.00297462
0.00297461
0.00297462
0.00297462
0.00297464
0.00297463
0.00297466
0.00320285
0.00320278
0.00320272
0.00320271
0.00320266
0.0032026
0.00320256
0.00320259
0.00320265
0.00320267
0.00320268
0.00320269
0.00320269
0.00320269
0.0032027
0.00320271
0.00320269
0.00320264
0.00320264
0.00320264
0.00320265
0.00320266
0.00320266
0.00320265
0.00320265
0.00320265
0.00320266
0.00320266
0.00320266
0.00320267
0.00320267
0.00320267
0.00320268
0.00320267
0.00320266
0.00320267
0.00320268
0.00320269
0.0032027
0.00320272
0.00339937
0.0033993
0.00339923
0.00339922
0.00339917
0.00339911
0.00339906
0.00339909
0.00339914
0.00339918
0.00339919
0.00339921
0.00339921
0.00339921
0.00339921
0.00339921
0.00339919
0.00339915
0.00339915
0.00339914
0.00339916
0.00339917
0.00339916
0.00339916
0.00339916
0.00339916
0.00339917
0.00339917
0.00339917
0.00339917
0.00339918
0.00339919
0.00339918
0.00339916
0.00339916
0.00339917
0.00339919
0.00339921
0.00339921
0.00339924
0.00356841
0.00356835
0.00356829
0.00356827
0.00356822
0.00356816
0.00356812
0.00356814
0.00356819
0.00356823
0.00356826
0.00356826
0.00356826
0.00356825
0.00356825
0.00356824
0.00356824
0.00356821
0.0035682
0.0035682
0.00356821
0.00356822
0.00356821
0.00356821
0.00356822
0.00356822
0.00356822
0.00356822
0.00356822
0.00356823
0.00356824
0.00356824
0.00356822
0.00356821
0.00356821
0.00356822
0.00356824
0.00356825
0.00356825
0.00356828
0.00371316
0.0037131
0.00371305
0.00371303
0.00371299
0.00371293
0.00371288
0.0037129
0.00371294
0.00371299
0.00371302
0.003713
0.003713
0.003713
0.003713
0.003713
0.003713
0.00371298
0.00371297
0.00371297
0.00371297
0.00371298
0.00371297
0.00371298
0.00371298
0.00371298
0.00371299
0.003713
0.00371299
0.003713
0.003713
0.00371299
0.00371297
0.00371297
0.00371297
0.00371298
0.00371299
0.00371299
0.00371301
0.00371303
0.00383614
0.00383609
0.00383604
0.00383602
0.00383599
0.00383593
0.00383588
0.00383588
0.00383592
0.00383597
0.00383598
0.00383598
0.00383597
0.00383598
0.00383598
0.00383598
0.00383598
0.00383597
0.00383596
0.00383596
0.00383596
0.00383597
0.00383596
0.00383598
0.00383597
0.00383598
0.00383598
0.00383598
0.00383598
0.00383597
0.00383598
0.00383597
0.00383595
0.00383595
0.00383595
0.00383596
0.00383596
0.00383597
0.00383599
0.00383602
0.00393941
0.00393936
0.00393931
0.0039393
0.00393928
0.00393921
0.00393916
0.00393917
0.0039392
0.00393925
0.00393926
0.00393926
0.00393925
0.00393926
0.00393926
0.00393927
0.00393927
0.00393926
0.00393925
0.00393924
0.00393924
0.00393924
0.00393925
0.00393926
0.00393926
0.00393927
0.00393926
0.00393926
0.00393925
0.00393925
0.00393925
0.00393924
0.00393923
0.00393923
0.00393923
0.00393924
0.00393924
0.00393925
0.00393927
0.0039393
0.00402473
0.00402468
0.00402464
0.00402463
0.00402461
0.00402455
0.0040245
0.00402451
0.00402454
0.00402459
0.00402459
0.00402459
0.00402459
0.00402459
0.00402459
0.0040246
0.0040246
0.0040246
0.00402459
0.00402458
0.00402458
0.00402458
0.00402458
0.00402458
0.00402459
0.00402459
0.00402458
0.00402458
0.00402457
0.00402458
0.00402457
0.00402456
0.00402456
0.00402456
0.00402457
0.00402457
0.00402458
0.00402459
0.00402461
0.00402463
0.00409363
0.00409359
0.00409355
0.00409354
0.00409352
0.00409346
0.00409342
0.00409343
0.00409347
0.00409349
0.0040935
0.0040935
0.0040935
0.0040935
0.00409351
0.00409352
0.00409352
0.00409352
0.00409351
0.0040935
0.00409349
0.00409349
0.00409349
0.00409349
0.00409349
0.0040935
0.00409349
0.00409349
0.00409349
0.00409349
0.00409348
0.00409347
0.00409347
0.00409347
0.00409348
0.00409349
0.0040935
0.00409351
0.00409352
0.00409353
0.00414744
0.00414739
0.00414736
0.00414735
0.00414731
0.00414726
0.00414723
0.00414725
0.00414728
0.0041473
0.00414731
0.00414731
0.00414731
0.00414732
0.00414732
0.00414733
0.00414734
0.00414733
0.00414732
0.00414731
0.0041473
0.0041473
0.00414729
0.0041473
0.0041473
0.0041473
0.0041473
0.0041473
0.0041473
0.00414729
0.00414729
0.00414729
0.00414728
0.00414729
0.00414729
0.0041473
0.00414731
0.00414732
0.00414732
0.00414734
0.00418722
0.00418717
0.00418715
0.00418712
0.00418709
0.00418705
0.00418702
0.00418704
0.00418707
0.00418709
0.0041871
0.0041871
0.00418711
0.00418711
0.00418712
0.00418713
0.00418713
0.00418713
0.00418712
0.00418711
0.0041871
0.00418708
0.00418708
0.00418708
0.00418708
0.00418709
0.00418709
0.00418709
0.00418709
0.00418709
0.00418708
0.00418708
0.00418708
0.00418708
0.00418708
0.00418709
0.0041871
0.0041871
0.0041871
0.00418713
0.00421372
0.00421368
0.00421366
0.00421364
0.0042136
0.00421356
0.00421355
0.00421356
0.00421359
0.00421361
0.00421362
0.00421362
0.00421363
0.00421364
0.00421365
0.00421365
0.00421366
0.00421365
0.00421364
0.00421363
0.00421362
0.00421361
0.0042136
0.0042136
0.00421361
0.00421361
0.00421361
0.00421361
0.00421361
0.0042136
0.0042136
0.00421361
0.0042136
0.00421361
0.00421361
0.00421361
0.00421361
0.00421362
0.00421362
0.00421364
0.0042272
0.00422717
0.00422715
0.00422713
0.0042271
0.00422706
0.00422705
0.00422707
0.0042271
0.00422711
0.00422713
0.00422713
0.00422714
0.00422715
0.00422716
0.00422716
0.00422717
0.00422716
0.00422715
0.00422714
0.00422713
0.00422711
0.00422711
0.00422711
0.00422711
0.00422711
0.00422711
0.00422711
0.00422712
0.00422711
0.00422712
0.00422711
0.00422711
0.00422711
0.00422711
0.00422711
0.00422712
0.00422711
0.00422712
0.00422713
0.00422718
0.00422716
0.00422715
0.00422712
0.00422709
0.00422705
0.00422704
0.00422706
0.00422709
0.00422711
0.00422712
0.00422713
0.00422714
0.00422715
0.00422716
0.00422716
0.00422717
0.00422717
0.00422715
0.00422714
0.00422713
0.00422711
0.0042271
0.00422711
0.00422711
0.00422711
0.00422711
0.00422712
0.00422711
0.00422712
0.00422711
0.00422711
0.00422711
0.00422711
0.00422711
0.00422712
0.00422711
0.0042271
0.00422711
0.00422712
0.00421366
0.00421365
0.00421364
0.00421361
0.00421357
0.00421354
0.00421353
0.00421356
0.00421359
0.00421361
0.00421362
0.00421362
0.00421363
0.00421364
0.00421365
0.00421366
0.00421366
0.00421366
0.00421365
0.00421363
0.00421362
0.0042136
0.00421359
0.0042136
0.0042136
0.0042136
0.00421361
0.0042136
0.00421361
0.0042136
0.0042136
0.0042136
0.0042136
0.0042136
0.00421361
0.0042136
0.0042136
0.00421359
0.0042136
0.00421361
0.00418715
0.00418714
0.00418712
0.00418708
0.00418704
0.00418701
0.004187
0.00418703
0.00418706
0.00418709
0.00418709
0.0041871
0.00418711
0.00418712
0.00418713
0.00418714
0.00418714
0.00418714
0.00418712
0.0041871
0.00418709
0.00418707
0.00418707
0.00418708
0.00418708
0.00418708
0.00418708
0.00418709
0.00418708
0.00418708
0.00418708
0.00418707
0.00418708
0.00418708
0.00418708
0.00418708
0.00418707
0.00418708
0.00418708
0.00418709
0.00414736
0.00414735
0.00414733
0.00414729
0.00414725
0.00414721
0.0041472
0.00414723
0.00414727
0.0041473
0.0041473
0.00414731
0.00414732
0.00414733
0.00414734
0.00414734
0.00414735
0.00414734
0.00414732
0.00414731
0.00414729
0.00414728
0.00414728
0.00414729
0.00414728
0.00414729
0.00414729
0.00414729
0.00414728
0.00414729
0.00414728
0.00414728
0.00414728
0.00414729
0.00414728
0.00414729
0.00414728
0.00414728
0.00414728
0.0041473
0.00409356
0.00409355
0.00409353
0.00409348
0.00409344
0.00409339
0.00409338
0.00409342
0.00409347
0.00409349
0.00409349
0.0040935
0.00409351
0.00409352
0.00409352
0.00409353
0.00409353
0.00409352
0.00409351
0.00409349
0.00409347
0.00409347
0.00409347
0.00409347
0.00409347
0.00409347
0.00409348
0.00409348
0.00409348
0.00409347
0.00409347
0.00409346
0.00409347
0.00409348
0.00409347
0.00409348
0.00409347
0.00409347
0.00409347
0.0040935
0.00402465
0.00402464
0.00402462
0.00402457
0.00402453
0.00402448
0.00402446
0.00402451
0.00402456
0.00402458
0.00402459
0.0040246
0.0040246
0.0040246
0.00402461
0.00402461
0.00402462
0.00402461
0.00402459
0.00402457
0.00402455
0.00402456
0.00402455
0.00402455
0.00402456
0.00402457
0.00402456
0.00402455
0.00402456
0.00402456
0.00402455
0.00402455
0.00402456
0.00402456
0.00402456
0.00402456
0.00402456
0.00402456
0.00402456
0.00402458
0.00393931
0.00393931
0.00393929
0.00393924
0.0039392
0.00393913
0.00393912
0.00393918
0.00393923
0.00393926
0.00393926
0.00393927
0.00393926
0.00393926
0.00393927
0.00393927
0.00393928
0.00393926
0.00393924
0.00393922
0.00393921
0.00393922
0.00393922
0.00393922
0.00393923
0.00393923
0.00393921
0.00393923
0.00393922
0.00393922
0.00393921
0.00393922
0.00393922
0.00393922
0.00393923
0.00393922
0.00393923
0.00393922
0.00393922
0.00393924
0.00383604
0.00383603
0.00383601
0.00383597
0.00383591
0.00383584
0.00383584
0.0038359
0.00383595
0.00383598
0.00383598
0.00383599
0.00383598
0.00383598
0.00383598
0.00383599
0.00383599
0.00383597
0.00383595
0.00383593
0.00383593
0.00383592
0.00383594
0.00383594
0.00383595
0.00383593
0.00383594
0.00383594
0.00383593
0.00383593
0.00383594
0.00383593
0.00383593
0.00383594
0.00383595
0.00383595
0.00383595
0.00383593
0.00383593
0.00383595
0.00371305
0.00371305
0.00371302
0.00371298
0.00371292
0.00371285
0.00371285
0.00371292
0.00371297
0.003713
0.003713
0.003713
0.00371298
0.00371299
0.00371299
0.003713
0.00371301
0.00371297
0.00371295
0.00371293
0.00371293
0.00371294
0.00371295
0.00371295
0.00371294
0.00371294
0.00371294
0.00371294
0.00371293
0.00371295
0.00371295
0.00371294
0.00371295
0.00371297
0.00371296
0.00371296
0.00371295
0.00371293
0.00371294
0.00371296
0.00356829
0.00356828
0.00356826
0.00356822
0.00356815
0.00356808
0.00356809
0.00356816
0.00356822
0.00356824
0.00356824
0.00356822
0.00356822
0.00356822
0.00356823
0.00356825
0.00356824
0.0035682
0.00356818
0.00356817
0.00356816
0.00356817
0.00356817
0.00356817
0.00356817
0.00356817
0.00356817
0.00356818
0.00356817
0.00356818
0.00356818
0.00356819
0.0035682
0.00356821
0.00356819
0.00356819
0.00356817
0.00356816
0.00356817
0.00356819
0.00339924
0.00339923
0.0033992
0.00339916
0.00339909
0.00339903
0.00339905
0.00339912
0.00339917
0.00339918
0.00339917
0.00339916
0.00339916
0.00339917
0.00339918
0.00339919
0.00339918
0.00339915
0.00339912
0.00339911
0.0033991
0.00339911
0.00339911
0.00339911
0.00339911
0.00339911
0.00339912
0.00339912
0.00339912
0.00339913
0.00339913
0.00339914
0.00339915
0.00339915
0.00339913
0.00339913
0.00339912
0.00339911
0.00339912
0.00339914
0.00320274
0.00320272
0.00320269
0.00320265
0.00320258
0.00320253
0.00320257
0.00320261
0.00320264
0.00320265
0.00320265
0.00320264
0.00320264
0.00320265
0.00320267
0.00320268
0.00320266
0.00320263
0.00320261
0.00320259
0.00320259
0.0032026
0.0032026
0.0032026
0.0032026
0.0032026
0.00320262
0.00320261
0.00320262
0.00320261
0.00320261
0.00320262
0.00320263
0.00320263
0.00320262
0.00320262
0.00320262
0.00320261
0.00320261
0.00320263
0.00297469
0.00297467
0.00297464
0.00297459
0.00297454
0.00297451
0.00297453
0.00297456
0.00297458
0.00297459
0.00297459
0.00297458
0.00297459
0.0029746
0.00297462
0.00297463
0.00297461
0.00297458
0.00297455
0.00297454
0.00297454
0.00297455
0.00297455
0.00297454
0.00297454
0.00297455
0.00297456
0.00297455
0.00297456
0.00297456
0.00297456
0.00297456
0.00297457
0.00297457
0.00297457
0.00297458
0.00297457
0.00297455
0.00297456
0.00297458
0.00270973
0.00270971
0.00270966
0.00270963
0.00270959
0.00270956
0.00270958
0.0027096
0.00270961
0.00270962
0.00270962
0.00270962
0.00270963
0.00270964
0.00270966
0.00270966
0.00270964
0.00270961
0.00270959
0.00270958
0.00270958
0.00270958
0.00270958
0.00270958
0.00270958
0.00270959
0.00270959
0.00270959
0.00270959
0.00270959
0.00270959
0.0027096
0.00270961
0.00270961
0.00270961
0.0027096
0.0027096
0.0027096
0.00270959
0.00270961
0.00240072
0.00240069
0.00240065
0.00240063
0.0024006
0.00240059
0.00240059
0.00240061
0.00240061
0.00240062
0.00240062
0.00240063
0.00240064
0.00240065
0.00240066
0.00240066
0.00240064
0.00240061
0.00240059
0.00240058
0.00240058
0.00240059
0.00240058
0.00240059
0.00240059
0.00240059
0.00240059
0.00240059
0.00240059
0.0024006
0.0024006
0.0024006
0.00240061
0.0024006
0.0024006
0.0024006
0.0024006
0.00240059
0.00240059
0.0024006
0.00203829
0.00203829
0.00203827
0.00203826
0.00203824
0.00203823
0.00203824
0.00203824
0.00203825
0.00203825
0.00203826
0.00203827
0.00203827
0.00203828
0.00203829
0.00203829
0.00203827
0.00203825
0.00203823
0.00203822
0.00203822
0.00203822
0.00203822
0.00203822
0.00203822
0.00203823
0.00203823
0.00203823
0.00203823
0.00203823
0.00203823
0.00203823
0.00203823
0.00203823
0.00203823
0.00203823
0.00203823
0.00203823
0.00203823
0.00203822
0.00161099
0.001611
0.001611
0.00161099
0.00161098
0.00161098
0.00161098
0.00161098
0.00161099
0.00161099
0.001611
0.001611
0.00161101
0.00161101
0.00161102
0.00161101
0.001611
0.00161098
0.00161097
0.00161096
0.00161096
0.00161096
0.00161096
0.00161096
0.00161096
0.00161096
0.00161096
0.00161097
0.00161097
0.00161097
0.00161097
0.00161097
0.00161097
0.00161097
0.00161097
0.00161097
0.00161096
0.00161096
0.00161096
0.00161094
0.00110824
0.00110825
0.00110825
0.00110825
0.00110825
0.00110825
0.00110825
0.00110825
0.00110825
0.00110826
0.00110826
0.00110826
0.00110827
0.00110827
0.00110827
0.00110827
0.00110826
0.00110825
0.00110824
0.00110823
0.00110823
0.00110823
0.00110823
0.00110823
0.00110823
0.00110824
0.00110824
0.00110824
0.00110824
0.00110824
0.00110824
0.00110824
0.00110824
0.00110824
0.00110824
0.00110824
0.00110823
0.00110823
0.00110823
0.00110821
0.000543472
0.000543477
0.00054348
0.000543481
0.000543482
0.000543482
0.000543483
0.000543484
0.000543485
0.000543487
0.000543489
0.000543491
0.000543492
0.000543493
0.000543493
0.000543492
0.000543487
0.000543483
0.000543479
0.000543476
0.000543475
0.000543475
0.000543475
0.000543475
0.000543475
0.000543476
0.000543476
0.000543476
0.000543477
0.000543476
0.000543476
0.000543475
0.000543475
0.000543475
0.000543475
0.000543475
0.000543475
0.000543475
0.000543474
0.000543467
9.47814e-05
9.47815e-05
9.47816e-05
9.47817e-05
9.47817e-05
9.47818e-05
9.47818e-05
9.4782e-05
9.47821e-05
9.47823e-05
9.47825e-05
9.47827e-05
9.47829e-05
9.4783e-05
9.4783e-05
9.4783e-05
9.47827e-05
9.47823e-05
9.4782e-05
9.47817e-05
9.47815e-05
9.47815e-05
9.47815e-05
9.47814e-05
9.47814e-05
9.47815e-05
9.47815e-05
9.47815e-05
9.47815e-05
9.47815e-05
9.47815e-05
9.47815e-05
9.47814e-05
9.47814e-05
9.47814e-05
9.47815e-05
9.47814e-05
9.47814e-05
9.47814e-05
9.47814e-05
)
;

boundaryField
{
    bottomWall
    {
        type            nutkWallFunction;
        Cmu             0.09;
        kappa           0.41;
        E               9.8;
        value           nonuniform List<scalar> 
40
(
3.51594e-07
3.5162e-07
3.51642e-07
3.51654e-07
3.51662e-07
3.51675e-07
3.51697e-07
3.51726e-07
3.51762e-07
3.51796e-07
3.51824e-07
3.51845e-07
3.51858e-07
3.5186e-07
3.51853e-07
3.5182e-07
3.51763e-07
3.51709e-07
3.51675e-07
3.51665e-07
3.51666e-07
3.51671e-07
3.51672e-07
3.51668e-07
3.51644e-07
3.51613e-07
3.51598e-07
3.51594e-07
3.51595e-07
3.51595e-07
3.51595e-07
3.51596e-07
3.51596e-07
3.51596e-07
3.51596e-07
3.51596e-07
3.51595e-07
3.51596e-07
3.51596e-07
3.51586e-07
)
;
    }
    topWall
    {
        type            nutkWallFunction;
        Cmu             0.09;
        kappa           0.41;
        E               9.8;
        value           nonuniform List<scalar> 
40
(
3.51456e-07
3.51467e-07
3.51485e-07
3.515e-07
3.51509e-07
3.51525e-07
3.51549e-07
3.51582e-07
3.5162e-07
3.51656e-07
3.51688e-07
3.51713e-07
3.51727e-07
3.51728e-07
3.51718e-07
3.51675e-07
3.51614e-07
3.5156e-07
3.51515e-07
3.51485e-07
3.5147e-07
3.51463e-07
3.51461e-07
3.51461e-07
3.51462e-07
3.51463e-07
3.51465e-07
3.51467e-07
3.51468e-07
3.51466e-07
3.51462e-07
3.5146e-07
3.51459e-07
3.51459e-07
3.5146e-07
3.51462e-07
3.51461e-07
3.51461e-07
3.51461e-07
3.51452e-07
)
;
    }
    sides1_half0
    {
        type            empty;
    }
    sides1_half1
    {
        type            empty;
    }
    sides2_half0
    {
        type            empty;
    }
    sides2_half1
    {
        type            empty;
    }
    inout1_half0
    {
        type            cyclic;
    }
    inout1_half1
    {
        type            cyclic;
    }
    inout2_half0
    {
        type            cyclic;
    }
    inout2_half1
    {
        type            cyclic;
    }
}


// ************************************************************************* //
