/*--------------------------------*- C++ -*----------------------------------*\
  =========                 |
  \\      /  F ield         | OpenFOAM: The Open Source CFD Toolbox
   \\    /   O peration     | Website:  https://openfoam.org
    \\  /    A nd           | Version:  dev
     \\/     M anipulation  |

   OpenFOAM for Windows 20.09 (v1)
   Built by CFD Support, www.cfdsupport.com (based on Symscape).
\*---------------------------------------------------------------------------*/
FoamFile
{
    version     2.0;
    format      ascii;
    class       volScalarField;
    location    "20";
    object      p;
}
// * * * * * * * * * * * * * * * * * * * * * * * * * * * * * * * * * * * * * //

dimensions      [0 2 -2 0 0 0 0];

internalField   nonuniform List<scalar> 
1600
(
5.17556e-10
-8.26794e-10
-3.81863e-10
1.58996e-09
3.64653e-09
4.16974e-09
3.31792e-09
2.25656e-09
1.83095e-09
1.93842e-09
2.08455e-09
2.09074e-09
2.05214e-09
2.1815e-09
2.52306e-09
3.25101e-09
3.74805e-09
3.29245e-09
2.19504e-09
1.51527e-09
1.53532e-09
1.76572e-09
2.01887e-09
2.47897e-09
2.79884e-09
2.56011e-09
2.20324e-09
2.1689e-09
2.36104e-09
2.59693e-09
2.64947e-09
2.71666e-09
2.75977e-09
2.92391e-09
2.97362e-09
3.16305e-09
3.13346e-09
3.29348e-09
3.94578e-09
2.82017e-09
8.42956e-10
-4.88182e-10
2.41539e-11
1.98612e-09
3.68098e-09
4.03158e-09
3.26206e-09
2.36536e-09
2.01209e-09
2.098e-09
2.22883e-09
2.25189e-09
2.25609e-09
2.32521e-09
2.5723e-09
2.95447e-09
3.20125e-09
2.81296e-09
1.98419e-09
1.52423e-09
1.63957e-09
1.85409e-09
2.08348e-09
2.41068e-09
2.52836e-09
2.33717e-09
2.1501e-09
2.20892e-09
2.39391e-09
2.62591e-09
2.65262e-09
2.7421e-09
2.75337e-09
2.90261e-09
2.97049e-09
3.10306e-09
3.06556e-09
3.32729e-09
3.65718e-09
2.54103e-09
1.64971e-09
4.09212e-11
5.12626e-10
2.46281e-09
3.76251e-09
3.89808e-09
3.09838e-09
2.27528e-09
1.98899e-09
2.0707e-09
2.20549e-09
2.27292e-09
2.27733e-09
2.33392e-09
2.5064e-09
2.74155e-09
2.85951e-09
2.5473e-09
1.97126e-09
1.69255e-09
1.79639e-09
1.94126e-09
2.07835e-09
2.25068e-09
2.29083e-09
2.22762e-09
2.19944e-09
2.30167e-09
2.44522e-09
2.62778e-09
2.64749e-09
2.77985e-09
2.73163e-09
2.86066e-09
2.93674e-09
3.01121e-09
2.99613e-09
3.29651e-09
2.95862e-09
2.29127e-09
2.74662e-09
3.98052e-10
8.9199e-10
2.83474e-09
3.79055e-09
3.73155e-09
2.89814e-09
2.15379e-09
1.97234e-09
2.07398e-09
2.20656e-09
2.29347e-09
2.31628e-09
2.33314e-09
2.42525e-09
2.54027e-09
2.53999e-09
2.29494e-09
1.98026e-09
1.86232e-09
1.9217e-09
1.98845e-09
2.04339e-09
2.08559e-09
2.09732e-09
2.15948e-09
2.24036e-09
2.35741e-09
2.46497e-09
2.604e-09
2.64978e-09
2.79598e-09
2.69126e-09
2.78352e-09
2.89172e-09
2.89617e-09
2.96683e-09
3.16072e-09
2.15392e-09
2.55408e-09
3.65029e-09
3.92884e-10
1.10317e-09
3.0644e-09
3.68214e-09
3.47769e-09
2.70429e-09
2.1077e-09
2.02525e-09
2.13817e-09
2.2607e-09
2.34244e-09
2.38202e-09
2.35937e-09
2.34634e-09
2.32649e-09
2.23086e-09
2.0667e-09
2.00523e-09
2.01081e-09
1.99079e-09
1.98658e-09
1.9999e-09
1.96998e-09
1.97001e-09
2.11722e-09
2.25513e-09
2.38536e-09
2.46053e-09
2.57847e-09
2.66682e-09
2.76912e-09
2.64261e-09
2.70713e-09
2.82978e-09
2.76312e-09
2.97918e-09
2.87762e-09
1.67892e-09
3.43449e-09
4.06999e-09
1.52487e-10
1.1838e-09
3.13682e-09
3.46198e-09
3.15852e-09
2.57739e-09
2.18669e-09
2.13263e-09
2.22474e-09
2.32654e-09
2.41016e-09
2.46907e-09
2.41286e-09
2.26991e-09
2.10104e-09
1.9574e-09
1.90044e-09
2.04051e-09
2.11727e-09
2.01709e-09
1.97766e-09
1.98668e-09
1.91476e-09
1.91155e-09
2.10838e-09
2.26543e-09
2.40361e-09
2.44959e-09
2.56308e-09
2.67839e-09
2.70569e-09
2.58916e-09
2.6432e-09
2.74507e-09
2.63784e-09
3.00252e-09
2.55899e-09
1.72556e-09
4.53359e-09
4.04292e-09
-1.2968e-10
1.18631e-09
3.10051e-09
3.19512e-09
2.8633e-09
2.56311e-09
2.35018e-09
2.2671e-09
2.31241e-09
2.38282e-09
2.47725e-09
2.54645e-09
2.44541e-09
2.19306e-09
1.90568e-09
1.73534e-09
1.79223e-09
2.06593e-09
2.16954e-09
2.04089e-09
2.00131e-09
1.99968e-09
1.90778e-09
1.92702e-09
2.13514e-09
2.28012e-09
2.41065e-09
2.44619e-09
2.56798e-09
2.65943e-09
2.6068e-09
2.54273e-09
2.5907e-09
2.66461e-09
2.56516e-09
3.04262e-09
2.33345e-09
2.03277e-09
5.40258e-09
3.76533e-09
-3.81295e-10
1.15652e-09
3.00149e-09
2.94648e-09
2.64549e-09
2.60014e-09
2.54456e-09
2.43369e-09
2.41463e-09
2.44353e-09
2.51534e-09
2.56532e-09
2.43093e-09
2.12613e-09
1.76707e-09
1.57178e-09
1.72277e-09
2.07286e-09
2.18995e-09
2.08459e-09
2.05263e-09
2.0274e-09
1.95161e-09
1.99276e-09
2.16436e-09
2.30087e-09
2.41979e-09
2.45661e-09
2.56663e-09
2.58393e-09
2.50009e-09
2.54395e-09
2.57627e-09
2.63476e-09
2.5632e-09
3.07553e-09
2.20638e-09
2.37655e-09
5.90497e-09
3.42047e-09
-5.36926e-10
1.11279e-09
2.87236e-09
2.737e-09
2.47846e-09
2.62998e-09
2.73602e-09
2.63496e-09
2.53048e-09
2.49612e-09
2.52144e-09
2.52761e-09
2.37765e-09
2.05893e-09
1.6738e-09
1.4859e-09
1.69928e-09
2.06645e-09
2.20135e-09
2.13967e-09
2.10769e-09
2.07535e-09
2.02113e-09
2.05708e-09
2.19058e-09
2.33423e-09
2.43292e-09
2.46289e-09
2.53298e-09
2.48469e-09
2.45648e-09
2.60307e-09
2.59973e-09
2.65587e-09
2.59452e-09
3.06346e-09
2.13395e-09
2.65491e-09
6.07572e-09
3.14473e-09
-5.47509e-10
1.06505e-09
2.72797e-09
2.55478e-09
2.33614e-09
2.64995e-09
2.89572e-09
2.81598e-09
2.62302e-09
2.52549e-09
2.51486e-09
2.46298e-09
2.29603e-09
1.98853e-09
1.63653e-09
1.49099e-09
1.71912e-09
2.05803e-09
2.20543e-09
2.1835e-09
2.15105e-09
2.12402e-09
2.07783e-09
2.10133e-09
2.22293e-09
2.36476e-09
2.44459e-09
2.45965e-09
2.48201e-09
2.43806e-09
2.50624e-09
2.66399e-09
2.63003e-09
2.69873e-09
2.6144e-09
3.00947e-09
2.11004e-09
2.83716e-09
5.9901e-09
2.97443e-09
-4.34519e-10
1.01429e-09
2.56439e-09
2.4051e-09
2.23086e-09
2.64822e-09
2.98879e-09
2.91809e-09
2.67347e-09
2.54445e-09
2.49843e-09
2.38993e-09
2.21687e-09
1.95025e-09
1.66516e-09
1.55954e-09
1.76277e-09
2.05539e-09
2.19881e-09
2.20207e-09
2.177e-09
2.15316e-09
2.11233e-09
2.13487e-09
2.25326e-09
2.38314e-09
2.44886e-09
2.45614e-09
2.44949e-09
2.46142e-09
2.57794e-09
2.69194e-09
2.6575e-09
2.72763e-09
2.62067e-09
2.94757e-09
2.16009e-09
2.95084e-09
5.74495e-09
2.86903e-09
-2.38388e-10
9.70799e-10
2.39956e-09
2.29356e-09
2.16515e-09
2.60997e-09
2.98572e-09
2.93907e-09
2.70772e-09
2.56727e-09
2.47282e-09
2.33505e-09
2.17191e-09
1.95919e-09
1.73646e-09
1.64836e-09
1.81137e-09
2.05297e-09
2.17869e-09
2.19771e-09
2.1898e-09
2.16482e-09
2.13769e-09
2.17771e-09
2.27757e-09
2.38028e-09
2.43656e-09
2.44599e-09
2.44715e-09
2.50685e-09
2.61357e-09
2.69117e-09
2.67188e-09
2.74233e-09
2.64551e-09
2.90359e-09
2.27394e-09
3.03423e-09
5.40566e-09
2.81714e-09
2.54965e-11
9.59858e-10
2.26029e-09
2.2205e-09
2.12429e-09
2.54194e-09
2.91126e-09
2.91249e-09
2.7411e-09
2.59051e-09
2.4531e-09
2.31284e-09
2.16594e-09
1.99584e-09
1.81297e-09
1.73059e-09
1.85501e-09
2.04582e-09
2.14791e-09
2.18547e-09
2.19436e-09
2.17328e-09
2.16882e-09
2.21967e-09
2.28739e-09
2.35715e-09
2.41046e-09
2.42947e-09
2.45805e-09
2.53233e-09
2.61889e-09
2.68193e-09
2.68614e-09
2.76585e-09
2.68396e-09
2.87847e-09
2.40514e-09
3.05607e-09
4.99693e-09
2.80392e-09
3.3855e-10
9.91004e-10
2.15239e-09
2.17714e-09
2.10421e-09
2.47042e-09
2.81663e-09
2.86995e-09
2.75809e-09
2.60135e-09
2.44427e-09
2.31209e-09
2.18073e-09
2.03516e-09
1.87692e-09
1.80398e-09
1.89442e-09
2.03463e-09
2.11629e-09
2.17041e-09
2.19034e-09
2.1826e-09
2.20149e-09
2.24157e-09
2.27928e-09
2.33328e-09
2.38885e-09
2.41972e-09
2.46658e-09
2.53871e-09
2.61381e-09
2.68191e-09
2.71334e-09
2.78147e-09
2.70787e-09
2.85781e-09
2.51749e-09
3.01188e-09
4.55777e-09
2.80032e-09
6.63829e-10
1.05341e-09
2.0633e-09
2.15349e-09
2.10798e-09
2.41706e-09
2.73208e-09
2.82237e-09
2.74578e-09
2.59255e-09
2.44158e-09
2.31758e-09
2.19827e-09
2.068e-09
1.93325e-09
1.87136e-09
1.92711e-09
2.02183e-09
2.08867e-09
2.14697e-09
2.17779e-09
2.1915e-09
2.22085e-09
2.24604e-09
2.26976e-09
2.32228e-09
2.3799e-09
2.41922e-09
2.47289e-09
2.54228e-09
2.61376e-09
2.68549e-09
2.72883e-09
2.77792e-09
2.71949e-09
2.83311e-09
2.59585e-09
2.94074e-09
4.14272e-09
2.7938e-09
9.63378e-10
1.12646e-09
1.98853e-09
2.14355e-09
2.13199e-09
2.38747e-09
2.66591e-09
2.76944e-09
2.70949e-09
2.57281e-09
2.43888e-09
2.32338e-09
2.21419e-09
2.098e-09
1.98391e-09
1.92449e-09
1.94933e-09
2.00899e-09
2.06325e-09
2.1183e-09
2.16026e-09
2.19199e-09
2.2241e-09
2.24559e-09
2.27236e-09
2.32541e-09
2.37931e-09
2.42584e-09
2.48221e-09
2.54811e-09
2.6159e-09
2.68529e-09
2.72719e-09
2.76315e-09
2.72474e-09
2.80259e-09
2.64319e-09
2.86515e-09
3.78179e-09
2.77826e-09
1.21811e-09
1.19866e-09
1.92735e-09
2.14195e-09
2.16684e-09
2.37744e-09
2.61552e-09
2.71235e-09
2.66557e-09
2.55179e-09
2.43504e-09
2.33074e-09
2.23075e-09
2.1248e-09
2.02172e-09
1.95949e-09
1.96098e-09
1.99628e-09
2.03891e-09
2.09003e-09
2.13963e-09
2.18372e-09
2.22153e-09
2.25001e-09
2.28469e-09
2.33446e-09
2.385e-09
2.43615e-09
2.49275e-09
2.55468e-09
2.6181e-09
2.68e-09
2.71456e-09
2.74417e-09
2.71975e-09
2.76916e-09
2.66889e-09
2.79222e-09
3.48081e-09
2.75019e-09
1.41358e-09
1.26068e-09
1.87983e-09
2.14372e-09
2.20308e-09
2.37982e-09
2.57735e-09
2.66053e-09
2.62582e-09
2.53429e-09
2.43527e-09
2.34077e-09
2.24499e-09
2.14268e-09
2.04414e-09
1.97866e-09
1.96365e-09
1.98226e-09
2.01607e-09
2.06396e-09
2.11904e-09
2.17354e-09
2.22018e-09
2.25914e-09
2.29907e-09
2.3444e-09
2.39438e-09
2.44801e-09
2.50342e-09
2.56207e-09
2.61931e-09
2.66915e-09
2.69672e-09
2.7215e-09
2.70523e-09
2.73819e-09
2.67728e-09
2.72768e-09
3.24304e-09
2.70847e-09
1.54123e-09
1.30407e-09
1.84374e-09
2.14403e-09
2.23369e-09
2.38801e-09
2.55222e-09
2.6229e-09
2.5975e-09
2.52342e-09
2.43778e-09
2.34914e-09
2.2538e-09
2.1514e-09
2.05437e-09
1.98482e-09
1.95763e-09
1.96474e-09
1.99354e-09
2.0412e-09
2.10222e-09
2.16514e-09
2.22063e-09
2.26784e-09
2.31106e-09
2.35614e-09
2.40649e-09
2.4602e-09
2.5145e-09
2.56947e-09
2.61775e-09
2.65633e-09
2.67859e-09
2.69751e-09
2.68724e-09
2.71104e-09
2.67154e-09
2.67642e-09
3.06723e-09
2.65726e-09
1.58748e-09
1.31306e-09
1.8138e-09
2.14037e-09
2.25383e-09
2.39903e-09
2.54326e-09
2.60434e-09
2.58246e-09
2.51752e-09
2.43972e-09
2.35407e-09
2.25741e-09
2.15283e-09
2.05352e-09
1.97858e-09
1.94192e-09
1.94163e-09
1.96964e-09
2.02163e-09
2.08969e-09
2.16e-09
2.22219e-09
2.27454e-09
2.32094e-09
2.36796e-09
2.41902e-09
2.47291e-09
2.52672e-09
2.57674e-09
2.61661e-09
2.64664e-09
2.66238e-09
2.67626e-09
2.67031e-09
2.68969e-09
2.6594e-09
2.64239e-09
2.95782e-09
2.60485e-09
1.52978e-09
1.26539e-09
1.78596e-09
2.13153e-09
2.26122e-09
2.4136e-09
2.55293e-09
2.60518e-09
2.57833e-09
2.51459e-09
2.44048e-09
2.35601e-09
2.25668e-09
2.14699e-09
2.04132e-09
1.95896e-09
1.9151e-09
1.9118e-09
1.94387e-09
2.00464e-09
2.08159e-09
2.15876e-09
2.22559e-09
2.28017e-09
2.3277e-09
2.37677e-09
2.43065e-09
2.48679e-09
2.54037e-09
2.5861e-09
2.61913e-09
2.64123e-09
2.64933e-09
2.66086e-09
2.6579e-09
2.67977e-09
2.64927e-09
2.63026e-09
2.92859e-09
2.55225e-09
1.36348e-09
1.15609e-09
1.75696e-09
2.11698e-09
2.25851e-09
2.43424e-09
2.5805e-09
2.62151e-09
2.58043e-09
2.51217e-09
2.43984e-09
2.35525e-09
2.25225e-09
2.13442e-09
2.01735e-09
1.92545e-09
1.87765e-09
1.8764e-09
1.91751e-09
1.99152e-09
2.07927e-09
2.16187e-09
2.23034e-09
2.28381e-09
2.33119e-09
2.38357e-09
2.44145e-09
2.50073e-09
2.5556e-09
2.59731e-09
2.6235e-09
2.63878e-09
2.63978e-09
2.65312e-09
2.65341e-09
2.68536e-09
2.64362e-09
2.64205e-09
2.9833e-09
2.49295e-09
1.10145e-09
9.98916e-10
1.72699e-09
2.09808e-09
2.25125e-09
2.46324e-09
2.62304e-09
2.6473e-09
2.58385e-09
2.50801e-09
2.43654e-09
2.35186e-09
2.24515e-09
2.11611e-09
1.98208e-09
1.87949e-09
1.83175e-09
1.8375e-09
1.89297e-09
1.98509e-09
2.08382e-09
2.16886e-09
2.23503e-09
2.28489e-09
2.33388e-09
2.38927e-09
2.44976e-09
2.51423e-09
2.5723e-09
2.60975e-09
2.62803e-09
2.63783e-09
2.63349e-09
2.6523e-09
2.65505e-09
2.70216e-09
2.63628e-09
2.67749e-09
3.11635e-09
2.42791e-09
7.50034e-10
8.08695e-10
1.70194e-09
2.07945e-09
2.24449e-09
2.50175e-09
2.67742e-09
2.67737e-09
2.58537e-09
2.50138e-09
2.43152e-09
2.34726e-09
2.23483e-09
2.09066e-09
1.93752e-09
1.82437e-09
1.77846e-09
1.79601e-09
1.87337e-09
1.98678e-09
2.09351e-09
2.17772e-09
2.24017e-09
2.28623e-09
2.33538e-09
2.39245e-09
2.45691e-09
2.52938e-09
2.58924e-09
2.62207e-09
2.63291e-09
2.63863e-09
2.6298e-09
2.65386e-09
2.65515e-09
2.72067e-09
2.61816e-09
2.73692e-09
3.32783e-09
2.37452e-09
3.60746e-10
6.10441e-10
1.69349e-09
2.06696e-09
2.24267e-09
2.55132e-09
2.73844e-09
2.70508e-09
2.58347e-09
2.4948e-09
2.42805e-09
2.34264e-09
2.22266e-09
2.06006e-09
1.88424e-09
1.75917e-09
1.71774e-09
1.75402e-09
1.86184e-09
1.99391e-09
2.10183e-09
2.18706e-09
2.24848e-09
2.28827e-09
2.33412e-09
2.39835e-09
2.46963e-09
2.54537e-09
2.60196e-09
2.63021e-09
2.63706e-09
2.64117e-09
2.62651e-09
2.65518e-09
2.64742e-09
2.73773e-09
2.58327e-09
2.81424e-09
3.61893e-09
2.34317e-09
3.185e-15
4.6669e-10
1.71768e-09
2.06601e-09
2.25365e-09
2.61331e-09
2.79508e-09
2.71973e-09
2.57866e-09
2.49309e-09
2.42889e-09
2.34077e-09
2.21188e-09
2.02527e-09
1.82013e-09
1.68239e-09
1.65267e-09
1.71795e-09
1.85912e-09
1.99787e-09
2.10575e-09
2.19889e-09
2.25516e-09
2.29188e-09
2.34586e-09
2.41687e-09
2.4816e-09
2.55133e-09
2.60678e-09
2.63303e-09
2.63904e-09
2.64409e-09
2.62272e-09
2.65707e-09
2.63437e-09
2.75836e-09
2.5269e-09
2.89547e-09
3.97454e-09
2.3288e-09
-3.19927e-10
4.25984e-10
1.79105e-09
2.08312e-09
2.28656e-09
2.67919e-09
2.82992e-09
2.71319e-09
2.57106e-09
2.49904e-09
2.43546e-09
2.34075e-09
2.19843e-09
1.98614e-09
1.75032e-09
1.60191e-09
1.59225e-09
1.6945e-09
1.85914e-09
1.99391e-09
2.10695e-09
2.20566e-09
2.25974e-09
2.3112e-09
2.383e-09
2.43524e-09
2.47798e-09
2.54735e-09
2.60832e-09
2.63546e-09
2.64056e-09
2.64862e-09
2.6166e-09
2.65622e-09
2.6209e-09
2.78722e-09
2.44338e-09
2.96981e-09
4.382e-09
2.34956e-09
-5.76541e-10
4.52572e-10
1.90571e-09
2.13141e-09
2.34095e-09
2.72758e-09
2.82457e-09
2.68292e-09
2.55754e-09
2.50223e-09
2.43859e-09
2.33886e-09
2.18796e-09
1.95802e-09
1.68588e-09
1.52939e-09
1.54661e-09
1.68224e-09
1.85299e-09
1.98842e-09
2.10933e-09
2.19998e-09
2.27248e-09
2.35272e-09
2.41679e-09
2.43561e-09
2.4694e-09
2.55285e-09
2.62485e-09
2.63785e-09
2.63599e-09
2.65303e-09
2.60647e-09
2.6598e-09
2.60968e-09
2.80636e-09
2.32537e-09
3.02414e-09
4.82361e-09
2.41229e-09
-7.80562e-10
5.16595e-10
2.05917e-09
2.22004e-09
2.40415e-09
2.73167e-09
2.76618e-09
2.62144e-09
2.52925e-09
2.48902e-09
2.43118e-09
2.34667e-09
2.20393e-09
1.9485e-09
1.63649e-09
1.47863e-09
1.5171e-09
1.67622e-09
1.8491e-09
1.98956e-09
2.11016e-09
2.19097e-09
2.29168e-09
2.38481e-09
2.42196e-09
2.4319e-09
2.48153e-09
2.58434e-09
2.64793e-09
2.63087e-09
2.62751e-09
2.65363e-09
2.6044e-09
2.68069e-09
2.59069e-09
2.80167e-09
2.1784e-09
3.03272e-09
5.25704e-09
2.52452e-09
-9.18281e-10
6.15038e-10
2.24242e-09
2.34762e-09
2.45369e-09
2.66346e-09
2.63536e-09
2.52209e-09
2.48357e-09
2.46412e-09
2.42834e-09
2.38388e-09
2.24485e-09
1.94968e-09
1.61244e-09
1.45516e-09
1.50743e-09
1.68571e-09
1.86075e-09
1.99685e-09
2.10857e-09
2.19352e-09
2.3035e-09
2.37746e-09
2.40728e-09
2.43436e-09
2.5154e-09
2.629e-09
2.64851e-09
2.61127e-09
2.62709e-09
2.66204e-09
2.62262e-09
2.71495e-09
2.55731e-09
2.78557e-09
2.02319e-09
2.9596e-09
5.61977e-09
2.70716e-09
-9.61248e-10
7.26047e-10
2.4345e-09
2.49792e-09
2.4677e-09
2.51821e-09
2.44741e-09
2.39494e-09
2.42168e-09
2.44212e-09
2.45211e-09
2.44088e-09
2.29007e-09
1.96498e-09
1.61691e-09
1.46253e-09
1.53578e-09
1.7235e-09
1.88773e-09
2.01298e-09
2.11952e-09
2.20693e-09
2.28723e-09
2.34174e-09
2.37748e-09
2.42897e-09
2.55168e-09
2.65423e-09
2.63854e-09
2.60139e-09
2.63542e-09
2.68384e-09
2.66453e-09
2.75874e-09
2.50681e-09
2.76768e-09
1.89159e-09
2.79436e-09
5.86782e-09
2.95213e-09
-9.21718e-10
8.18357e-10
2.6145e-09
2.65077e-09
2.44769e-09
2.3266e-09
2.23428e-09
2.25864e-09
2.3569e-09
2.43995e-09
2.4943e-09
2.48989e-09
2.33012e-09
1.98223e-09
1.64508e-09
1.52257e-09
1.61498e-09
1.79008e-09
1.93122e-09
2.04999e-09
2.14522e-09
2.20481e-09
2.24359e-09
2.28569e-09
2.33367e-09
2.43384e-09
2.58388e-09
2.65378e-09
2.61945e-09
2.587e-09
2.63887e-09
2.70412e-09
2.72848e-09
2.79453e-09
2.46229e-09
2.76598e-09
1.81007e-09
2.56285e-09
5.96067e-09
3.19994e-09
-8.19595e-10
8.85674e-10
2.77042e-09
2.80355e-09
2.42758e-09
2.13877e-09
2.04368e-09
2.14153e-09
2.31076e-09
2.44931e-09
2.51917e-09
2.50926e-09
2.33619e-09
1.99003e-09
1.71747e-09
1.65246e-09
1.74741e-09
1.88477e-09
2.00325e-09
2.10748e-09
2.15324e-09
2.1737e-09
2.19027e-09
2.21636e-09
2.3117e-09
2.46332e-09
2.59982e-09
2.6262e-09
2.56581e-09
2.54201e-09
2.62813e-09
2.7298e-09
2.7868e-09
2.81244e-09
2.47338e-09
2.79475e-09
1.81671e-09
2.28226e-09
5.81709e-09
3.33003e-09
-6.25945e-10
9.65003e-10
2.90344e-09
2.96454e-09
2.44207e-09
2.00458e-09
1.91639e-09
2.07156e-09
2.27394e-09
2.42201e-09
2.48875e-09
2.46872e-09
2.29395e-09
2.02429e-09
1.87554e-09
1.86479e-09
1.93321e-09
2.01339e-09
2.10197e-09
2.15957e-09
2.13062e-09
2.12562e-09
2.13406e-09
2.17745e-09
2.33261e-09
2.48477e-09
2.58048e-09
2.55479e-09
2.4796e-09
2.48778e-09
2.63398e-09
2.75174e-09
2.80957e-09
2.83446e-09
2.54665e-09
2.83965e-09
1.94679e-09
1.97151e-09
5.30916e-09
3.20771e-09
-2.84761e-10
1.07911e-09
2.98982e-09
3.11339e-09
2.49922e-09
1.9615e-09
1.86474e-09
2.0285e-09
2.20314e-09
2.32008e-09
2.38995e-09
2.37274e-09
2.25401e-09
2.13187e-09
2.13092e-09
2.16645e-09
2.17505e-09
2.17971e-09
2.20805e-09
2.1846e-09
2.09707e-09
2.07936e-09
2.09834e-09
2.18781e-09
2.34997e-09
2.47098e-09
2.52714e-09
2.45522e-09
2.41031e-09
2.48351e-09
2.66275e-09
2.74326e-09
2.8157e-09
2.85801e-09
2.64498e-09
2.88227e-09
2.1963e-09
1.67377e-09
4.35713e-09
2.78552e-09
7.93253e-11
1.1043e-09
2.9484e-09
3.20001e-09
2.58798e-09
2.00772e-09
1.85557e-09
1.95809e-09
2.07581e-09
2.1701e-09
2.25776e-09
2.27426e-09
2.26766e-09
2.3214e-09
2.45632e-09
2.54009e-09
2.48586e-09
2.38936e-09
2.31077e-09
2.18881e-09
2.07234e-09
2.051e-09
2.0876e-09
2.20096e-09
2.33341e-09
2.42675e-09
2.458e-09
2.37954e-09
2.40292e-09
2.52103e-09
2.68916e-09
2.72343e-09
2.82425e-09
2.85947e-09
2.73817e-09
2.90587e-09
2.52097e-09
1.64137e-09
3.203e-09
2.15607e-09
1.41691e-10
8.53557e-10
2.69044e-09
3.19121e-09
2.69404e-09
2.0908e-09
1.84034e-09
1.85987e-09
1.94227e-09
2.03467e-09
2.13809e-09
2.20777e-09
2.33362e-09
2.55738e-09
2.81729e-09
2.95781e-09
2.85908e-09
2.64173e-09
2.41161e-09
2.18896e-09
2.05584e-09
2.02937e-09
2.07526e-09
2.18608e-09
2.29947e-09
2.37824e-09
2.39709e-09
2.34899e-09
2.45142e-09
2.57108e-09
2.7133e-09
2.71171e-09
2.82078e-09
2.83436e-09
2.81519e-09
2.90769e-09
2.81404e-09
1.98735e-09
2.39487e-09
1.4867e-09
-1.26112e-10
3.4971e-10
2.2097e-09
3.08108e-09
2.78596e-09
2.15588e-09
1.8083e-09
1.78251e-09
1.86633e-09
1.95386e-09
2.05461e-09
2.17458e-09
2.42043e-09
2.80173e-09
3.18689e-09
3.38015e-09
3.24266e-09
2.90286e-09
2.50512e-09
2.18245e-09
2.02769e-09
1.99961e-09
2.05707e-09
2.16293e-09
2.26559e-09
2.33515e-09
2.35577e-09
2.35476e-09
2.52688e-09
2.62914e-09
2.73516e-09
2.70213e-09
2.79918e-09
2.7996e-09
2.86103e-09
2.91428e-09
2.98937e-09
2.57347e-09
2.17456e-09
1.03483e-09
-3.89162e-10
-1.99225e-10
1.60443e-09
2.9025e-09
2.8331e-09
2.1696e-09
1.74307e-09
1.71077e-09
1.82407e-09
1.90323e-09
1.98019e-09
2.17882e-09
2.48207e-09
3.01247e-09
3.55436e-09
3.79365e-09
3.60401e-09
3.15098e-09
2.59208e-09
2.16825e-09
1.9898e-09
1.97137e-09
2.04739e-09
2.15209e-09
2.23897e-09
2.29801e-09
2.33682e-09
2.3825e-09
2.59958e-09
2.6929e-09
2.74806e-09
2.69976e-09
2.76633e-09
2.77121e-09
2.88376e-09
2.92832e-09
3.06392e-09
3.06907e-09
2.25731e-09
8.87706e-10
-4.31617e-10
-5.87405e-10
1.05031e-09
2.75921e-09
2.87001e-09
2.10627e-09
1.54593e-09
1.48552e-09
1.62717e-09
1.70548e-09
1.77879e-09
1.96446e-09
2.37286e-09
3.07123e-09
3.95047e-09
4.31792e-09
4.08909e-09
3.52615e-09
2.80351e-09
2.25161e-09
2.02105e-09
1.98581e-09
2.06069e-09
2.15927e-09
2.22623e-09
2.27292e-09
2.31571e-09
2.40821e-09
2.64231e-09
2.76813e-09
2.75738e-09
2.7063e-09
2.75073e-09
2.71921e-09
2.9031e-09
2.94339e-09
3.05436e-09
3.27657e-09
2.36615e-09
)
;

boundaryField
{
    bottomWall
    {
        type            zeroGradient;
    }
    topWall
    {
        type            zeroGradient;
    }
    sides1_half0
    {
        type            empty;
    }
    sides1_half1
    {
        type            empty;
    }
    sides2_half0
    {
        type            empty;
    }
    sides2_half1
    {
        type            empty;
    }
    inout1_half0
    {
        type            cyclic;
    }
    inout1_half1
    {
        type            cyclic;
    }
    inout2_half0
    {
        type            cyclic;
    }
    inout2_half1
    {
        type            cyclic;
    }
}


// ************************************************************************* //
