/*--------------------------------*- C++ -*----------------------------------*\
  =========                 |
  \\      /  F ield         | OpenFOAM: The Open Source CFD Toolbox
   \\    /   O peration     | Website:  https://openfoam.org
    \\  /    A nd           | Version:  dev
     \\/     M anipulation  |

   OpenFOAM for Windows 20.09 (v1)
   Built by CFD Support, www.cfdsupport.com (based on Symscape).
\*---------------------------------------------------------------------------*/
FoamFile
{
    version     2.0;
    format      ascii;
    class       surfaceScalarField;
    location    "20";
    object      phi;
}
// * * * * * * * * * * * * * * * * * * * * * * * * * * * * * * * * * * * * * //

dimensions      [0 3 -1 0 0 0 0];

internalField   nonuniform List<scalar> 
3120
(
0.000724656
-4.86855e-10
0.000724656
-2.53499e-10
0.000724656
8.36968e-11
0.000724656
-5.74464e-11
0.000724656
-1.61993e-10
0.000724656
-1.32527e-10
0.000724656
-8.79737e-11
0.000724656
-8.34464e-11
0.000724657
-1.17742e-10
0.000724657
-1.43776e-10
0.000724657
-1.41002e-10
0.000724657
-1.037e-10
0.000724657
-3.47871e-11
0.000724657
2.80348e-11
0.000724657
8.34445e-11
0.000724657
1.31322e-10
0.000724657
1.68812e-10
0.000724656
1.80537e-10
0.000724656
1.52884e-10
0.000724656
8.06729e-11
0.000724656
1.11321e-11
0.000724656
-1.06352e-11
0.000724656
3.26592e-12
0.000724656
4.79911e-11
0.000724656
1.08901e-10
0.000724656
1.26211e-10
0.000724656
8.75218e-11
0.000724656
5.91651e-11
0.000724656
1.39393e-11
0.000724656
1.82419e-11
0.000724656
3.52036e-12
0.000724656
2.04424e-11
0.000724656
-1.10224e-11
0.000724656
7.81852e-12
0.000724656
7.82443e-12
0.000724656
-3.04872e-11
0.000724656
8.21066e-11
0.000724656
-1.02649e-10
0.000724655
2.36179e-10
2.15878e-10
0.000834586
-7.34611e-10
0.000834586
-9.18302e-11
0.000834586
2.55222e-10
0.000834586
2.61072e-11
0.000834586
-1.59213e-10
0.000834586
-1.78067e-10
0.000834586
-1.25285e-10
0.000834586
-1.11568e-10
0.000834586
-1.62393e-10
0.000834586
-2.09041e-10
0.000834586
-2.09375e-10
0.000834586
-1.5278e-10
0.000834586
-5.56959e-11
0.000834586
3.52111e-11
0.000834586
9.646e-11
0.000834586
1.34727e-10
0.000834586
1.67897e-10
0.000834586
1.96495e-10
0.000834586
1.86751e-10
0.000834586
1.12674e-10
0.000834586
3.42415e-11
0.000834586
1.11539e-11
0.000834586
2.55926e-11
0.000834586
6.59888e-11
0.000834586
1.23416e-10
0.000834586
1.46728e-10
0.000834586
1.14834e-10
0.000834586
8.50908e-11
0.000834586
3.07758e-11
0.000834586
3.62329e-11
0.000834586
1.40102e-11
0.000834586
2.79667e-11
0.000834586
-7.72001e-12
0.000834586
2.86159e-11
0.000834586
-7.81379e-12
0.000834586
1.42207e-11
0.000834586
4.07666e-11
0.000834586
-4.13995e-11
0.000834586
3.70406e-10
-1.34792e-10
0.000898257
-6.47019e-10
0.000898257
1.79604e-10
0.000898257
3.86857e-10
0.000898257
9.81137e-11
0.000898257
-1.31702e-10
0.000898257
-1.89385e-10
0.000898257
-1.36767e-10
0.000898257
-1.17903e-10
0.000898257
-1.78631e-10
0.000898257
-2.39715e-10
0.000898257
-2.46048e-10
0.000898257
-1.82676e-10
0.000898257
-7.67465e-11
0.000898257
1.6426e-11
0.000898257
6.77622e-11
0.000898257
8.64291e-11
0.000898257
1.10593e-10
0.000898257
1.55163e-10
0.000898257
1.73157e-10
0.000898257
1.22777e-10
0.000898257
5.8733e-11
0.000898257
3.94057e-11
0.000898257
4.45883e-11
0.000898257
6.34251e-11
0.000898257
1.00762e-10
0.000898257
1.24942e-10
0.000898257
1.1233e-10
0.000898257
9.38348e-11
0.000898257
4.50677e-11
0.000898257
4.73176e-11
0.000898257
2.31659e-11
0.000898257
3.64655e-11
0.000898257
5.99137e-12
0.000898257
4.18226e-11
0.000898257
-8.06598e-12
0.000898257
5.00585e-11
0.000898257
-4.67474e-14
0.000898257
5.96542e-11
0.000898257
2.95542e-10
-4.85282e-10
0.000951496
-3.62125e-10
0.000951496
4.05066e-10
0.000951496
4.46301e-10
0.000951496
1.35247e-10
0.000951496
-1.11319e-10
0.000951496
-1.89169e-10
0.000951496
-1.39636e-10
0.000951496
-1.19225e-10
0.000951496
-1.80272e-10
0.000951496
-2.48927e-10
0.000951496
-2.61369e-10
0.000951496
-1.99342e-10
0.000951496
-9.80881e-11
0.000951496
-1.53212e-11
0.000951496
1.9803e-11
0.000951496
1.89148e-11
0.000951496
3.36984e-11
0.000951496
9.21441e-11
0.000951496
1.40655e-10
0.000951496
1.2182e-10
0.000951496
7.89121e-11
0.000951496
6.25565e-11
0.000951496
5.30262e-11
0.000951496
4.55261e-11
0.000951496
6.14499e-11
0.000951496
8.7705e-11
0.000951496
9.52913e-11
0.000951496
8.95867e-11
0.000951496
5.17992e-11
0.000951496
5.25799e-11
0.000951496
3.03562e-11
0.000951496
4.36945e-11
0.000951496
2.06278e-11
0.000951496
4.74007e-11
0.000951496
3.84594e-12
0.000951496
6.88354e-11
0.000951496
-1.36143e-11
0.000951496
1.24652e-10
0.000951496
1.30998e-10
-6.24084e-10
0.00100158
-2.67854e-11
0.00100158
5.35691e-10
0.00100158
4.43124e-10
0.00100158
1.40314e-10
0.00100158
-1.03663e-10
0.00100158
-1.90054e-10
0.00100158
-1.43166e-10
0.00100158
-1.17017e-10
0.00100158
-1.70488e-10
0.00100158
-2.40189e-10
0.00100158
-2.57503e-10
0.00100158
-2.03521e-10
0.00100158
-1.15036e-10
0.00100158
-4.93857e-11
0.00100158
-3.3934e-11
0.00100158
-5.3079e-11
0.00100158
-4.71632e-11
0.00100158
2.35936e-11
0.00100158
1.01871e-10
0.00100158
1.14221e-10
0.00100158
9.08166e-11
0.00100158
7.41791e-11
0.00100158
4.92374e-11
0.00100158
1.90469e-11
0.00100158
1.78653e-11
0.00100158
4.63767e-11
0.00100158
6.94965e-11
0.00100158
7.52968e-11
0.00100158
5.00611e-11
0.00100158
5.20773e-11
0.00100158
3.49773e-11
0.00100158
4.73651e-11
0.00100158
3.23289e-11
0.00100158
5.06496e-11
0.00100158
1.97301e-11
0.00100158
7.40387e-11
0.00100158
-5.23256e-12
0.00100158
1.42894e-10
0.00100158
-5.53718e-12
-5.43496e-10
0.00105075
2.6276e-10
0.00105075
5.7461e-10
0.00105075
3.96251e-10
0.00105075
1.22553e-10
0.00105075
-1.07319e-10
0.00105075
-1.95388e-10
0.00105075
-1.44636e-10
0.00105075
-1.07021e-10
0.00105075
-1.50669e-10
0.00105075
-2.17826e-10
0.00105075
-2.38918e-10
0.00105075
-1.95168e-10
0.00105075
-1.2271e-10
0.00105075
-7.70223e-11
0.00105075
-8.41094e-11
0.00105075
-1.22197e-10
0.00105075
-1.23314e-10
0.00105075
-4.14027e-11
0.00105075
6.22326e-11
0.00105075
1.01823e-10
0.00105075
9.26233e-11
0.00105075
7.44366e-11
0.00105075
3.8287e-11
0.00105075
-9.58819e-12
0.00105075
-2.35141e-11
0.00105075
5.79545e-12
0.00105075
3.84677e-11
0.00105075
5.40132e-11
0.00105075
4.08152e-11
0.00105075
4.52554e-11
0.00105075
3.62377e-11
0.00105075
4.8047e-11
0.00105075
3.93031e-11
0.00105075
5.28928e-11
0.00105075
3.39009e-11
0.00105075
7.06266e-11
0.00105075
1.49352e-11
0.00105075
1.35853e-10
0.00105075
-6.01356e-11
-3.2078e-10
0.00109997
4.64644e-10
0.00109997
5.47055e-10
0.00109997
3.25714e-10
0.00109997
9.23994e-11
0.00109997
-1.16774e-10
0.00109997
-1.98742e-10
0.00109997
-1.37003e-10
0.00109997
-8.73191e-11
0.00109997
-1.22937e-10
0.00109997
-1.87116e-10
0.00109997
-2.10077e-10
0.00109997
-1.7483e-10
0.00109997
-1.18979e-10
0.00109997
-9.47194e-11
0.00109997
-1.25621e-10
0.00109997
-1.82407e-10
0.00109997
-1.89075e-10
0.00109997
-9.80524e-11
0.00109997
2.408e-11
0.00109997
8.41412e-11
0.00109997
8.66378e-11
0.00109997
6.82717e-11
0.00109997
2.3585e-11
0.00109997
-3.5607e-11
0.00109998
-5.72359e-11
0.00109998
-3.06839e-11
0.00109998
5.24948e-12
0.00109998
2.82485e-11
0.00109998
2.53064e-11
0.00109998
3.4036e-11
0.00109998
3.41274e-11
0.00109998
4.45256e-11
0.00109998
4.10918e-11
0.00109998
5.21576e-11
0.00109998
4.33409e-11
0.00109998
6.59976e-11
0.00109998
4.32342e-11
0.00109998
1.26724e-10
0.00109998
-3.90304e-11
-5.43564e-11
0.00114972
5.76075e-10
0.00114972
4.77713e-10
0.00114972
2.46202e-10
0.00114972
5.75507e-11
0.00114972
-1.25199e-10
0.00114972
-1.93811e-10
0.00114972
-1.19157e-10
0.00114972
-5.9687e-11
0.00114972
-8.93741e-11
0.00114972
-1.48395e-10
0.00114972
-1.71783e-10
0.00114972
-1.46278e-10
0.00114972
-1.07019e-10
0.00114972
-1.03671e-10
0.00114972
-1.559e-10
0.00114972
-2.28465e-10
0.00114972
-2.40154e-10
0.00114972
-1.43951e-10
0.00114972
-1.12284e-11
0.00114972
6.25938e-11
0.00114972
7.60466e-11
0.00114972
5.90525e-11
0.00114972
8.7561e-12
0.00114972
-5.46711e-11
0.00114972
-8.09242e-11
0.00114972
-6.15781e-11
0.00114972
-2.65037e-11
0.00114972
8.78921e-13
0.00114972
6.00287e-12
0.00114972
1.98088e-11
0.00114972
2.67575e-11
0.00114972
3.60818e-11
0.00114972
3.97744e-11
0.00114972
4.92018e-11
0.00114972
5.02999e-11
0.00114972
6.53393e-11
0.00114972
7.46299e-11
0.00114972
1.24961e-10
0.00114972
2.28454e-11
1.87178e-10
0.00120028
6.1424e-10
0.00120028
3.88389e-10
0.00120028
1.6671e-10
0.00120028
2.22563e-11
0.00120028
-1.30555e-10
0.00120028
-1.81143e-10
0.00120028
-9.56557e-11
0.00120028
-2.75477e-11
0.00120028
-4.8906e-11
0.00120028
-1.02264e-10
0.00120028
-1.27549e-10
0.00120028
-1.13706e-10
0.00120028
-9.07861e-11
0.00120028
-1.05819e-10
0.00120028
-1.74505e-10
0.00120028
-2.57825e-10
0.00120028
-2.73145e-10
0.00120028
-1.76877e-10
0.00120028
-4.21898e-11
0.00120028
3.97339e-11
0.00120028
6.28531e-11
0.00120028
4.85382e-11
0.00120028
-2.80288e-12
0.00120028
-6.57417e-11
0.00120028
-9.60263e-11
0.00120028
-8.54231e-11
0.00120028
-5.35824e-11
0.00120028
-2.57571e-11
0.00120028
-1.41232e-11
0.00120028
3.73548e-12
0.00120028
1.42168e-11
0.00120028
2.56333e-11
0.00120028
3.74957e-11
0.00120028
4.63215e-11
0.00120028
5.62073e-11
0.00120028
6.84982e-11
0.00120028
1.01606e-10
0.00120028
1.28146e-10
0.00120028
9.6586e-11
3.70762e-10
0.00125183
6.04432e-10
0.00125183
2.97747e-10
0.00125183
9.26829e-11
0.00125183
-1.26463e-11
0.00125183
-1.34276e-10
0.00125183
-1.65248e-10
0.00125183
-7.07408e-11
0.00125183
5.66201e-12
0.00125183
-4.93691e-12
0.00125183
-5.36913e-11
0.00125183
-8.28431e-11
0.00125183
-7.9794e-11
0.00125183
-7.24956e-11
0.00125183
-1.02554e-10
0.00125183
-1.81675e-10
0.00125183
-2.69273e-10
0.00125183
-2.86674e-10
0.00125183
-1.95978e-10
0.00125183
-6.70792e-11
0.00125183
1.75525e-11
0.00125183
4.83643e-11
0.00125183
3.75097e-11
0.00125183
-1.12964e-11
0.00125183
-7.12525e-11
0.00125183
-1.04445e-10
0.00125183
-1.01455e-10
0.00125183
-7.47499e-11
0.00125183
-4.82975e-11
0.00125183
-3.26667e-11
0.00125183
-1.26508e-11
0.00125183
1.34353e-12
0.00125183
1.72607e-11
0.00125183
3.37688e-11
0.00125183
4.34279e-11
0.00125183
6.14267e-11
0.00125183
7.20548e-11
0.00125183
1.19904e-10
0.00125183
1.32721e-10
0.00125183
1.61934e-10
4.88928e-10
0.00130449
5.68616e-10
0.00130449
2.16858e-10
0.00130449
2.71046e-11
0.00130449
-4.6845e-11
0.00130449
-1.37671e-10
0.00130449
-1.49392e-10
0.00130449
-4.80197e-11
0.00130449
3.55711e-11
0.00130449
3.48079e-11
0.00130449
-8.87555e-12
0.00130449
-4.10218e-11
0.00130449
-4.72277e-11
0.00130449
-5.33031e-11
0.00130449
-9.4377e-11
0.00130449
-1.7757e-10
0.00130449
-2.64014e-10
0.00130449
-2.82592e-10
0.00130449
-2.01863e-10
0.00130449
-8.45029e-11
0.00130449
-2.19023e-12
0.00130449
3.29517e-11
0.00130449
2.54624e-11
0.00130449
-1.87115e-11
0.00130449
-7.36562e-11
0.00130449
-1.07841e-10
0.00130449
-1.10198e-10
0.00130449
-8.89434e-11
0.00130449
-6.47625e-11
0.00130449
-4.72137e-11
0.00130449
-2.66161e-11
0.00130449
-8.60378e-12
0.00130449
1.02698e-11
0.00130449
2.86545e-11
0.00130449
4.05253e-11
0.00130449
6.42259e-11
0.00130449
7.35563e-11
0.00130449
1.29533e-10
0.00130449
1.3836e-10
0.00130449
2.10046e-10
5.49469e-10
0.00135838
5.20091e-10
0.00135838
1.51944e-10
0.00135838
-2.6314e-11
0.00135838
-7.7906e-11
0.00135838
-1.40745e-10
0.00135838
-1.35054e-10
0.00135838
-3.12497e-11
0.00135838
5.63076e-11
0.00135838
6.48498e-11
0.00135838
2.83512e-11
0.00135838
-4.08597e-12
0.00135838
-1.78045e-11
0.00135838
-3.3983e-11
0.00135838
-8.1609e-11
0.00135838
-1.63707e-10
0.00135838
-2.451e-10
0.00135838
-2.64432e-10
0.00135838
-1.96272e-10
0.00135838
-9.40883e-11
0.00135838
-1.85345e-11
0.00135838
1.71188e-11
0.00135838
1.27639e-11
0.00135838
-2.54982e-11
0.00135838
-7.3817e-11
0.00135838
-1.06529e-10
0.00135838
-1.12726e-10
0.00135838
-9.68569e-11
0.00135838
-7.57544e-11
0.00135838
-5.75162e-11
0.00135838
-3.66857e-11
0.00135838
-1.63933e-11
0.00135838
3.30024e-12
0.00135838
2.27961e-11
0.00135838
3.71242e-11
0.00135838
6.36275e-11
0.00135838
7.35571e-11
0.00135838
1.32341e-10
0.00135838
1.4445e-10
0.00135838
2.40534e-10
5.63508e-10
0.00141357
4.66993e-10
0.00141357
1.06134e-10
0.00141357
-6.37227e-11
0.00141357
-1.01571e-10
0.00141357
-1.41734e-10
0.00141357
-1.23075e-10
0.00141357
-2.20345e-11
0.00141357
6.51737e-11
0.00141357
8.29006e-11
0.00141357
5.61959e-11
0.00141357
2.61679e-11
0.00141357
7.45405e-12
0.00141357
-1.54925e-11
0.00141357
-6.54295e-11
0.00141357
-1.42631e-10
0.00141357
-2.1649e-10
0.00141357
-2.36297e-10
0.00141357
-1.81669e-10
0.00141357
-9.63705e-11
0.00141357
-3.06354e-11
0.00141357
2.79095e-12
0.00141357
1.11334e-12
0.00141357
-3.07015e-11
0.00141357
-7.19323e-11
0.00141357
-1.01613e-10
0.00141357
-1.10632e-10
0.00141357
-1.00407e-10
0.00141357
-8.26458e-11
0.00141357
-6.45659e-11
0.00141357
-4.38586e-11
0.00141357
-2.3043e-11
0.00141357
-3.23174e-12
0.00141357
1.68878e-11
0.00141357
3.32439e-11
0.00141357
6.05925e-11
0.00141357
7.22077e-11
0.00141357
1.30092e-10
0.00141357
1.47917e-10
0.00141357
2.52165e-10
5.41756e-10
0.00147015
4.13195e-10
0.00147015
7.90219e-11
0.00147015
-8.283e-11
0.00147015
-1.14174e-10
0.00147015
-1.38336e-10
0.00147015
-1.12521e-10
0.00147015
-1.91562e-11
0.00147015
6.4e-11
0.00147015
8.93712e-11
0.00147015
7.34505e-11
0.00147015
4.79365e-11
0.00147015
2.69861e-11
0.00147015
7.86223e-13
0.00147015
-4.78629e-11
0.00147015
-1.1755e-10
0.00147015
-1.82325e-10
0.00147015
-2.01793e-10
0.00147015
-1.60191e-10
0.00147015
-9.19581e-11
0.00147015
-3.7407e-11
0.00147015
-7.96261e-12
0.00147015
-8.03675e-12
0.00147015
-3.37434e-11
0.00147015
-6.80284e-11
0.00147015
-9.48466e-11
0.00147015
-1.05933e-10
0.00147015
-1.00429e-10
0.00147015
-8.59738e-11
0.00147015
-6.88456e-11
0.00147015
-4.89188e-11
0.00147015
-2.85165e-11
0.00147015
-9.01451e-12
0.00147015
1.13972e-11
0.00147015
2.87342e-11
0.00147015
5.49108e-11
0.00147015
6.83179e-11
0.00147015
1.22768e-10
0.00147015
1.45733e-10
0.00147015
2.456e-10
4.94146e-10
0.0015282
3.58947e-10
0.0015282
6.64674e-11
0.0015282
-8.46994e-11
0.0015282
-1.14301e-10
0.0015282
-1.28638e-10
0.0015282
-1.01149e-10
0.0015282
-1.95103e-11
0.0015282
5.60911e-11
0.0015282
8.62807e-11
0.0015282
7.97415e-11
0.0015282
5.98332e-11
0.0015282
3.96684e-11
0.0015282
1.32951e-11
0.0015282
-3.12009e-11
0.0015282
-9.12922e-11
0.0015282
-1.457e-10
0.0015282
-1.63681e-10
0.0015282
-1.33637e-10
0.0015282
-8.13516e-11
0.0015282
-3.80987e-11
0.0015282
-1.40973e-11
0.0015282
-1.37452e-11
0.0015282
-3.41743e-11
0.0015282
-6.26914e-11
0.0015282
-8.7059e-11
0.0015282
-9.92883e-11
0.0015282
-9.72045e-11
0.0015282
-8.5971e-11
0.0015282
-7.05486e-11
0.0015282
-5.20712e-11
0.0015282
-3.27244e-11
0.0015282
-1.41052e-11
0.0015282
5.52362e-12
0.0015282
2.25782e-11
0.0015282
4.66039e-11
0.0015282
6.15081e-11
0.0015282
1.10246e-10
0.0015282
1.36292e-10
0.0015282
2.24262e-10
4.29603e-10
0.0015878
3.02765e-10
0.0015878
6.21784e-11
0.0015878
-7.28268e-11
0.0015878
-1.02185e-10
0.0015878
-1.11676e-10
0.0015878
-8.70741e-11
0.0015878
-2.01308e-11
0.0015878
4.47765e-11
0.0015878
7.5949e-11
0.0015878
7.6193e-11
0.0015878
6.22816e-11
0.0015878
4.50173e-11
0.0015878
2.10618e-11
0.0015878
-1.6853e-11
0.0015878
-6.57083e-11
0.0015878
-1.08871e-10
0.0015878
-1.24229e-10
0.0015878
-1.03484e-10
0.0015878
-6.50871e-11
0.0015878
-3.26066e-11
0.0015878
-1.49113e-11
0.0015878
-1.53663e-11
0.0015878
-3.21704e-11
0.0015878
-5.64076e-11
0.0015878
-7.8226e-11
0.0015878
-9.05252e-11
0.0015878
-9.10379e-11
0.0015878
-8.29716e-11
0.0015878
-6.97358e-11
0.0015878
-5.34301e-11
0.0015878
-3.59719e-11
0.0015878
-1.89487e-11
0.0015878
-1.11263e-12
0.0015878
1.47749e-11
0.0015878
3.62034e-11
0.0015878
5.16864e-11
0.0015878
9.29013e-11
0.0015878
1.19301e-10
0.0015878
1.91673e-10
3.54785e-10
0.00164905
2.42635e-10
0.00164905
6.03537e-11
0.00164905
-5.12816e-11
0.00164905
-7.93975e-11
0.00164905
-8.76627e-11
0.00164905
-6.94551e-11
0.00164905
-1.91503e-11
0.00164905
3.24511e-11
0.00164905
6.08151e-11
0.00164905
6.53259e-11
0.00164905
5.69294e-11
0.00164905
4.36061e-11
0.00164905
2.41426e-11
0.00164905
-5.41165e-12
0.00164905
-4.19856e-11
0.00164905
-7.34434e-11
0.00164905
-8.48293e-11
0.00164905
-7.06585e-11
0.00164905
-4.36683e-11
0.00164905
-2.11054e-11
0.00164905
-1.00698e-11
0.00164905
-1.27583e-11
0.00164905
-2.7766e-11
0.00164905
-4.88116e-11
0.00164905
-6.81396e-11
0.00164905
-7.99958e-11
0.00164905
-8.24889e-11
0.00164905
-7.72691e-11
0.00164905
-6.676e-11
0.00164905
-5.32422e-11
0.00164905
-3.83885e-11
0.00164905
-2.36133e-11
0.00164905
-8.26995e-12
0.00164905
5.74282e-12
0.00164905
2.41083e-11
0.00164905
3.86046e-11
0.00164905
7.12324e-11
0.00164905
9.53302e-11
0.00164905
1.50619e-10
2.73727e-10
0.00171201
1.76697e-10
0.00171201
5.66572e-11
0.00171201
-2.3823e-11
0.00171201
-4.82897e-11
0.00171201
-5.78317e-11
0.00171201
-4.85593e-11
0.00171201
-1.59553e-11
0.00171201
2.05169e-11
0.00171201
4.33102e-11
0.00171201
4.98267e-11
0.00171201
4.59759e-11
0.00171201
3.70694e-11
0.00171201
2.32598e-11
0.00171201
3.0888e-12
0.00171201
-2.06408e-11
0.00171201
-3.9944e-11
0.00171201
-4.58818e-11
0.00171201
-3.55516e-11
0.00171201
-1.75297e-11
0.00171201
-3.9017e-12
0.00171201
1.79372e-13
0.00171201
-5.9618e-12
0.00171201
-2.07262e-11
0.00171201
-3.96112e-11
0.00171201
-5.68279e-11
0.00171201
-6.81699e-11
0.00171201
-7.21446e-11
0.00171201
-6.94968e-11
0.00171201
-6.2037e-11
0.00171201
-5.16966e-11
0.00171201
-3.98459e-11
0.00171201
-2.78714e-11
0.00171201
-1.56264e-11
0.00171201
-4.09722e-12
0.00171201
1.04165e-11
0.00171201
2.24729e-11
0.00171201
4.59347e-11
0.00171201
6.51567e-11
0.00171201
1.0314e-10
1.88321e-10
0.00177678
1.03484e-10
0.00177678
4.91578e-11
0.00177678
6.92782e-12
0.00177678
-1.16453e-11
0.00177678
-2.417e-11
0.00177678
-2.55155e-11
0.00177678
-1.10968e-11
0.00177678
9.48622e-12
0.00177678
2.52058e-11
0.00177678
3.21477e-11
0.00177678
3.18793e-11
0.00177678
2.72453e-11
0.00177678
1.95035e-11
0.00177678
9.23859e-12
0.00177678
-1.23827e-12
0.00177678
-7.85671e-12
0.00177678
-6.99711e-12
0.00177678
1.80636e-12
0.00177678
1.29036e-11
0.00177678
1.83935e-11
0.00177678
1.52714e-11
0.00177678
4.6683e-12
0.00177678
-1.11821e-11
0.00177678
-2.89296e-11
0.00177678
-4.45925e-11
0.00177678
-5.53903e-11
0.00177678
-6.04106e-11
0.00177678
-6.0192e-11
0.00177678
-5.59187e-11
0.00177678
-4.89023e-11
0.00177678
-4.02822e-11
0.00177678
-3.15117e-11
0.00177678
-2.28021e-11
0.00177678
-1.43703e-11
0.00177678
-4.51933e-12
0.00177678
3.87252e-12
0.00177678
1.75005e-11
0.00177678
2.97137e-11
0.00177678
5.06264e-11
9.84927e-11
0.00184341
2.23914e-11
0.00184341
3.76096e-11
0.00184341
3.90085e-11
0.00184341
2.74007e-11
0.00184341
1.08409e-11
0.00184341
-2.14242e-12
0.00184341
-5.97111e-12
0.00184341
-9.9085e-13
0.00184341
7.55878e-12
0.00184341
1.4396e-11
0.00184341
1.70037e-11
0.00184341
1.61448e-11
0.00184341
1.43784e-11
0.00184341
1.42227e-11
0.00184341
1.73827e-11
0.00184341
2.40007e-11
0.00184341
3.26754e-11
0.00184341
4.15348e-11
0.00184341
4.70733e-11
0.00184341
4.4801e-11
0.00184341
3.40874e-11
0.00184341
1.81804e-11
0.00184341
2.35701e-13
0.00184341
-1.72177e-11
0.00184341
-3.16958e-11
0.00184341
-4.18543e-11
0.00184341
-4.76768e-11
0.00184341
-4.97747e-11
0.00184341
-4.86591e-11
0.00184341
-4.49221e-11
0.00184341
-3.96284e-11
0.00184341
-3.42757e-11
0.00184341
-2.94501e-11
0.00184341
-2.46792e-11
0.00184341
-2.01253e-11
0.00184341
-1.64816e-11
0.00184341
-1.34672e-11
0.00184341
-9.60732e-12
0.00184341
-5.80815e-12
3.5026e-12
0.00184341
-6.12546e-11
0.00184341
2.33241e-11
0.00184341
6.86004e-11
0.00184341
6.40446e-11
0.00184341
4.3415e-11
0.00184341
1.87222e-11
0.00184341
-2.51115e-12
0.00184341
-1.14261e-11
0.00184341
-8.45593e-12
0.00184341
-9.7369e-13
0.00184341
4.23759e-12
0.00184341
6.39648e-12
0.00184341
9.93939e-12
0.00184341
1.94452e-11
0.00184341
3.60519e-11
0.00184341
5.59279e-11
0.00184341
7.26001e-11
0.00184341
8.21013e-11
0.00184341
8.27208e-11
0.00184341
7.27157e-11
0.00184341
5.40551e-11
0.00184341
3.24127e-11
0.00184341
1.19665e-11
0.00184341
-5.45728e-12
0.00184341
-1.88436e-11
0.00184341
-2.83296e-11
0.00184341
-3.48554e-11
0.00184341
-3.89895e-11
0.00184341
-4.06998e-11
0.00184341
-3.99971e-11
0.00184341
-3.78036e-11
0.00184341
-3.58632e-11
0.00184341
-3.51604e-11
0.00184341
-3.42594e-11
0.00184341
-3.53234e-11
0.00184341
-3.69483e-11
0.00184341
-4.48376e-11
0.00184341
-4.96031e-11
0.00184341
-6.35186e-11
-9.35638e-11
0.00177678
-1.41961e-10
0.00177678
7.66731e-12
0.00177678
9.20237e-11
0.00177678
9.42336e-11
0.00177678
7.07104e-11
0.00177678
3.51594e-11
0.00177678
-1.97892e-12
0.00177678
-2.20859e-11
0.00177678
-2.18014e-11
0.00177678
-1.1899e-11
0.00177678
-3.99511e-12
0.00177678
3.51434e-13
0.00177678
8.06523e-12
0.00177678
2.60893e-11
0.00177678
5.53602e-11
0.00177678
8.78707e-11
0.00177678
1.11816e-10
0.00177678
1.21528e-10
0.00177678
1.17085e-10
0.00177678
9.90501e-11
0.00177678
7.21937e-11
0.00177678
4.50186e-11
0.00177678
2.24321e-11
0.00177678
5.24994e-12
0.00177678
-6.86329e-12
0.00177678
-1.56003e-11
0.00177678
-2.26034e-11
0.00177678
-2.83582e-11
0.00177678
-3.25465e-11
0.00177678
-3.45309e-11
0.00177678
-3.50697e-11
0.00177678
-3.63693e-11
0.00177678
-3.96932e-11
0.00177678
-4.23831e-11
0.00177678
-4.89284e-11
0.00177678
-5.55197e-11
0.00177678
-7.41139e-11
0.00177678
-8.68e-11
0.00177678
-1.19508e-10
-1.89294e-10
0.00171202
-2.20093e-10
0.00171202
-9.37922e-12
0.00171202
1.07794e-10
0.00171202
1.16155e-10
0.00171202
9.19734e-11
0.00171202
4.70048e-11
0.00171202
-4.49138e-12
0.00171202
-3.27824e-11
0.00171202
-3.15834e-11
0.00171202
-1.70471e-11
0.00171202
-6.23151e-12
0.00171202
-6.14838e-13
0.00171202
9.84519e-12
0.00171202
3.50726e-11
0.00171202
7.606e-11
0.00171202
1.20246e-10
0.00171202
1.50199e-10
0.00171202
1.58968e-10
0.00171202
1.48608e-10
0.00171202
1.21807e-10
0.00171202
8.66618e-11
0.00171202
5.46959e-11
0.00171202
3.07665e-11
0.00171202
1.43435e-11
0.00171202
3.90823e-12
0.00171202
-3.75245e-12
0.00171202
-1.09398e-11
0.00171202
-1.80753e-11
0.00171202
-2.44768e-11
0.00171202
-2.87403e-11
0.00171202
-3.16997e-11
0.00171202
-3.59273e-11
0.00171202
-4.30164e-11
0.00171202
-4.87437e-11
0.00171202
-6.02734e-11
0.00171202
-7.10319e-11
0.00171202
-9.99604e-11
0.00171202
-1.19275e-10
0.00171202
-1.72082e-10
-2.8389e-10
0.00164905
-2.96865e-10
0.00164905
-2.82963e-11
0.00164905
1.14074e-10
0.00164905
1.28518e-10
0.00164905
1.06945e-10
0.00164905
5.46003e-11
0.00164905
-9.33796e-12
0.00164905
-4.22283e-11
0.00164905
-3.6186e-11
0.00164905
-1.49565e-11
0.00164905
-1.31633e-12
0.00164905
4.39241e-12
0.00164905
1.59542e-11
0.00164905
4.67288e-11
0.00164905
9.81945e-11
0.00164905
1.52867e-10
0.00164905
1.87152e-10
0.00164905
1.93219e-10
0.00164905
1.75603e-10
0.00164905
1.39195e-10
0.00164905
9.62046e-11
0.00164905
6.08518e-11
0.00164905
3.64655e-11
0.00164905
2.13445e-11
0.00164905
1.33627e-11
0.00164905
7.13205e-12
0.00164905
-3.2131e-13
0.00164905
-8.52615e-12
0.00164905
-1.66147e-11
0.00164905
-2.26432e-11
0.00164905
-2.75401e-11
0.00164905
-3.43659e-11
0.00164905
-4.5103e-11
0.00164905
-5.33386e-11
0.00164905
-6.92379e-11
0.00164905
-8.29122e-11
0.00164905
-1.21656e-10
0.00164905
-1.45695e-10
0.00164905
-2.1918e-10
-3.76483e-10
0.0015878
-3.7278e-10
0.0015878
-5.26832e-11
0.0015878
1.09044e-10
0.0015878
1.30542e-10
0.0015878
1.15906e-10
0.0015878
5.88124e-11
0.0015878
-1.48435e-11
0.0015878
-4.78893e-11
0.0015878
-3.32566e-11
0.0015878
-4.26094e-12
0.0015878
1.15902e-11
0.0015878
1.59193e-11
0.0015878
2.65217e-11
0.0015878
6.07895e-11
0.0015878
1.21229e-10
0.0015878
1.84902e-10
0.0015878
2.21338e-10
0.0015878
2.22526e-10
0.0015878
1.96194e-10
0.0015878
1.49708e-10
0.0015878
1.00254e-10
0.0015878
6.30922e-11
0.0015878
3.9081e-11
0.0015878
2.64601e-11
0.0015878
2.13491e-11
0.0015878
1.62492e-11
0.0015878
8.89222e-12
0.0015878
4.75726e-13
0.0015878
-8.69187e-12
0.0015878
-1.61358e-11
0.0015878
-2.24316e-11
0.0015878
-3.16741e-11
0.0015878
-4.62372e-11
0.0015878
-5.65123e-11
0.0015878
-7.60455e-11
0.0015878
-9.13821e-11
0.0015878
-1.38992e-10
0.0015878
-1.64972e-10
0.0015878
-2.582e-10
-4.63887e-10
0.0015282
-4.46662e-10
0.0015282
-8.56859e-11
0.0015282
8.97631e-11
0.0015282
1.21141e-10
0.0015282
1.19614e-10
0.0015282
6.12144e-11
0.0015282
-1.7954e-11
0.0015282
-4.6396e-11
0.0015282
-2.06677e-11
0.0015282
1.60389e-11
0.0015282
3.28378e-11
0.0015282
3.39781e-11
0.0015282
4.13251e-11
0.0015282
7.66529e-11
0.0015282
1.4393e-10
0.0015282
2.14356e-10
0.0015282
2.50434e-10
0.0015282
2.44783e-10
0.0015282
2.08552e-10
0.0015282
1.5242e-10
0.0015282
9.8534e-11
0.0015282
6.10216e-11
0.0015282
3.8821e-11
0.0015282
2.97538e-11
0.0015282
2.73006e-11
0.0015282
2.3531e-11
0.0015282
1.74695e-11
0.0015282
9.1868e-12
0.0015282
-1.19666e-12
0.0015282
-9.56702e-12
0.0015282
-1.66816e-11
0.0015282
-2.84522e-11
0.0015282
-4.67208e-11
0.0015282
-5.83226e-11
0.0015282
-8.09675e-11
0.0015282
-9.68563e-11
0.0015282
-1.51445e-10
0.0015282
-1.76448e-10
0.0015282
-2.86573e-10
-5.4206e-10
0.00147015
-5.18609e-10
0.00147015
-1.32516e-10
0.00147015
5.3803e-11
0.00147015
1.01949e-10
0.00147015
1.18861e-10
0.00147015
6.42025e-11
0.00147015
-1.50088e-11
0.00147015
-3.48419e-11
0.00147015
2.85032e-12
0.00147015
4.62638e-11
0.00147015
6.2303e-11
0.00147015
5.81786e-11
0.00147015
5.9474e-11
0.00147015
9.26424e-11
0.00147015
1.63798e-10
0.00147015
2.3853e-10
0.00147015
2.71967e-10
0.00147015
2.57939e-10
0.00147015
2.11243e-10
0.00147015
1.46877e-10
0.00147015
9.04196e-11
0.00147015
5.43683e-11
0.00147015
3.6055e-11
0.00147015
3.09672e-11
0.00147015
3.18702e-11
0.00147015
3.07287e-11
0.00147015
2.5696e-11
0.00147015
1.65316e-11
0.00147015
4.90193e-12
0.00147015
-3.73748e-12
0.00147015
-1.06601e-11
0.00147015
-2.47023e-11
0.00147015
-4.67266e-11
0.00147015
-5.95081e-11
0.00147015
-8.47034e-11
0.00147015
-9.93767e-11
0.00147015
-1.57761e-10
0.00147015
-1.7989e-10
0.00147015
-3.0069e-10
-6.03689e-10
0.00141357
-5.85948e-10
0.00141357
-1.95827e-10
0.00141357
3.73194e-13
0.00141357
7.38595e-11
0.00141357
1.15805e-10
0.00141357
7.04841e-11
0.00141357
-3.31704e-12
0.00141357
-1.16346e-11
0.00141357
3.742e-11
0.00141357
8.5261e-11
0.00141357
9.85421e-11
0.00141357
8.69771e-11
0.00141357
7.88327e-11
0.00141357
1.06351e-10
0.00141357
1.78699e-10
0.00141357
2.55063e-10
0.00141357
2.83481e-10
0.00141357
2.59929e-10
0.00141357
2.03014e-10
0.00141357
1.32175e-10
0.00141357
7.55159e-11
0.00141357
4.34188e-11
0.00141357
3.11064e-11
0.00141357
3.13982e-11
0.00141357
3.66598e-11
0.00141357
3.78692e-11
0.00141357
3.25383e-11
0.00141357
2.20851e-11
0.00141357
9.66381e-12
0.00141357
1.58953e-12
0.00141357
-4.5275e-12
0.00141357
-2.1281e-11
0.00141357
-4.70753e-11
0.00141357
-6.0981e-11
0.00141357
-8.7534e-11
0.00141357
-9.92661e-11
0.00141357
-1.5727e-10
0.00141357
-1.76244e-10
0.00141357
-2.97289e-10
-6.39918e-10
0.00135838
-6.44845e-10
0.00135838
-2.76508e-10
0.00135838
-6.71754e-11
0.00135838
4.06288e-11
0.00135838
1.12909e-10
0.00135838
8.1819e-11
0.00135838
1.80456e-11
0.00135838
2.20268e-11
0.00135838
8.0205e-11
0.00135838
1.29475e-10
0.00135838
1.38341e-10
0.00135838
1.17674e-10
0.00135838
9.74235e-11
0.00135838
1.1669e-10
0.00135838
1.87472e-10
0.00135838
2.61821e-10
0.00135838
2.82403e-10
0.00135838
2.48461e-10
0.00135838
1.82413e-10
0.00135838
1.07803e-10
0.00135838
5.42552e-11
0.00135838
2.91792e-11
0.00135838
2.45142e-11
0.00135838
3.16191e-11
0.00135838
4.18702e-11
0.00135838
4.44063e-11
0.00135838
3.87712e-11
0.00135838
2.68814e-11
0.00135838
1.35352e-11
0.00135838
6.65282e-12
0.00135838
4.81417e-13
0.00135838
-1.98597e-11
0.00135838
-4.80036e-11
0.00135838
-6.26144e-11
0.00135838
-8.918e-11
0.00135838
-9.72306e-11
0.00135838
-1.50563e-10
0.00135838
-1.68336e-10
0.00135838
-2.73879e-10
-6.3958e-10
0.0013045
-6.87829e-10
0.0013045
-3.68946e-10
0.0013045
-1.43364e-10
0.0013045
6.27974e-12
0.0013045
1.11818e-10
0.0013045
9.81479e-11
0.0013045
4.62884e-11
0.0013045
6.10069e-11
0.0013045
1.25403e-10
0.0013045
1.74745e-10
0.0013045
1.78895e-10
0.0013045
1.48078e-10
0.0013045
1.14635e-10
0.0013045
1.2353e-10
0.0013045
1.8855e-10
0.0013045
2.56194e-10
0.0013045
2.65864e-10
0.0013045
2.21334e-10
0.0013045
1.4881e-10
0.0013045
7.4651e-11
0.0013045
2.77863e-11
0.0013045
1.19892e-11
0.0013045
1.68606e-11
0.0013045
3.20129e-11
0.0013045
4.67285e-11
0.0013045
5.11262e-11
0.0013045
4.53133e-11
0.0013045
3.10388e-11
0.0013045
1.69273e-11
0.0013045
9.81899e-12
0.0013045
3.47698e-12
0.0013045
-1.97173e-11
0.0013045
-4.85881e-11
0.0013045
-6.46282e-11
0.0013045
-8.95959e-11
0.0013045
-9.41653e-11
0.0013045
-1.38473e-10
0.0013045
-1.59833e-10
0.0013045
-2.30144e-10
-5.92022e-10
0.00125183
-7.01317e-10
0.00125183
-4.64153e-10
0.00125183
-2.22881e-10
0.00125183
-2.70532e-11
0.00125183
1.11843e-10
0.00125183
1.15472e-10
0.00125183
7.48936e-11
0.00125183
9.81682e-11
0.00125183
1.67219e-10
0.00125183
2.17831e-10
0.00125183
2.1855e-10
0.00125183
1.78113e-10
0.00125183
1.30977e-10
0.00125183
1.25865e-10
0.00125183
1.79714e-10
0.00125183
2.34914e-10
0.00125183
2.30895e-10
0.00125183
1.77549e-10
0.00125183
1.03205e-10
0.00125183
3.45168e-11
0.00125183
-2.7486e-12
0.00125183
-6.95266e-12
0.00125183
9.7509e-12
0.00125183
3.30299e-11
0.00125183
5.18428e-11
0.00125183
5.71134e-11
0.00125183
4.99264e-11
0.00125183
3.37891e-11
0.00125183
1.90129e-11
0.00125183
1.14217e-11
0.00125183
5.79434e-12
0.00125183
-1.96449e-11
0.00125183
-4.83167e-11
0.00125183
-6.68869e-11
0.00125183
-8.7394e-11
0.00125183
-9.24747e-11
0.00125183
-1.22171e-10
0.00125183
-1.53183e-10
0.00125183
-1.69232e-10
-4.86998e-10
0.00120028
-6.66996e-10
0.00120028
-5.51219e-10
0.00120028
-3.02466e-10
0.00120028
-5.9387e-11
0.00120028
1.097e-10
0.00120028
1.27353e-10
0.00120028
9.69486e-11
0.00120028
1.27346e-10
0.00120028
2.01896e-10
0.00120028
2.56853e-10
0.00120028
2.56915e-10
0.00120028
2.08718e-10
0.00120028
1.462e-10
0.00120028
1.21888e-10
0.00120028
1.57489e-10
0.00120028
1.9446e-10
0.00120028
1.76167e-10
0.00120028
1.17881e-10
0.00120028
4.76114e-11
0.00120028
-1.08924e-11
0.00120028
-3.52384e-11
0.00120028
-2.42133e-11
0.00120028
4.44756e-12
0.00120028
3.37888e-11
0.00120028
5.60646e-11
0.00120028
6.04913e-11