/*--------------------------------*- C++ -*----------------------------------*\
  =========                 |
  \\      /  F ield         | OpenFOAM: The Open Source CFD Toolbox
   \\    /   O peration     | Website:  https://openfoam.org
    \\  /    A nd           | Version:  dev
     \\/     M anipulation  |

   OpenFOAM for Windows 20.09 (v1)
   Built by CFD Support, www.cfdsupport.com (based on Symscape).
\*---------------------------------------------------------------------------*/
FoamFile
{
    version     2.0;
    format      ascii;
    class       surfaceScalarField;
    location    "2";
    object      alphaPhi0.water;
}
// * * * * * * * * * * * * * * * * * * * * * * * * * * * * * * * * * * * * * //

dimensions      [0 3 -1 0 0 0 0];

internalField   nonuniform List<scalar> 
217
(
8.50223e-54
-6.04831e-59
4.14732e-54
-5.76733e-60
9.94888e-52
4.88457e-55
-9.5345e-58
4.87313e-52
9.33118e-57
-4.88957e-62
4.35688e-57
-4.59618e-63
4.92388e-55
1.80941e-58
-2.99543e-61
2.1395e-55
8.61656e-60
-3.26798e-65
4.00446e-60
-3.05192e-66
1.84837e-58
4.36978e-62
-6.46391e-65
7.38522e-59
6.85597e-63
-1.74387e-68
3.18637e-63
-1.65556e-69
4.70851e-62
4.02813e-66
-7.49158e-69
1.94526e-62
4.66879e-66
-7.0076e-72
2.11353e-66
-8.07497e-73
6.61895e-66
-6.46241e-75
-7.43031e-73
3.52239e-66
2.72892e-69
-1.99084e-75
9.39057e-70
-2.25023e-76
5.7117e-70
-5.44247e-76
-6.84645e-76
3.52333e-70
1.50664e-72
-2.4703e-79
7.70332e-73
5.33844e-80
6.72166e-73
-1.1701e-78
-6.46817e-79
4.25278e-73
9.49754e-76
2.88155e-82
6.6512e-76
2.42011e-82
8.0598e-76
-2.07249e-81
-5.08277e-82
6.05453e-76
7.78545e-79
5.77631e-85
6.34156e-79
4.39868e-85
9.63412e-79
-3.27859e-84
-2.51271e-85
8.10633e-79
6.46992e-82
8.06116e-88
5.20216e-82
5.20021e-88
1.15737e-81
-5.05356e-87
1.44713e-88
1.06442e-81
4.93385e-85
6.57592e-91
5.43207e-85
6.81678e-91
1.45611e-84
-7.50376e-90
7.2479e-91
1.39942e-84
3.06271e-88
5.11111e-94
6.26002e-88
7.52368e-94
1.8822e-87
-1.07882e-92
1.39422e-93
1.84897e-87
1.85787e-91
5.79827e-97
6.01718e-91
8.5573e-97
2.44344e-90
-1.53886e-95
2.34553e-96
2.48172e-90
2.2441e-94
1.14079e-99
6.44118e-94
1.21011e-99
3.21798e-93
-2.19864e-98
3.26103e-99
3.41545e-93
2.96728e-97
7.25377e-97
4.39e-96
4.74424e-96
9.58601e-53
-6.07111e-59
4.76247e-53
-3.69388e-60
5.60237e-53
1.31692e-59
1.03033e-55
3.76005e-56
-2.01792e-63
2.14445e-56
-2.66145e-63
2.75015e-56
3.62882e-63
1.0612e-58
1.17579e-59
6.55239e-66
7.61396e-60
-1.43295e-66
1.22086e-59
5.57996e-68
8.73517e-62
4.7522e-63
1.39625e-67
2.99531e-63
-8.26345e-70
6.05185e-63
-8.43665e-70
5.87726e-65
2.9172e-66
5.98552e-70
1.56264e-66
-3.85884e-73
3.51734e-66
-9.17968e-73
3.10188e-68
1.22619e-69
1.34978e-73
6.65607e-70
-2.74306e-76
1.98171e-69
-9.3373e-76
1.17551e-71
7.9219e-73
1.53094e-78
4.29787e-73
-2.72711e-79
1.24451e-72
-8.17342e-79
2.58813e-75
7.17865e-76
2.75913e-81
3.79822e-76
-3.53701e-82
6.08051e-76
-7.49494e-82
1.90607e-79
8.37288e-79
4.61759e-84
4.00391e-79
-5.3117e-85
2.94743e-79
-8.63848e-85
-4.27732e-87
1.12864e-81
6.63259e-87
5.1031e-82
-8.28176e-88
1.90177e-82
-1.25765e-87
-1.16811e-88
1.58779e-84
1.26194e-88
7.69121e-85
-1.29898e-90
2.21452e-85
-1.92951e-90
-3.46114e-91
2.31781e-87
4.72033e-91
1.2547e-87
-1.711e-93
2.96982e-88
-3.10094e-93
-8.11416e-94
3.52883e-90
1.11764e-93
1.91353e-90
-2.06783e-96
4.57132e-91
-5.01797e-96
-1.60214e-96
5.4578e-93
2.15568e-96
2.88826e-93
-1.83641e-99
6.96128e-94
-7.78949e-99
-2.5145e-99
8.35491e-96
4.30374e-96
9.77655e-97
)
;

boundaryField
{
    topWall
    {
        type            calculated;
        value           nonuniform List<scalar> 0();
    }
    botWall
    {
        type            calculated;
        value           nonuniform List<scalar> 0();
    }
    inlet
    {
        type            cyclic;
        value           nonuniform List<scalar> 
15
(
-1.26717e-52
-1.30337e-55
-1.18161e-58
-9.32867e-62
-6.22254e-65
-3.36533e-68
-1.36509e-71
-3.4153e-75
-3.93687e-79
-9.78083e-83
-1.42096e-85
-1.89234e-88
-2.46319e-91
-3.39337e-94
-4.16472e-97
)
;
    }
    outlet
    {
        type            cyclic;
        value           nonuniform List<scalar> 
15
(
1.26717e-52
1.30337e-55
1.18161e-58
9.32867e-62
6.22254e-65
3.36533e-68
1.36509e-71
3.4153e-75
3.93687e-79
9.78083e-83
1.42096e-85
1.89234e-88
2.46319e-91
3.39337e-94
4.16472e-97
)
;
    }
    fixWall
    {
        type            empty;
        value           nonuniform List<scalar> 0();
    }
    procBoundary5to4
    {
        type            processor;
        value           nonuniform List<scalar> 8(6.12892e-56 6.13678e-57 -1.00254e-51 2.32855e-54 2.50075e-55 -3.9782e-56 -6.98735e-56 -7.09178e-53);
    }
    procBoundary5to6
    {
        type            processor;
        value           nonuniform List<scalar> 8(6.55584e-100 1.38064e-102 -2.873e-102 1.92845e-100 1.01423e-98 3.85055e-104 -8.10542e-102 -2.92016e-102);
    }
}


// ************************************************************************* //
