/*--------------------------------*- C++ -*----------------------------------*\
  =========                 |
  \\      /  F ield         | OpenFOAM: The Open Source CFD Toolbox
   \\    /   O peration     | Website:  https://openfoam.org
    \\  /    A nd           | Version:  dev
     \\/     M anipulation  |

   OpenFOAM for Windows 20.09 (v1)
   Built by CFD Support, www.cfdsupport.com (based on Symscape).
\*---------------------------------------------------------------------------*/
FoamFile
{
    version     2.0;
    format      ascii;
    class       volSymmTensorField;
    location    "2";
    object      devReff;
}
// * * * * * * * * * * * * * * * * * * * * * * * * * * * * * * * * * * * * * //

dimensions      [0 2 -2 0 0 0 0];

internalField   nonuniform List<symmTensor> 
120
(
(3.54666e-07 -0.000218474 -0 -3.90748e-07 -0 3.60821e-08)
(-6.24797e-08 -0.000214454 -0 1.26814e-07 -0 -6.4334e-08)
(-3.48512e-07 -0.0002166 -0 2.72525e-07 -0 7.59875e-08)
(1.56827e-07 -0.000217044 -0 -3.76441e-10 -0 -1.56451e-07)
(2.52745e-07 -0.000161713 -0 -1.65954e-07 -0 -8.67905e-08)
(7.33729e-08 -0.000158626 -0 -1.16484e-07 -0 4.31111e-08)
(-5.22635e-07 -0.000160078 -0 5.91689e-07 -0 -6.90536e-08)
(3.88183e-07 -0.000160396 -0 -4.57819e-07 -0 6.96362e-08)
(4.28255e-07 -0.000118436 -0 -4.92527e-07 -0 6.42719e-08)
(1.6926e-08 -0.000115864 -0 2.2872e-08 -0 -3.9798e-08)
(-4.39066e-07 -0.000116907 -0 3.93797e-07 -0 4.52689e-08)
(2.80863e-07 -0.000117191 -0 -2.26401e-07 -0 -5.44625e-08)
(3.31637e-07 -8.56275e-05 -0 -2.79321e-07 -0 -5.23161e-08)
(1.26531e-07 -8.37303e-05 -0 -1.71698e-07 -0 4.51667e-08)
(-5.27213e-07 -8.43521e-05 -0 5.55887e-07 -0 -2.86736e-08)
(3.49054e-07 -8.44666e-05 -0 -3.63112e-07 -0 1.40589e-08)
(4.1697e-07 -6.11662e-05 -0 -4.30634e-07 -0 1.36634e-08)
(9.5808e-08 -5.97264e-05 -0 -9.20986e-08 -0 -3.70937e-09)
(-5.19178e-07 -6.0076e-05 -0 5.29074e-07 -0 -9.89615e-09)
(3.6474e-07 -6.01469e-05 -0 -3.84791e-07 -0 2.00503e-08)
(4.28813e-07 -4.30862e-05 -0 -4.35879e-07 -0 7.06611e-09)
(1.01453e-07 -4.21292e-05 -0 -8.51754e-08 -0 -1.62774e-08)
(-4.8068e-07 -4.2187e-05 -0 4.48594e-07 -0 3.20859e-08)
(2.91024e-07 -4.20949e-05 -0 -2.41431e-07 -0 -4.95932e-08)
(3.55986e-07 -2.97996e-05 -0 -2.81461e-07 -0 -7.45254e-08)
(2.28985e-07 -2.93564e-05 -0 -3.2824e-07 -0 9.92555e-08)
(-4.95031e-07 -2.91707e-05 -0 4.82101e-07 -0 1.29296e-08)
(3.57339e-07 -2.90345e-05 -0 -3.7282e-07 -0 1.54815e-08)
(4.93584e-07 -2.01895e-05 -0 -5.52291e-07 -0 5.87071e-08)
(6.61463e-08 -2.02151e-05 -0 6.27848e-09 -0 -7.24248e-08)
(-4.97697e-07 -1.97694e-05 -0 4.93613e-07 -0 4.08438e-09)
(2.80797e-07 -1.94733e-05 -0 -2.29677e-07 -0 -5.11206e-08)
(3.41722e-07 -1.32587e-05 -0 -2.53404e-07 -0 -8.83185e-08)
(2.38292e-07 -1.38171e-05 -0 -3.32861e-07 -0 9.45689e-08)
(-4.71839e-07 -1.31243e-05 -0 4.61077e-07 -0 1.07616e-08)
(3.45153e-07 -1.27479e-05 -0 -3.73053e-07 -0 2.78999e-08)
(4.8657e-07 -8.3347e-06 -0 -5.5465e-07 -0 6.80794e-08)
(8.28384e-08 -9.35143e-06 -0 -2.28202e-08 -0 -6.00183e-08)
(-4.77165e-07 -8.32671e-06 -0 4.89001e-07 -0 -1.18358e-08)
(2.74506e-07 -7.77558e-06 -0 -2.49567e-07 -0 -2.49391e-08)
(3.22162e-07 -4.81893e-06 -0 -2.44786e-07 -0 -7.73761e-08)
(1.44074e-07 -6.43544e-06 -0 -1.44411e-07 -0 3.37533e-10)
(-4.29276e-07 -5.09513e-06 -0 4.29541e-07 -0 -2.65148e-10)
(2.08825e-07 -4.35642e-06 -0 -1.6535e-07 -0 -4.34753e-08)
(3.59368e-07 -2.43169e-06 -0 -3.48862e-07 -0 -1.05067e-08)
(2.37711e-07 -4.43342e-06 -0 -3.42016e-07 -0 1.04305e-07)
(-3.32296e-07 -2.59579e-06 -0 2.69977e-07 -0 6.23187e-08)
(2.24473e-07 -1.62218e-06 -0 -2.27473e-07 -0 2.99956e-09)
(3.27113e-07 -6.53123e-07 -0 -3.15477e-07 -0 -1.16362e-08)
(6.81959e-08 -3.39866e-06 -0 1.39882e-09 -0 -6.95947e-08)
(-3.74299e-07 -1.1286e-06 -0 4.14653e-07 -0 -4.03538e-08)
(1.22025e-07 2.86237e-07 -0 -1.16031e-07 -0 -5.99387e-09)
(2.51178e-07 4.45528e-07 -0 -2.15729e-07 -0 -3.54489e-08)
(1.74851e-07 -2.49858e-06 -0 -2.32688e-07 -0 5.7837e-08)
(-2.05793e-07 5.65193e-07 -0 1.41568e-07 -0 6.42253e-08)
(5.44631e-08 2.19395e-06 -0 7.43809e-10 -0 -5.52069e-08)
(3.08218e-07 1.47119e-06 -0 -3.65858e-07 -0 5.76403e-08)
(2.61946e-07 -2.15845e-06 -0 -3.82632e-07 -0 1.20685e-07)
(-1.55827e-07 1.76592e-06 -0 1.35896e-07 -0 1.99304e-08)
(8.84107e-08 3.93068e-06 -0 -1.72697e-07 -0 8.42859e-08)
(2.12851e-07 -0.000215637 -0 -1.20675e-07 -0 -9.21766e-08)
(-2.40993e-07 -0.000213944 -0 2.69859e-07 -0 -2.88656e-08)
(-1.41189e-07 -0.000212168 -0 8.32654e-08 -0 5.79233e-08)
(-2.26208e-07 -0.000217317 -0 3.49411e-07 -0 -1.23203e-07)
(4.14994e-07 -0.000159431 -0 -5.00517e-07 -0 8.55236e-08)
(-1.73239e-07 -0.000157032 -0 1.99089e-07 -0 -2.58501e-08)
(-1.94019e-07 -0.000154885 -0 1.72614e-07 -0 2.14047e-08)
(-1.27208e-07 -0.000159969 -0 5.29958e-08 -0 7.42118e-08)
(3.7091e-07 -0.000116424 -0 -3.24385e-07 -0 -4.65246e-08)
(-5.75701e-08 -0.000114004 -0 5.44957e-08 -0 3.07436e-09)
(-2.85891e-07 -0.000112529 -0 2.74699e-07 -0 1.11918e-08)
(-3.92551e-07 -0.000117174 -0 4.53698e-07 -0 -6.11461e-08)
(4.6408e-07 -8.40818e-05 -0 -4.92407e-07 -0 2.83272e-08)
(-5.55684e-08 -8.30096e-05 -0 9.38289e-08 -0 -3.82605e-08)
(-3.54753e-07 -8.21001e-05 -0 3.88338e-07 -0 -3.35859e-08)
(-3.63816e-07 -8.49051e-05 -0 3.28581e-07 -0 3.5235e-08)
(5.04225e-07 -5.99119e-05 -0 -5.42499e-07 -0 3.8274e-08)
(1.71499e-08 -5.92733e-05 -0 -2.89807e-08 -0 1.18309e-08)
(-3.45304e-07 -5.88814e-05 -0 3.30632e-07 -0 1.46717e-08)
(-4.29119e-07 -6.08496e-05 -0 4.08711e-07 -0 2.04076e-08)
(4.33735e-07 -4.22769e-05 -0 -4.03113e-07 -0 -3.06225e-08)
(-8.99085e-09 -4.21266e-05 -0 3.5373e-08 -0 -2.63822e-08)
(-3.34682e-07 -4.1786e-05 -0 2.96024e-07 -0 3.86576e-08)
(-5.13051e-07 -4.2955e-05 -0 5.50364e-07 -0 -3.73126e-08)
(4.70975e-07 -2.94332e-05 -0 -4.77663e-07 -0 6.68869e-09)
(1.53744e-09 -2.92784e-05 -0 1.84992e-08 -0 -2.00366e-08)
(-3.64708e-07 -2.90457e-05 -0 3.42578e-07 -0 2.21294e-08)
(-4.71631e-07 -2.97528e-05 -0 4.50101e-07 -0 2.15297e-08)
(4.46934e-07 -2.05092e-05 -0 -4.38551e-07 -0 -8.38261e-09)
(1.92851e-08 -2.04862e-05 -0 -7.98783e-09 -0 -1.12973e-08)
(-3.66859e-07 -1.99503e-05 -0 3.45308e-07 -0 2.15516e-08)
(-5.32804e-07 -2.02207e-05 -0 5.64537e-07 -0 -3.17328e-08)
(4.45727e-07 -1.40963e-05 -0 -4.62031e-07 -0 1.63036e-08)
(2.86183e-08 -1.39936e-05 -0 -1.71307e-08 -0 -1.14875e-08)
(-3.57864e-07 -1.34495e-05 -0 3.38864e-07 -0 1.9e-08)
(-4.72045e-07 -1.33449e-05 -0 4.43009e-07 -0 2.90366e-08)
(4.55353e-07 -1.02739e-05 -0 -4.98287e-07 -0 4.29343e-08)
(5.10332e-08 -1.03134e-05 -0 -4.97628e-08 -0 -1.27042e-09)
(-3.45417e-07 -8.99409e-06 -0 3.25253e-07 -0 2.01633e-08)
(-4.90536e-07 -8.46524e-06 -0 4.86467e-07 -0 4.06916e-09)
(2.42962e-07 -7.42843e-06 -0 -1.42672e-07 -0 -1.0029e-07)
(3.96857e-08 -7.366e-06 -0 3.2896e-09 -0 -4.29753e-08)
(-3.22059e-07 -5.86133e-06 -0 3.30339e-07 -0 -8.27967e-09)
(-5.29863e-07 -5.01345e-06 -0 5.81028e-07 -0 -5.11654e-08)
(3.78659e-07 -6.32167e-06 -0 -4.47119e-07 -0 6.84595e-08)
(1.15621e-07 -6.43824e-06 -0 -1.26641e-07 -0 1.10197e-08)
(-1.99307e-07 -3.82412e-06 -0 1.13153e-07 -0 8.61535e-08)
(-4.43302e-07 -2.6478e-06 -0 4.27124e-07 -0 1.61781e-08)
(2.10467e-07 -4.47789e-06 -0 -2.40032e-07 -0 2.95648e-08)
(1.41438e-07 -4.50845e-06 -0 -1.17186e-07 -0 -2.42522e-08)
(-1.7657e-07 -2.34757e-06 -0 1.67434e-07 -0 9.13611e-09)
(-4.23126e-07 -9.45292e-07 -0 4.14753e-07 -0 8.37327e-09)
(2.08009e-09 -3.14741e-06 -0 1.43966e-07 -0 -1.46046e-07)
(1.54843e-07 -3.2887e-06 -0 -1.3414e-07 -0 -2.07033e-08)
(-1.62399e-07 -1.39342e-06 -0 1.60063e-07 -0 2.33568e-09)
(-4.67636e-07 9.83307e-08 -0 5.33042e-07 -0 -6.54058e-08)
(2.04732e-07 -3.06497e-06 -0 -4.13451e-07 -0 2.08719e-07)
(2.42005e-07 -3.26613e-06 -0 -2.6021e-07 -0 1.82049e-08)
(-2.45114e-08 -6.77191e-07 -0 -2.181e-08 -0 4.63214e-08)
(-2.22284e-07 1.0174e-06 -0 7.53805e-08 -0 1.46903e-07)
)
;

boundaryField
{
    topWall
    {
        type            calculated;
        value           nonuniform List<symmTensor> 0();
    }
    botWall
    {
        type            calculated;
        value           nonuniform List<symmTensor> 0();
    }
    inlet
    {
        type            cyclic;
    }
    outlet
    {
        type            cyclic;
    }
    fixWall
    {
        type            empty;
    }
    procBoundary5to4
    {
        type            processor;
        value           nonuniform List<symmTensor> 8((9.79542e-08 -0.000290611 -0 4.71631e-08 -0 -1.45117e-07) (1.73789e-07 -0.000287099 -0 -3.79847e-07 -0 2.06057e-07) (-2.89009e-07 -0.000289842 -0 2.1207e-07 -0 7.69395e-08) (3.48136e-07 -0.000290212 -0 -4.10465e-07 -0 6.23295e-08) (2.00169e-07 -0.000288414 -0 -1.74788e-07 -0 -2.53808e-08) (-2.9441e-07 -0.000287367 -0 3.2582e-07 -0 -3.14094e-08) (2.17158e-08 -0.000287089 -0 -1.46104e-07 -0 1.24388e-07) (3.23867e-08 -0.000291026 -0 -5.5311e-08 -0 2.29243e-08));
    }
    procBoundary5to6
    {
        type            processor;
        value           nonuniform List<symmTensor> 8((1.69644e-07 2.59171e-06 -0 -1.60159e-07 -0 -9.48562e-09) (-7.34214e-08 -1.25415e-06 -0 2.72795e-07 -0 -1.99374e-07) (-1.6465e-07 2.49033e-06 -0 2.64031e-07 -0 -9.93818e-08) (-1.11821e-07 4.58542e-06 -0 1.72266e-07 -0 -6.04445e-08) (-2.18834e-07 -1.21208e-06 -0 3.43745e-07 -0 -1.24911e-07) (2.38058e-07 -1.3369e-06 -0 -2.21288e-07 -0 -1.67703e-08) (-1.30742e-07 -2.75991e-08 -0 2.41544e-07 -0 -1.10802e-07) (-3.98394e-07 1.87218e-06 -0 4.67383e-07 -0 -6.89894e-08));
    }
}


// ************************************************************************* //
