/*--------------------------------*- C++ -*----------------------------------*\
  =========                 |
  \\      /  F ield         | OpenFOAM: The Open Source CFD Toolbox
   \\    /   O peration     | Website:  https://openfoam.org
    \\  /    A nd           | Version:  dev
     \\/     M anipulation  |

   OpenFOAM for Windows 20.09 (v1)
   Built by CFD Support, www.cfdsupport.com (based on Symscape).
\*---------------------------------------------------------------------------*/
FoamFile
{
    version     2.0;
    format      ascii;
    class       volScalarField;
    location    "2";
    object      epsilon;
}
// * * * * * * * * * * * * * * * * * * * * * * * * * * * * * * * * * * * * * //

dimensions      [0 2 -3 0 0 0 0];

internalField   nonuniform List<scalar> 
120
(
4.02906e-16
4.02541e-16
4.02316e-16
4.02426e-16
3.99848e-16
3.99483e-16
3.99245e-16
3.99357e-16
3.98362e-16
3.97998e-16
3.97752e-16
3.97865e-16
3.98427e-16
3.98065e-16
3.97813e-16
3.97926e-16
4.00041e-16
3.99682e-16
3.99427e-16
3.9954e-16
4.03227e-16
4.02871e-16
4.02617e-16
4.02728e-16
4.0803e-16
4.07679e-16
4.07428e-16
4.07537e-16
4.14522e-16
4.14176e-16
4.1393e-16
4.14036e-16
4.22798e-16
4.22458e-16
4.22219e-16
4.22322e-16
4.32984e-16
4.3265e-16
4.32421e-16
4.3252e-16
4.45234e-16
4.44906e-16
4.44688e-16
4.44782e-16
4.59737e-16
4.59415e-16
4.5921e-16
4.59299e-16
4.76718e-16
4.76402e-16
4.76211e-16
4.76294e-16
4.96447e-16
4.96138e-16
4.95962e-16
4.96039e-16
5.19246e-16
5.18942e-16
5.18782e-16
5.18854e-16
4.02332e-16
4.02244e-16
4.0227e-16
4.02288e-16
3.99266e-16
3.99182e-16
3.99204e-16
3.99224e-16
3.97776e-16
3.97695e-16
3.97716e-16
3.97736e-16
3.97839e-16
3.97762e-16
3.97781e-16
3.97801e-16
3.99453e-16
3.9938e-16
3.99399e-16
3.99419e-16
4.02641e-16
4.02573e-16
4.02592e-16
4.02612e-16
4.07449e-16
4.07385e-16
4.07405e-16
4.07425e-16
4.13947e-16
4.13888e-16
4.1391e-16
4.13929e-16
4.22233e-16
4.22179e-16
4.22201e-16
4.22221e-16
4.3243e-16
4.32381e-16
4.32404e-16
4.32425e-16
4.44692e-16
4.44648e-16
4.44673e-16
4.44695e-16
4.59209e-16
4.5917e-16
4.59196e-16
4.59218e-16
4.76206e-16
4.76172e-16
4.76198e-16
4.76222e-16
4.95952e-16
4.95923e-16
4.9595e-16
4.95975e-16
5.18769e-16
5.18744e-16
5.18772e-16
5.18798e-16
)
;

boundaryField
{
    topWall
    {
        type            epsilonWallFunction;
        value           nonuniform List<scalar> 0();
    }
    botWall
    {
        type            epsilonWallFunction;
        value           nonuniform List<scalar> 0();
    }
    inlet
    {
        type            cyclic;
    }
    outlet
    {
        type            cyclic;
    }
    fixWall
    {
        type            empty;
    }
    procBoundary5to4
    {
        type            processor;
        value           nonuniform List<scalar> 8(4.06877e-16 4.06518e-16 4.06318e-16 4.06421e-16 4.06317e-16 4.0623e-16 4.06259e-16 4.0628e-16);
    }
    procBoundary5to6
    {
        type            processor;
        value           nonuniform List<scalar> 8(5.44323e-16 5.44039e-16 5.43892e-16 5.4396e-16 5.43879e-16 5.43853e-16 5.43886e-16 5.43909e-16);
    }
}


// ************************************************************************* //
