/*--------------------------------*- C++ -*----------------------------------*\
  =========                 |
  \\      /  F ield         | OpenFOAM: The Open Source CFD Toolbox
   \\    /   O peration     | Website:  https://openfoam.org
    \\  /    A nd           | Version:  dev
     \\/     M anipulation  |

   OpenFOAM for Windows 20.09 (v1)
   Built by CFD Support, www.cfdsupport.com (based on Symscape).
\*---------------------------------------------------------------------------*/
FoamFile
{
    version     2.0;
    format      ascii;
    class       volVectorField;
    location    "2";
    object      gradp_rgh;
}
// * * * * * * * * * * * * * * * * * * * * * * * * * * * * * * * * * * * * * //

dimensions      [1 -2 -2 0 0 0 0];

internalField   nonuniform List<vector> 
120
(
(-1.25084 -0.00219079 0)
(-1.24813 0.00228513 0)
(-1.24259 0.00078223 0)
(-1.24458 -0.000693772 0)
(-1.25081 -0.0030237 0)
(-1.2481 0.00215613 0)
(-1.24262 0.00106583 0)
(-1.2446 -0.00174393 0)
(-1.25078 -0.00346965 0)
(-1.24807 0.00174726 0)
(-1.24266 0.000909574 0)
(-1.24462 -0.00218015 0)
(-1.25075 -0.00356997 0)
(-1.24803 0.00125345 0)
(-1.24269 0.000605517 0)
(-1.24463 -0.00232879 0)
(-1.25073 -0.00362257 0)
(-1.248 0.00085989 0)
(-1.24272 0.000152356 0)
(-1.24464 -0.00210462 0)
(-1.25072 -0.00354623 0)
(-1.24797 0.000476851 0)
(-1.24274 -5.00678e-05 0)
(-1.24464 -0.00196707 0)
(-1.2507 -0.00369574 0)
(-1.24794 0.000461242 0)
(-1.24276 -4.27715e-05 0)
(-1.24464 -0.00190711 0)
(-1.25068 -0.00378034 0)
(-1.24791 0.000415168 0)
(-1.24278 -3.60778e-05 0)
(-1.24464 -0.00188412 0)
(-1.25067 -0.00388025 0)
(-1.24788 0.000347877 0)
(-1.2428 -3.77206e-05 0)
(-1.24464 -0.00184173 0)
(-1.25065 -0.00396995 0)
(-1.24784 0.00029502 0)
(-1.24281 -4.04639e-05 0)
(-1.24463 -0.00180768 0)
(-1.25063 -0.00409395 0)
(-1.24781 0.000197661 0)
(-1.24283 7.58149e-05 0)
(-1.24463 -0.00199954 0)
(-1.25061 -0.00437279 0)
(-1.24777 0.000680195 0)
(-1.24285 0.000511179 0)
(-1.24464 -0.00210956 0)
(-1.25059 -0.00434948 0)
(-1.24773 0.00116703 0)
(-1.24288 0.000926619 0)
(-1.24465 -0.00202848 0)
(-1.25056 -0.00404829 0)
(-1.24769 0.00159095 0)
(-1.2429 0.00127222 0)
(-1.24466 -0.00191789 0)
(-1.25053 -0.003303 0)
(-1.24764 0.00221392 0)
(-1.24294 0.0014874 0)
(-1.24468 -0.0015166 0)
(-1.25117 -0.000875471 0)
(-1.257 0.00133913 0)
(-1.2554 0.00562094 0)
(-1.25028 -0.000649286 0)
(-1.25115 -0.00110983 0)
(-1.25694 0.00121104 0)
(-1.25542 0.00753184 0)
(-1.25036 -0.00130866 0)
(-1.25112 -0.000997645 0)
(-1.25686 0.00122454 0)
(-1.25544 0.00846145 0)
(-1.25046 -0.00160564 0)
(-1.25109 -0.000781766 0)
(-1.25678 0.00129108 0)
(-1.25547 0.00854193 0)
(-1.25056 -0.00171299 0)
(-1.25106 -0.000295383 0)
(-1.2567 0.00141847 0)
(-1.25549 0.00829721 0)
(-1.25066 -0.00150755 0)
(-1.25103 3.20635e-06 0)
(-1.25664 0.00156042 0)
(-1.25552 0.00821473 0)
(-1.25075 -0.00145765 0)
(-1.251 8.79484e-05 0)
(-1.25657 0.00158861 0)
(-1.25554 0.00824262 0)
(-1.25085 -0.00149401 0)
(-1.25097 0.000159569 0)
(-1.2565 0.0016161 0)
(-1.25557 0.00826317 0)
(-1.25095 -0.00155105 0)
(-1.25094 0.000254356 0)
(-1.25643 0.00165508 0)
(-1.25559 0.00826932 0)
(-1.25105 -0.00159536 0)
(-1.25091 0.000337573 0)
(-1.25637 0.00166462 0)
(-1.25562 0.008266 0)
(-1.25116 -0.00163768 0)
(-1.25089 -1.60394e-06 0)
(-1.2563 0.00154268 0)
(-1.25565 0.00825482 0)
(-1.25126 -0.0019421 0)
(-1.25086 -0.000324321 0)
(-1.25623 0.00142237 0)
(-1.25568 0.00842397 0)
(-1.25136 -0.00218286 0)
(-1.25083 -0.000380348 0)
(-1.25615 0.00135545 0)
(-1.25571 0.00846851 0)
(-1.25147 -0.00211355 0)
(-1.2508 -0.000872446 0)
(-1.25608 0.00126808 0)
(-1.25574 0.00793866 0)
(-1.25158 -0.00191347 0)
(-1.25077 -0.000945763 0)
(-1.25601 0.00132198 0)
(-1.25576 0.00698424 0)
(-1.25167 -0.0011685 0)
)
;

boundaryField
{
    topWall
    {
        type            extrapolatedCalculated;
        value           nonuniform List<vector> 0();
    }
    botWall
    {
        type            extrapolatedCalculated;
        value           nonuniform List<vector> 0();
    }
    inlet
    {
        type            cyclic;
    }
    outlet
    {
        type            cyclic;
    }
    fixWall
    {
        type            empty;
    }
    procBoundary5to4
    {
        type            processor;
        value           nonuniform List<vector> 8((-1.25086 -0.00115415 0) (-1.24815 0.00181956 0) (-1.24257 -4.28212e-05 0) (-1.24457 0.00045053 0) (-1.25118 -0.00031918 0) (-1.25705 0.0014668 0) (-1.25539 0.00304234 0) (-1.25023 0.000170371 0));
    }
    procBoundary5to6
    {
        type            processor;
        value           nonuniform List<vector> 8((-1.2505 -0.00237949 0) (-1.24761 0.00191399 0) (-1.24297 0.00106255 0) (-1.2447 -0.0011743 0) (-1.25075 -0.00106181 0) (-1.25595 0.00135377 0) (-1.25578 0.00547124 0) (-1.25175 -0.00045688 0));
    }
}


// ************************************************************************* //
