/*--------------------------------*- C++ -*----------------------------------*\
  =========                 |
  \\      /  F ield         | OpenFOAM: The Open Source CFD Toolbox
   \\    /   O peration     | Website:  https://openfoam.org
    \\  /    A nd           | Version:  dev
     \\/     M anipulation  |

   OpenFOAM for Windows 20.09 (v1)
   Built by CFD Support, www.cfdsupport.com (based on Symscape).
\*---------------------------------------------------------------------------*/
FoamFile
{
    version     2.0;
    format      ascii;
    class       volVectorField;
    location    "2";
    object      gradp;
}
// * * * * * * * * * * * * * * * * * * * * * * * * * * * * * * * * * * * * * //

dimensions      [1 -2 -2 0 0 0 0];

internalField   nonuniform List<vector> 
120
(
(3.74916 -9.81219 0)
(-1.24813 -9.80771 0)
(-1.24259 -9.80922 0)
(-1.24458 -9.81069 0)
(3.74919 -9.81302 0)
(-1.2481 -9.80784 0)
(-1.24262 -9.80893 0)
(-1.2446 -9.81174 0)
(3.74922 -9.81347 0)
(-1.24807 -9.80825 0)
(-1.24266 -9.80909 0)
(-1.24462 -9.81218 0)
(3.74925 -9.81357 0)
(-1.24803 -9.80875 0)
(-1.24269 -9.80939 0)
(-1.24463 -9.81233 0)
(3.74927 -9.81362 0)
(-1.248 -9.80914 0)
(-1.24272 -9.80985 0)
(-1.24464 -9.8121 0)
(3.74928 -9.81355 0)
(-1.24797 -9.80952 0)
(-1.24274 -9.81005 0)
(-1.24464 -9.81197 0)
(3.7493 -9.8137 0)
(-1.24794 -9.80954 0)
(-1.24276 -9.81004 0)
(-1.24464 -9.81191 0)
(3.74932 -9.81378 0)
(-1.24791 -9.80958 0)
(-1.24278 -9.81004 0)
(-1.24464 -9.81188 0)
(3.74933 -9.81388 0)
(-1.24788 -9.80965 0)
(-1.2428 -9.81004 0)
(-1.24464 -9.81184 0)
(3.74935 -9.81397 0)
(-1.24784 -9.8097 0)
(-1.24281 -9.81004 0)
(-1.24463 -9.81181 0)
(3.74937 -9.81409 0)
(-1.24781 -9.8098 0)
(-1.24283 -9.80992 0)
(-1.24463 -9.812 0)
(3.74939 -9.81437 0)
(-1.24777 -9.80932 0)
(-1.24285 -9.80949 0)
(-1.24464 -9.81211 0)
(3.74941 -9.81435 0)
(-1.24773 -9.80883 0)
(-1.24288 -9.80907 0)
(-1.24465 -9.81203 0)
(3.74944 -9.81405 0)
(-1.24769 -9.80841 0)
(-1.2429 -9.80873 0)
(-1.24466 -9.81192 0)
(3.74947 -9.8133 0)
(-1.24764 -9.80779 0)
(-1.24294 -9.80851 0)
(-1.24468 -9.81152 0)
(-1.25117 -9.81088 0)
(-1.257 -9.80866 0)
(-1.2554 -9.80438 0)
(3.74972 -9.81065 0)
(-1.25115 -9.81111 0)
(-1.25694 -9.80879 0)
(-1.25542 -9.80247 0)
(3.74964 -9.81131 0)
(-1.25112 -9.811 0)
(-1.25686 -9.80878 0)
(-1.25544 -9.80154 0)
(3.74954 -9.81161 0)
(-1.25109 -9.81078 0)
(-1.25678 -9.80871 0)
(-1.25547 -9.80146 0)
(3.74944 -9.81171 0)
(-1.25106 -9.8103 0)
(-1.2567 -9.80858 0)
(-1.25549 -9.8017 0)
(3.74934 -9.81151 0)
(-1.25103 -9.81 0)
(-1.25664 -9.80844 0)
(-1.25552 -9.80179 0)
(3.74925 -9.81146 0)
(-1.251 -9.80991 0)
(-1.25657 -9.80841 0)
(-1.25554 -9.80176 0)
(3.74915 -9.81149 0)
(-1.25097 -9.80984 0)
(-1.2565 -9.80838 0)
(-1.25557 -9.80174 0)
(3.74905 -9.81155 0)
(-1.25094 -9.80975 0)
(-1.25643 -9.80834 0)
(-1.25559 -9.80173 0)
(3.74895 -9.8116 0)
(-1.25091 -9.80966 0)
(-1.25637 -9.80834 0)
(-1.25562 -9.80173 0)
(3.74884 -9.81164 0)
(-1.25089 -9.81 0)
(-1.2563 -9.80846 0)
(-1.25565 -9.80175 0)
(3.74874 -9.81194 0)
(-1.25086 -9.81032 0)
(-1.25623 -9.80858 0)
(-1.25568 -9.80158 0)
(3.74864 -9.81218 0)
(-1.25083 -9.81038 0)
(-1.25615 -9.80864 0)
(-1.25571 -9.80153 0)
(3.74853 -9.81211 0)
(-1.2508 -9.81087 0)
(-1.25608 -9.80873 0)
(-1.25574 -9.80206 0)
(3.74842 -9.81191 0)
(-1.25077 -9.81095 0)
(-1.25601 -9.80868 0)
(-1.25576 -9.80302 0)
(3.74833 -9.81117 0)
)
;

boundaryField
{
    topWall
    {
        type            extrapolatedCalculated;
        value           nonuniform List<vector> 0();
    }
    botWall
    {
        type            extrapolatedCalculated;
        value           nonuniform List<vector> 0();
    }
    inlet
    {
        type            cyclic;
    }
    outlet
    {
        type            cyclic;
    }
    fixWall
    {
        type            empty;
    }
    procBoundary5to4
    {
        type            processor;
        value           nonuniform List<vector> 8((3.74914 -9.81115 0) (-1.24815 -9.80818 0) (-1.24257 -9.81004 0) (-1.24457 -9.80955 0) (-1.25118 -9.81032 0) (-1.25705 -9.80853 0) (-1.25539 -9.80696 0) (3.74977 -9.80983 0));
    }
    procBoundary5to6
    {
        type            processor;
        value           nonuniform List<vector> 8((3.7495 -9.81238 0) (-1.24761 -9.80809 0) (-1.24297 -9.80894 0) (-1.2447 -9.81117 0) (-1.25075 -9.81106 0) (-1.25595 -9.80865 0) (-1.25578 -9.80453 0) (3.74825 -9.81046 0));
    }
}


// ************************************************************************* //
