/*--------------------------------*- C++ -*----------------------------------*\
  =========                 |
  \\      /  F ield         | OpenFOAM: The Open Source CFD Toolbox
   \\    /   O peration     | Website:  https://openfoam.org
    \\  /    A nd           | Version:  dev
     \\/     M anipulation  |

   OpenFOAM for Windows 20.09 (v1)
   Built by CFD Support, www.cfdsupport.com (based on Symscape).
\*---------------------------------------------------------------------------*/
FoamFile
{
    version     2.0;
    format      ascii;
    class       volTensorField;
    location    "2";
    object      gradU;
}
// * * * * * * * * * * * * * * * * * * * * * * * * * * * * * * * * * * * * * //

dimensions      [0 0 -1 0 0 0 0];

internalField   nonuniform List<tensor> 
120
(
(-0.000844247 -5.79823e-05 0 1.15797 0.0011311 0 0 0 0)
(-4.91401e-06 0.000119443 0 1.13648 -0.000506542 0 0 0 0)
(0.00112492 -4.83544e-05 0 1.14803 -0.000520823 0 0 0 0)
(-0.000830188 -8.58178e-05 0 1.15042 -0.000413598 0 0 0 0)
(-0.000899768 -7.79828e-05 0 0.857159 0.000209783 0 0 0 0)
(-8.01937e-05 8.05379e-05 0 0.840637 0.000422927 0 0 0 0)
(0.00120199 -2.36901e-05 0 0.848435 -0.00175097 0 0 0 0)
(-0.000844149 -5.14219e-05 0 0.850151 0.00139776 0 0 0 0)
(-0.000964556 -5.18706e-05 0 0.627764 0.00147552 0 0 0 0)
(-0.000150318 8.67638e-05 0 0.613993 -0.000166076 0 0 0 0)
(0.00128349 -3.21072e-05 0 0.619638 -0.000923599 0 0 0 0)
(-0.000888614 -3.07516e-05 0 0.621141 0.000455637 0 0 0 0)
(-0.00101748 -5.80117e-05 0 0.453884 0.000601563 0 0 0 0)
(-0.000215616 4.05526e-05 0 0.44373 0.000574691 0 0 0 0)
(0.00132113 -1.33282e-05 0 0.447079 -0.00154908 0 0 0 0)
(-0.000887736 -2.37564e-05 0 0.447697 0.000999504 0 0 0 0)
(-0.00106876 -2.93363e-05 0 0.32421 0.00117739 0 0 0 0)
(-0.000263721 5.09197e-05 0 0.316499 0.000234232 0 0 0 0)
(0.0013496 -2.5027e-05 0 0.318428 -0.00142827 0 0 0 0)
(-0.000913429 1.80656e-05 0 0.318761 0.00107283 0 0 0 0)
(-0.00111763 -3.69578e-05 0 0.228394 0.00117381 0 0 0 0)
(-0.000311985 -2.87507e-06 0 0.223288 0.000182579 0 0 0 0)
(0.00135883 6.48438e-07 0 0.22359 -0.00110375 0 0 0 0)
(-0.000902636 2.5699e-05 0 0.223078 0.00050837 0 0 0 0)
(-0.00114086 -3.37585e-07 0 0.157938 0.00054838 0 0 0 0)
(-0.000343782 1.29605e-05 0 0.155576 0.00113286 0 0 0 0)
(0.0013461 -1.95972e-05 0 0.154625 -0.00124331 0 0 0 0)
(-0.000905922 5.2913e-05 0 0.15383 0.001029 0 0 0 0)
(-0.00115242 8.51822e-07 0 0.107004 0.00161914 0 0 0 0)
(-0.000367213 -3.27365e-05 0 0.107173 -0.000208564 0 0 0 0)
(0.00132972 -1.08263e-06 0 0.104779 -0.00129725 0 0 0 0)
(-0.000879582 6.78129e-05 0 0.103141 0.000473174 0 0 0 0)
(-0.00113961 2.25216e-05 0 0.0702486 0.000437476 0 0 0 0)
(-0.000380866 -3.56461e-05 0 0.0732664 0.00113269 0 0 0 0)
(0.00127889 -8.2349e-06 0 0.0695672 -0.00119334 0 0 0 0)
(-0.00084072 9.3533e-05 0 0.0674704 0.00106252 0 0 0 0)
(-0.001109 3.80137e-05 0 0.0441359 0.00165023 0 0 0 0)
(-0.00037857 -5.99167e-05 0 0.0496225 -9.85749e-05 0 0 0 0)
(0.00123312 -2.25205e-06 0 0.0441338 -0.00132722 0 0 0 0)
(-0.000793529 0.000108828 0 0.0411018 0.000595263 0 0 0 0)
(-0.00105878 4.21846e-05 0 0.0254981 0.000443637 0 0 0 0)
(-0.000380901 -8.52702e-05 0 0.0341931 0.000383584 0 0 0 0)
(0.00113688 3.32907e-06 0 0.0270008 -0.00113899 0 0 0 0)
(-0.000668596 0.000139557 0 0.0229495 0.000322967 0 0 0 0)
(-0.000980169 7.23287e-05 0 0.0128156 0.000896641 0 0 0 0)
(-0.000353525 -8.62938e-05 0 0.0235834 0.00118275 0 0 0 0)
(0.00104573 -3.26234e-06 0 0.013761 -0.000550295 0 0 0 0)
(-0.000586905 0.000129683 0 0.00846786 0.000610751 0 0 0 0)
(-0.000897685 8.00472e-05 0 0.00338151 0.000805177 0 0 0 0)
(-0.000365145 -0.000109386 0 0.0181223 -0.000188133 0 0 0 0)
(0.000884954 -6.20424e-06 0 0.00598777 -0.00120577 0 0 0 0)
(-0.00033925 0.0001715 0 -0.00168856 0.000291598 0 0 0 0)
(-0.000759561 8.71416e-05 0 -0.00244844 0.000477742 0 0 0 0)
(-0.000310087 -0.00011981 0 0.0133623 0.000769891 0 0 0 0)
(0.000715548 4.73318e-06 0 -0.00300026 -0.000204957 0 0 0 0)
(-0.000290625 0.000161687 0 -0.0117896 -0.000148269 0 0 0 0)
(-0.00066403 0.00011931 0 -0.00791662 0.00112227 0 0 0 0)
(-0.000374342 -0.000120764 0 0.0115606 0.00133379 0 0 0 0)
(0.000465756 -2.15069e-05 0 -0.00933788 -0.00030731 0 0 0 0)
(-1.09308e-05 0.000162107 0 -0.0209947 0.000681003 0 0 0 0)
(-0.000808324 5.51189e-05 0 1.14282 7.55197e-05 0 0 0 0)
(0.000562139 1.02774e-05 0 1.13389 -0.00079162 0 0 0 0)
(0.000527646 5.12179e-05 0 1.12444 -6.71566e-05 0 0 0 0)
(0.000272963 -4.39026e-05 0 1.15182 -0.00125243 0 0 0 0)
(-0.000873096 5.28084e-05 0 0.844929 0.00155301 0 0 0 0)
(0.000390581 -7.71685e-06 0 0.832278 -0.00059609 0 0 0 0)
(0.000570873 4.88644e-05 0 0.820843 -0.000400706 0 0 0 0)
(0.000533762 -2.13992e-05 0 0.847856 5.62225e-05 0 0 0 0)
(-0.0011062 2.18881e-05 0 0.617023 0.00073633 0 0 0 0)
(0.000160708 -2.22845e-05 0 0.604242 -0.000136267 0 0 0 0)
(0.00078727 6.20897e-05 0 0.59634 -0.000698295 0 0 0 0)
(0.000878224 -3.37278e-05 0 0.621055 -0.00136434 0 0 0 0)
(-0.00115475 4.29433e-05 0 0.44559 0.00137995 0 0 0 0)
(4.58659e-05 -3.16273e-05 0 0.439982 -0.000350037 0 0 0 0)
(0.000851092 2.83966e-05 0 0.435102 -0.0011181 0 0 0 0)
(0.00105749 1.48311e-05 0 0.449982 -0.000777367 0 0 0 0)
(-0.00123477 -6.04262e-07 0 0.317534 0.00153905 0 0 0 0)
(-1.40954e-05 -6.39186e-05 0 0.314213 0.000108151 0 0 0 0)
(0.000953936 5.49676e-05 0 0.312017 -0.000837296 0 0 0 0)
(0.00119125 -5.06673e-06 0 0.322508 -0.00102901 0 0 0 0)
(-0.00123055 2.68653e-05 0 0.224041 0.000987099 0 0 0 0)
(-4.6087e-05 -7.1233e-05 0 0.223342 -0.000163651 0 0 0 0)
(0.000989349 9.44403e-06 0 0.221456 -0.000682021 0 0 0 0)
(0.00126071 4.84091e-05 0 0.227613 -0.00155734 0 0 0 0)
(-0.00123036 -1.18046e-05 0 0.156008 0.00128353 0 0 0 0)
(-5.71713e-05 -9.17373e-05 0 0.155267 -0.00010212 0 0 0 0)
(0.00102512 3.17394e-05 0 0.15391 -0.00084919 0 0 0 0)
(0.00130688 2.58637e-05 0 0.157664 -0.00113571 0 0 0 0)
(-0.00120659 8.01335e-06 0 0.108691 0.00113995 0 0 0 0)
(-8.10434e-05 -0.000106778 0 0.108684 -8.77007e-06 0 0 0 0)
(0.00102929 -7.78254e-06 0 0.105744 -0.000857954 0 0 0 0)
(0.00132784 7.17019e-05 0 0.107098 -0.00158011 0 0 0 0)
(-0.00113797 -1.9837e-05 0 0.0747304 0.00126759 0 0 0 0)
(-0.00010628 -0.000125036 0 0.0742912 1.49545e-05 0 0 0 0)
(0.000998689 5.5503e-06 0 0.0712767 -0.000847639 0 0 0 0)
(0.00132787 6.71487e-05 0 0.0706611 -0.00109703 0 0 0 0)
(-0.00109291 -9.44614e-06 0 0.0544613 0.00143424 0 0 0 0)
(-0.000138605 -0.000142032 0 0.054803 0.000128505 0 0 0 0)
(0.000968787 -2.63155e-05 0 0.047695 -0.000808489 0 0 0 0)
(0.0013107 9.31205e-05 0 0.0447726 -0.00127835 0 0 0 0)
(-0.000909618 -2.76163e-05 0 0.0393983 0.000112313 0 0 0 0)
(-0.000219052 -0.000162414 0 0.0392022 -0.000122602 0 0 0 0)
(0.000831516 -1.78973e-05 0 0.031083 -0.000897339 0 0 0 0)
(0.00126855 0.000108127 0 0.0264632 -0.00167531 0 0 0 0)
(-0.00082203 -1.68723e-05 0 0.0335217 0.00136628 0 0 0 0)
(-0.000277194 -0.00015886 0 0.0342815 0.0003648 0 0 0 0)
(0.00075647 -5.21941e-05 0 0.02032 -7.15501e-05 0 0 0 0)
(0.00121762 0.00011547 0 0.0139179 -0.00108901 0 0 0 0)
(-0.000479391 -3.17155e-05 0 0.0237645 0.000714431 0 0 0 0)
(-0.00043908 -0.000186378 0 0.0240812 0.000246275 0 0 0 0)
(0.000492122 -4.21275e-05 0 0.0124843 -0.00041949 0 0 0 0)
(0.00114347 0.000124264 0 0.00488578 -0.00107691 0 0 0 0)
(-0.000392534 -1.76277e-05 0 0.0166989 -0.000768531 0 0 0 0)
(-0.000465198 -0.000177758 0 0.0176079 0.000300607 0 0 0 0)
(0.000436547 -7.42471e-05 0 0.00745935 -0.000417978 0 0 0 0)
(0.00106591 0.000135881 0 -0.000657034 -0.00158589 0 0 0 0)
(1.05672e-05 -2.42342e-05 0 0.0162686 0.00164875 0 0 0 0)
(-0.000593072 -0.000180536 0 0.017491 0.0007378 0 0 0 0)
(0.000187707 -7.3569e-05 0 0.00366268 0.000180548 0 0 0 0)
(0.000978344 0.000139193 0 -0.00553141 0.000189535 0 0 0 0)
)
;

boundaryField
{
    topWall
    {
        type            extrapolatedCalculated;
        value           nonuniform List<tensor> 0();
    }
    botWall
    {
        type            extrapolatedCalculated;
        value           nonuniform List<tensor> 0();
    }
    inlet
    {
        type            cyclic;
    }
    outlet
    {
        type            cyclic;
    }
    fixWall
    {
        type            empty;
    }
    procBoundary5to4
    {
        type            processor;
        value           nonuniform List<tensor> 8((-0.000644139 -9.04142e-05 0 1.54033 -0.000509543 0 0 0 0) (8.55104e-05 0.00010807 0 1.52152 0.00155265 0 0 0 0) (0.000969763 -2.52391e-05 0 1.53619 -0.000358095 0 0 0 0) (-0.000757387 -6.13609e-05 0 1.53818 0.00125291 0 0 0 0) (-0.000597706 5.91087e-05 0 1.52853 0.000395929 0 0 0 0) (0.000696952 -5.33892e-06 0 1.52305 -0.000946657 0 0 0 0) (0.000272082 5.65446e-05 0 1.52151 0.000716805 0 0 0 0) (-2.50752e-05 -4.13701e-05 0 1.54248 0.000207324 0 0 0 0));
    }
    procBoundary5to6
    {
        type            processor;
        value           nonuniform List<tensor> 8((-0.000474694 0.000106213 0 -0.0138423 0.000399284 0 0 0 0) (-0.000333775 -0.000143636 0 0.00679064 -0.00125125 0 0 0 0) (0.00017296 -6.1466e-06 0 -0.0131926 -0.000963045 0 0 0 0) (0.000136149 0.000194288 0 -0.024497 -0.000616682 0 0 0 0) (0.000248895 -1.66811e-05 0 0.00644073 -0.00124194 0 0 0 0) (-0.000675296 -0.000202228 0 0.00728779 0.000541972 0 0 0 0) (5.28396e-05 -8.33848e-05 0 0.00022966 -0.000933717 0 0 0 0) (0.000872922 0.000151577 0 -0.0100741 -0.00142139 0 0 0 0));
    }
}


// ************************************************************************* //
