/*--------------------------------*- C++ -*----------------------------------*\
  =========                 |
  \\      /  F ield         | OpenFOAM: The Open Source CFD Toolbox
   \\    /   O peration     | Website:  https://openfoam.org
    \\  /    A nd           | Version:  dev
     \\/     M anipulation  |

   OpenFOAM for Windows 20.09 (v1)
   Built by CFD Support, www.cfdsupport.com (based on Symscape).
\*---------------------------------------------------------------------------*/
FoamFile
{
    version     2.0;
    format      ascii;
    class       volScalarField;
    location    "2";
    object      nut;
}
// * * * * * * * * * * * * * * * * * * * * * * * * * * * * * * * * * * * * * //

dimensions      [0 2 -1 0 0 0 0];

internalField   nonuniform List<scalar> 
120
(
1.10133e-17
1.10233e-17
1.10295e-17
1.10265e-17
1.10976e-17
1.11077e-17
1.11143e-17
1.11112e-17
1.1139e-17
1.11492e-17
1.11561e-17
1.11529e-17
1.11372e-17
1.11473e-17
1.11544e-17
1.11512e-17
1.10922e-17
1.11022e-17
1.11093e-17
1.11061e-17
1.10046e-17
1.10143e-17
1.10213e-17
1.10182e-17
1.0875e-17
1.08844e-17
1.08911e-17
1.08882e-17
1.07047e-17
1.07137e-17
1.072e-17
1.07173e-17
1.04952e-17
1.05036e-17
1.05096e-17
1.0507e-17
1.02483e-17
1.02562e-17
1.02616e-17
1.02593e-17
9.96631e-18
9.97366e-18
9.97854e-18
9.97644e-18
9.65192e-18
9.65868e-18
9.663e-18
9.66113e-18
9.30811e-18
9.31428e-18
9.31802e-18
9.31639e-18
8.9382e-18
8.94377e-18
8.94695e-18
8.94555e-18
8.54575e-18
8.55075e-18
8.55339e-18
8.5522e-18
1.10291e-17
1.10315e-17
1.10307e-17
1.10303e-17
1.11137e-17
1.11161e-17
1.11155e-17
1.11149e-17
1.11554e-17
1.11576e-17
1.11571e-17
1.11565e-17
1.11536e-17
1.11558e-17
1.11552e-17
1.11547e-17
1.11086e-17
1.11106e-17
1.111e-17
1.11095e-17
1.10206e-17
1.10225e-17
1.10219e-17
1.10214e-17
1.08906e-17
1.08923e-17
1.08917e-17
1.08912e-17
1.07196e-17
1.07211e-17
1.07206e-17
1.072e-17
1.05092e-17
1.05106e-17
1.051e-17
1.05095e-17
1.02614e-17
1.02626e-17
1.0262e-17
1.02615e-17
9.97845e-18
9.97944e-18
9.97889e-18
9.97841e-18
9.66301e-18
9.66383e-18
9.66329e-18
9.66282e-18
9.31812e-18
9.31879e-18
9.31826e-18
9.31781e-18
8.94712e-18
8.94765e-18
8.94715e-18
8.94671e-18
8.5536e-18
8.55401e-18
8.55355e-18
8.55313e-18
)
;

boundaryField
{
    topWall
    {
        type            nutkWallFunction;
        Cmu             0.09;
        kappa           0.41;
        E               9.8;
        value           nonuniform List<scalar> 0();
    }
    botWall
    {
        type            nutkWallFunction;
        Cmu             0.09;
        kappa           0.41;
        E               9.8;
        value           nonuniform List<scalar> 0();
    }
    inlet
    {
        type            cyclic;
    }
    outlet
    {
        type            cyclic;
    }
    fixWall
    {
        type            empty;
    }
    procBoundary5to4
    {
        type            processor;
        value           nonuniform List<scalar> 8(1.09059e-17 1.09155e-17 1.09209e-17 1.09181e-17 1.09209e-17 1.09232e-17 1.09224e-17 1.09219e-17);
    }
    procBoundary5to6
    {
        type            processor;
        value           nonuniform List<scalar> 8(8.15204e-18 8.1563e-18 8.1585e-18 8.15749e-18 8.15869e-18 8.15908e-18 8.15859e-18 8.15824e-18);
    }
}


// ************************************************************************* //
