/*--------------------------------*- C++ -*----------------------------------*\
  =========                 |
  \\      /  F ield         | OpenFOAM: The Open Source CFD Toolbox
   \\    /   O peration     | Website:  https://openfoam.org
    \\  /    A nd           | Version:  dev
     \\/     M anipulation  |

   OpenFOAM for Windows 20.09 (v1)
   Built by CFD Support, www.cfdsupport.com (based on Symscape).
\*---------------------------------------------------------------------------*/
FoamFile
{
    version     2.0;
    format      ascii;
    class       volScalarField;
    location    "2";
    object      omega;
}
// * * * * * * * * * * * * * * * * * * * * * * * * * * * * * * * * * * * * * //

dimensions      [0 0 -1 0 0 0 0];

internalField   nonuniform List<scalar> 
120
(
20.1614
20.1431
20.1319
20.1374
20.0084
19.9901
19.9782
19.9838
19.9341
19.9158
19.9035
19.9092
19.9373
19.9192
19.9065
19.9122
20.0181
20.0001
19.9873
19.993
20.1775
20.1597
20.1469
20.1525
20.4178
20.4002
20.3877
20.3931
20.7427
20.7253
20.713
20.7184
21.1568
21.1398
21.1279
21.133
21.6665
21.6498
21.6383
21.6433
22.2795
22.2631
22.2522
22.2569
23.0052
22.9891
22.9789
22.9833
23.855
23.8392
23.8296
23.8338
24.8422
24.8267
24.8179
24.8218
25.9831
25.9679
25.9598
25.9634
20.1327
20.1283
20.1296
20.1305
19.9793
19.9751
19.9762
19.9772
19.9047
19.9007
19.9017
19.9027
19.9078
19.904
19.905
19.906
19.9886
19.985
19.9859
19.9869
20.1481
20.1447
20.1457
20.1467
20.3887
20.3856
20.3866
20.3876
20.7139
20.711
20.712
20.713
21.1285
21.1258
21.1269
21.128
21.6388
21.6363
21.6375
21.6385
22.2524
22.2502
22.2514
22.2525
22.9788
22.9769
22.9782
22.9793
23.8293
23.8276
23.829
23.8301
24.8175
24.816
24.8174
24.8186
25.9592
25.958
25.9593
25.9606
)
;

boundaryField
{
    topWall
    {
        beta1           0.075;
        blended         0;
        type            omegaWallFunction;
        value           nonuniform List<scalar> 0();
    }
    botWall
    {
        beta1           0.075;
        blended         0;
        type            omegaWallFunction;
        value           nonuniform List<scalar> 0();
    }
    inlet
    {
        type            cyclic;
    }
    outlet
    {
        type            cyclic;
    }
    fixWall
    {
        type            empty;
    }
    procBoundary5to4
    {
        type            processor;
        value           nonuniform List<scalar> 8(20.3601 20.3421 20.3322 20.3373 20.3321 20.3278 20.3292 20.3302);
    }
    procBoundary5to6
    {
        type            processor;
        value           nonuniform List<scalar> 8(27.2379 27.2237 27.2163 27.2197 27.2157 27.2144 27.2161 27.2172);
    }
}


// ************************************************************************* //
