/*--------------------------------*- C++ -*----------------------------------*\
  =========                 |
  \\      /  F ield         | OpenFOAM: The Open Source CFD Toolbox
   \\    /   O peration     | Website:  https://openfoam.org
    \\  /    A nd           | Version:  dev
     \\/     M anipulation  |

   OpenFOAM for Windows 20.09 (v1)
   Built by CFD Support, www.cfdsupport.com (based on Symscape).
\*---------------------------------------------------------------------------*/
FoamFile
{
    version     2.0;
    format      ascii;
    class       volScalarField;
    location    "2";
    object      p;
}
// * * * * * * * * * * * * * * * * * * * * * * * * * * * * * * * * * * * * * //

dimensions      [1 -1 -2 0 0 0 0];

internalField   nonuniform List<scalar> 
120
(
-4.99303
-5.05563
-5.11784
-5.17988
-5.00121
-5.0638
-5.12602
-5.18806
-5.00938
-5.07197
-5.13419
-5.19624
-5.01756
-5.08015
-5.14237
-5.20441
-5.02574
-5.08832
-5.15054
-5.21259
-5.03392
-5.09649
-5.15872
-5.22077
-5.0421
-5.10467
-5.16689
-5.22894
-5.05028
-5.11284
-5.17507
-5.23712
-5.05845
-5.12102
-5.18324
-5.2453
-5.06663
-5.12919
-5.19142
-5.25347
-5.07481
-5.13737
-5.19959
-5.26165
-5.08299
-5.14554
-5.20777
-5.26983
-5.09117
-5.15372
-5.21594
-5.278
-5.09935
-5.16189
-5.22411
-5.28618
-5.10752
-5.17006
-5.23229
-5.29436
-5.2423
-5.305
-5.368
-5.43054
-5.25048
-5.31318
-5.37617
-5.43872
-5.25865
-5.32135
-5.38434
-5.44689
-5.26683
-5.32952
-5.39251
-5.45507
-5.275
-5.3377
-5.40068
-5.46325
-5.28318
-5.34587
-5.40884
-5.47142
-5.29135
-5.35404
-5.41701
-5.4796
-5.29953
-5.36222
-5.42518
-5.48778
-5.3077
-5.37039
-5.43335
-5.49595
-5.31588
-5.37857
-5.44152
-5.50413
-5.32405
-5.38674
-5.44968
-5.5123
-5.33223
-5.39491
-5.45785
-5.52048
-5.3404
-5.40309
-5.46602
-5.52866
-5.34858
-5.41126
-5.47419
-5.53683
-5.35676
-5.41943
-5.48236
-5.54501
)
;

boundaryField
{
    topWall
    {
        type            calculated;
        value           nonuniform List<scalar> 0();
    }
    botWall
    {
        type            calculated;
        value           nonuniform List<scalar> 0();
    }
    inlet
    {
        type            cyclic;
    }
    outlet
    {
        type            cyclic;
    }
    fixWall
    {
        type            empty;
    }
    procBoundary5to4
    {
        type            processor;
        value           nonuniform List<scalar> 8(-4.98485 -5.04745 -5.10967 -5.17171 -5.23413 -5.29683 -5.35983 -5.42237);
    }
    procBoundary5to6
    {
        type            processor;
        value           nonuniform List<scalar> 8(-5.1157 -5.17824 -5.24046 -5.30253 -5.36493 -5.42761 -5.49053 -5.55319);
    }
}


// ************************************************************************* //
