/*--------------------------------*- C++ -*----------------------------------*\
  =========                 |
  \\      /  F ield         | OpenFOAM: The Open Source CFD Toolbox
   \\    /   O peration     | Website:  https://openfoam.org
    \\  /    A nd           | Version:  dev
     \\/     M anipulation  |

   OpenFOAM for Windows 20.09 (v1)
   Built by CFD Support, www.cfdsupport.com (based on Symscape).
\*---------------------------------------------------------------------------*/
FoamFile
{
    version     2.0;
    format      ascii;
    class       volScalarField;
    location    "2";
    object      p_rgh;
}
// * * * * * * * * * * * * * * * * * * * * * * * * * * * * * * * * * * * * * //

dimensions      [1 -1 -2 0 0 0 0];

internalField   nonuniform List<scalar> 
120
(
-4.37582
-4.43841
-4.50063
-4.56267
-4.37582
-4.43841
-4.50063
-4.56267
-4.37582
-4.43841
-4.50063
-4.56267
-4.37583
-4.43841
-4.50063
-4.56268
-4.37583
-4.43841
-4.50063
-4.56268
-4.37583
-4.43841
-4.50063
-4.56268
-4.37583
-4.43841
-4.50063
-4.56268
-4.37584
-4.43841
-4.50063
-4.56268
-4.37584
-4.43841
-4.50063
-4.56269
-4.37584
-4.43841
-4.50063
-4.56269
-4.37585
-4.43841
-4.50063
-4.56269
-4.37585
-4.43841
-4.50063
-4.56269
-4.37585
-4.4384
-4.50063
-4.56269
-4.37586
-4.4384
-4.50063
-4.56269
-4.37586
-4.4384
-4.50063
-4.56269
-4.62509
-4.68779
-4.75079
-4.81333
-4.62509
-4.68779
-4.75078
-4.81333
-4.62509
-4.68779
-4.75078
-4.81333
-4.62509
-4.68779
-4.75077
-4.81333
-4.62509
-4.68778
-4.75076
-4.81333
-4.62509
-4.68778
-4.75076
-4.81334
-4.62509
-4.68778
-4.75075
-4.81334
-4.62509
-4.68778
-4.75074
-4.81334
-4.62509
-4.68778
-4.75074
-4.81334
-4.62509
-4.68778
-4.75073
-4.81334
-4.62509
-4.68778
-4.75072
-4.81334
-4.62509
-4.68778
-4.75071
-4.81334
-4.62509
-4.68777
-4.75071
-4.81335
-4.62509
-4.68777
-4.7507
-4.81335
-4.62509
-4.68777
-4.75069
-4.81335
)
;

boundaryField
{
    topWall
    {
        type            zeroGradient;
    }
    botWall
    {
        type            zeroGradient;
    }
    inlet
    {
        type            fixedJump;
        patchType       cyclic;
        jump            uniform -0.5;
        value           nonuniform List<scalar> 
15
(
-4.34457
-4.34457
-4.34458
-4.34458
-4.34458
-4.34458
-4.34459
-4.34459
-4.34459
-4.34459
-4.34459
-4.3446
-4.3446
-4.3446
-4.3446
)
;
    }
    outlet
    {
        type            fixedJump;
        patchType       cyclic;
        value           nonuniform List<scalar> 
15
(
-4.84457
-4.84457
-4.84458
-4.84458
-4.84458
-4.84458
-4.84459
-4.84459
-4.84459
-4.84459
-4.84459
-4.8446
-4.8446
-4.8446
-4.8446
)
;
    }
    fixWall
    {
        type            empty;
    }
    procBoundary5to4
    {
        type            processor;
        value           nonuniform List<scalar> 8(-4.37582 -4.43841 -4.50063 -4.56267 -4.62509 -4.68779 -4.75079 -4.81333);
    }
    procBoundary5to6
    {
        type            processor;
        value           nonuniform List<scalar> 8(-4.37586 -4.4384 -4.50062 -4.5627 -4.62509 -4.68777 -4.75069 -4.81335);
    }
}


// ************************************************************************* //
