/*--------------------------------*- C++ -*----------------------------------*\
  =========                 |
  \\      /  F ield         | OpenFOAM: The Open Source CFD Toolbox
   \\    /   O peration     | Website:  https://openfoam.org
    \\  /    A nd           | Version:  dev
     \\/     M anipulation  |

   OpenFOAM for Windows 20.09 (v1)
   Built by CFD Support, www.cfdsupport.com (based on Symscape).
\*---------------------------------------------------------------------------*/
FoamFile
{
    version     2.0;
    format      ascii;
    class       surfaceScalarField;
    location    "2";
    object      phi;
}
// * * * * * * * * * * * * * * * * * * * * * * * * * * * * * * * * * * * * * //

dimensions      [0 3 -1 0 0 0 0];

internalField   nonuniform List<scalar> 
217
(
1.36147e-07
-2.46667e-10
1.36142e-07
-2.9942e-11
1.36186e-07
2.3346e-10
-1.80346e-10
1.36156e-07
1.36827e-07
-2.14028e-10
1.36818e-07
-2.16226e-11
1.36866e-07
1.85979e-10
-1.50017e-10
1.36836e-07
1.37326e-07
-1.78606e-10
1.37315e-07
-1.0366e-11
1.37366e-07
1.35246e-10
-1.17851e-10
1.37333e-07
1.37689e-07
-1.40937e-10
1.37675e-07
3.60804e-12
1.37728e-07
8.29606e-11
-8.56897e-11
1.37695e-07
1.37949e-07
-1.01035e-10
1.37933e-07
1.94775e-11
1.37987e-07
2.94622e-11
-5.23985e-11
1.37954e-07
1.38134e-07
-5.90138e-11
1.38116e-07
3.72423e-11
1.3817e-07
-2.44449e-11
-1.9502e-11
1.38137e-07
1.38263e-07
-1.59767e-11
1.38244e-07
5.62498e-11
1.38297e-07
-7.78619e-11
1.36111e-11
1.38264e-07
1.38351e-07
2.76319e-11
1.38332e-07
7.60965e-11
1.38384e-07
-1.3063e-10
4.56983e-11
1.38352e-07
1.38411e-07
7.07414e-11
1.38391e-07
9.64352e-11
1.38442e-07
-1.81322e-10
7.62664e-11
1.38411e-07
1.38451e-07
1.12662e-10
1.38431e-07
1.16552e-10
1.3848e-07
-2.30136e-10
1.04948e-10
1.38451e-07
1.38476e-07
1.52523e-10
1.38456e-07
1.36696e-10
1.38501e-07
-2.74969e-10
1.28526e-10
1.38477e-07
1.38492e-07
1.89177e-10
1.38473e-07
1.55612e-10
1.38514e-07
-3.16027e-10
1.48793e-10
1.38494e-07
1.38501e-07
2.22452e-10
1.38482e-07
1.74896e-10
1.38517e-07
-3.5038e-10
1.58787e-10
1.38507e-07
1.38507e-07
2.50008e-10
1.3849e-07
1.91917e-10
1.38517e-07
-3.77551e-10
1.66761e-10
1.3851e-07
1.38509e-07
1.38489e-07
1.38506e-07
1.3851e-07
1.36122e-07
-6.53527e-11
1.36151e-07
6.33346e-11
1.36164e-07
-1.03625e-10
3.33255e-10
1.36798e-07
-2.79429e-11
1.3682e-07
4.12375e-11
1.36835e-07
-1.1876e-10
3.09232e-10
1.37286e-07
1.89908e-11
1.37299e-07
2.88548e-11
1.37323e-07
-1.43181e-10
2.70947e-10
1.37646e-07
6.7829e-11
1.37654e-07
2.13817e-11
1.37681e-07
-1.70564e-10
2.25361e-10
1.37902e-07
1.19941e-10
1.37906e-07
1.65789e-11
1.37938e-07
-2.02532e-10
1.74377e-10
1.38085e-07
1.71822e-10
1.38088e-07
1.3287e-11
1.38122e-07
-2.36251e-10
1.20662e-10
1.38212e-07
2.23654e-10
1.38215e-07
1.06525e-11
1.3825e-07
-2.71737e-10
6.52122e-11
1.38301e-07
2.7446e-10
1.38303e-07
9.22437e-12
1.38339e-07
-3.07671e-10
9.06174e-12
1.38363e-07
3.2238e-10
1.38364e-07
9.0654e-12
1.38398e-07
-3.42606e-10
-4.68878e-11
1.38405e-07
3.68392e-10
1.38404e-07
1.04701e-11
1.38438e-07
-3.76573e-10
-1.01949e-10
1.38439e-07
4.06726e-10
1.38434e-07
1.54378e-11
1.38463e-07
-4.05113e-10
-1.55068e-10
1.3846e-07
4.4139e-10
1.38452e-07
2.30194e-11
1.38478e-07
-4.30841e-10
-2.05889e-10
1.38486e-07
4.616e-10
1.38472e-07
3.747e-11
1.38487e-07
-4.45909e-10
-2.53532e-10
1.38493e-07
4.7796e-10
1.38477e-07
5.31024e-11
1.3849e-07
-4.58961e-10
-2.97886e-10
1.3851e-07
1.38489e-07
1.38492e-07
)
;

boundaryField
{
    topWall
    {
        type            calculated;
        value           nonuniform List<scalar> 0();
    }
    botWall
    {
        type            calculated;
        value           nonuniform List<scalar> 0();
    }
    inlet
    {
        type            cyclic;
        value           nonuniform List<scalar> 
15
(
-1.36177e-07
-1.3686e-07
-1.37361e-07
-1.37727e-07
-1.37989e-07
-1.38176e-07
-1.38306e-07
-1.38395e-07
-1.38454e-07
-1.38493e-07
-1.38516e-07
-1.38529e-07
-1.38535e-07
-1.38535e-07
-1.38533e-07
)
;
    }
    outlet
    {
        type            cyclic;
        value           nonuniform List<scalar> 
15
(
1.36177e-07
1.3686e-07
1.37361e-07
1.37727e-07
1.37989e-07
1.38176e-07
1.38306e-07
1.38395e-07
1.38454e-07
1.38493e-07
1.38516e-07
1.38529e-07
1.38535e-07
1.38535e-07
1.38533e-07
)
;
    }
    fixWall
    {
        type            empty;
        value           nonuniform List<scalar> 0();
    }
    procBoundary5to4
    {
        type            processor;
        value           nonuniform List<scalar> 8(2.78608e-10 3.21378e-11 -2.75988e-10 2.14569e-10 9.69545e-11 -9.26689e-11 8.50584e-11 -3.49844e-10);
    }
    procBoundary5to6
    {
        type            processor;
        value           nonuniform List<scalar> 8(2.77249e-10 2.11394e-10 -3.94966e-10 1.64981e-10 4.77185e-10 7.33312e-11 -4.61979e-10 -3.38143e-10);
    }
}


// ************************************************************************* //
