/*--------------------------------*- C++ -*----------------------------------*\
  =========                 |
  \\      /  F ield         | OpenFOAM: The Open Source CFD Toolbox
   \\    /   O peration     | Website:  https://openfoam.org
    \\  /    A nd           | Version:  dev
     \\/     M anipulation  |

   OpenFOAM for Windows 20.09 (v1)
   Built by CFD Support, www.cfdsupport.com (based on Symscape).
\*---------------------------------------------------------------------------*/
FoamFile
{
    version     2.0;
    format      ascii;
    class       volSymmTensorField;
    location    "2";
    object      R;
}
// * * * * * * * * * * * * * * * * * * * * * * * * * * * * * * * * * * * * * //

dimensions      [0 2 -2 0 0 0 0];

internalField   nonuniform List<symmTensor> 
120
(
(1.4805e-16 -1.27525e-17 -0 1.48007e-16 -0 1.48032e-16)
(1.48026e-16 -1.25292e-17 -0 1.48037e-16 -0 1.48026e-16)
(1.48009e-16 -1.26616e-17 -0 1.48046e-16 -0 1.48034e-16)
(1.48039e-16 -1.26841e-17 -0 1.4803e-16 -0 1.48021e-16)
(1.48045e-16 -9.51152e-18 -0 1.4802e-16 -0 1.48025e-16)
(1.48034e-16 -9.33846e-18 -0 1.48023e-16 -0 1.48032e-16)
(1.47999e-16 -9.42952e-18 -0 1.48065e-16 -0 1.48026e-16)
(1.48053e-16 -9.44563e-18 -0 1.48003e-16 -0 1.48034e-16)
(1.48055e-16 -6.99205e-18 -0 1.48001e-16 -0 1.48034e-16)
(1.48031e-16 -6.84647e-18 -0 1.48031e-16 -0 1.48027e-16)
(1.48004e-16 -6.91237e-18 -0 1.48053e-16 -0 1.48032e-16)
(1.48046e-16 -6.92717e-18 -0 1.48016e-16 -0 1.48027e-16)
(1.48049e-16 -5.05432e-18 -0 1.48013e-16 -0 1.48027e-16)
(1.48037e-16 -4.94684e-18 -0 1.4802e-16 -0 1.48032e-16)
(1.47999e-16 -4.98673e-18 -0 1.48063e-16 -0 1.48028e-16)
(1.4805e-16 -4.99207e-18 -0 1.48008e-16 -0 1.48031e-16)
(1.48054e-16 -3.59588e-18 -0 1.48004e-16 -0 1.48031e-16)
(1.48035e-16 -3.51439e-18 -0 1.48024e-16 -0 1.4803e-16)
(1.47999e-16 -3.53722e-18 -0 1.48061e-16 -0 1.48029e-16)
(1.48051e-16 -3.5404e-18 -0 1.48007e-16 -0 1.48031e-16)
(1.48055e-16 -2.51298e-18 -0 1.48004e-16 -0 1.4803e-16)
(1.48036e-16 -2.45932e-18 -0 1.48025e-16 -0 1.48029e-16)
(1.48002e-16 -2.46425e-18 -0 1.48056e-16 -0 1.48032e-16)
(1.48047e-16 -2.4582e-18 -0 1.48016e-16 -0 1.48027e-16)
(1.4805e-16 -1.71758e-18 -0 1.48014e-16 -0 1.48025e-16)
(1.48043e-16 -1.6935e-18 -0 1.48011e-16 -0 1.48035e-16)
(1.48001e-16 -1.68382e-18 -0 1.48058e-16 -0 1.4803e-16)
(1.4805e-16 -1.67551e-18 -0 1.48008e-16 -0 1.48031e-16)
(1.48058e-16 -1.14546e-18 -0 1.47998e-16 -0 1.48033e-16)
(1.48033e-16 -1.14786e-18 -0 1.4803e-16 -0 1.48026e-16)
(1.48001e-16 -1.12322e-18 -0 1.48058e-16 -0 1.4803e-16)
(1.48046e-16 -1.10611e-18 -0 1.48017e-16 -0 1.48027e-16)
(1.48049e-16 -7.37508e-19 -0 1.48016e-16 -0 1.48025e-16)
(1.48043e-16 -7.69189e-19 -0 1.48011e-16 -0 1.48035e-16)
(1.48003e-16 -7.31034e-19 -0 1.48055e-16 -0 1.4803e-16)
(1.48049e-16 -7.09895e-19 -0 1.48009e-16 -0 1.48031e-16)
(1.48056e-16 -4.52706e-19 -0 1.48e-16 -0 1.48033e-16)
(1.48034e-16 -5.08324e-19 -0 1.48028e-16 -0 1.48026e-16)
(1.48004e-16 -4.52862e-19 -0 1.48056e-16 -0 1.48029e-16)
(1.48045e-16 -4.22791e-19 -0 1.48016e-16 -0 1.48028e-16)
(1.48047e-16 -2.54542e-19 -0 1.48017e-16 -0 1.48026e-16)
(1.48037e-16 -3.4018e-19 -0 1.48022e-16 -0 1.4803e-16)
(1.48007e-16 -2.69462e-19 -0 1.48052e-16 -0 1.4803e-16)
(1.48041e-16 -2.30346e-19 -0 1.48021e-16 -0 1.48027e-16)
(1.48048e-16 -1.24393e-19 -0 1.48012e-16 -0 1.48029e-16)
(1.48042e-16 -2.26951e-19 -0 1.48012e-16 -0 1.48035e-16)
(1.48013e-16 -1.32941e-19 -0 1.48044e-16 -0 1.48033e-16)
(1.48041e-16 -8.3062e-20 -0 1.48018e-16 -0 1.4803e-16)
(1.48046e-16 -3.22205e-20 -0 1.48014e-16 -0 1.48029e-16)
(1.48033e-16 -1.67777e-19 -0 1.4803e-16 -0 1.48026e-16)
(1.48011e-16 -5.57363e-20 -0 1.4805e-16 -0 1.48028e-16)
(1.48036e-16 1.41335e-20 -0 1.48024e-16 -0 1.48029e-16)
(1.48042e-16 2.11057e-20 -0 1.4802e-16 -0 1.48028e-16)
(1.48038e-16 -1.18437e-19 -0 1.48019e-16 -0 1.48032e-16)
(1.4802e-16 2.68008e-20 -0 1.48036e-16 -0 1.48033e-16)
(1.48032e-16 1.04018e-19 -0 1.4803e-16 -0 1.48027e-16)
(1.48044e-16 6.66338e-20 -0 1.48013e-16 -0 1.48032e-16)
(1.48042e-16 -9.78188e-20 -0 1.48012e-16 -0 1.48035e-16)
(1.48023e-16 8.00545e-20 -0 1.48036e-16 -0 1.48031e-16)
(1.48034e-16 1.78165e-19 -0 1.48022e-16 -0 1.48034e-16)
(1.48042e-16 -1.26049e-17 -0 1.48023e-16 -0 1.48024e-16)
(1.48016e-16 -1.25086e-17 -0 1.48046e-16 -0 1.48028e-16)
(1.48021e-16 -1.2404e-17 -0 1.48035e-16 -0 1.48033e-16)
(1.48017e-16 -1.27044e-17 -0 1.4805e-16 -0 1.48023e-16)
(1.48054e-16 -9.39091e-18 -0 1.48e-16 -0 1.48035e-16)
(1.4802e-16 -9.2516e-18 -0 1.48041e-16 -0 1.48028e-16)
(1.48018e-16 -9.12461e-18 -0 1.4804e-16 -0 1.48031e-16)
(1.48022e-16 -9.42362e-18 -0 1.48033e-16 -0 1.48034e-16)
(1.48052e-16 -6.88337e-18 -0 1.48011e-16 -0 1.48027e-16)
(1.48026e-16 -6.74167e-18 -0 1.48033e-16 -0 1.4803e-16)
(1.48013e-16 -6.6541e-18 -0 1.48046e-16 -0 1.4803e-16)
(1.48007e-16 -6.92843e-18 -0 1.48057e-16 -0 1.48026e-16)
(1.48057e-16 -4.97043e-18 -0 1.48001e-16 -0 1.48031e-16)
(1.48026e-16 -4.90799e-18 -0 1.48035e-16 -0 1.48027e-16)
(1.48009e-16 -4.85398e-18 -0 1.48053e-16 -0 1.48028e-16)
(1.48008e-16 -5.01957e-18 -0 1.48049e-16 -0 1.48032e-16)
(1.48059e-16 -3.52734e-18 -0 1.47998e-16 -0 1.48032e-16)
(1.48031e-16 -3.49037e-18 -0 1.48028e-16 -0 1.4803e-16)
(1.48009e-16 -3.46713e-18 -0 1.48049e-16 -0 1.48031e-16)
(1.48004e-16 -3.58284e-18 -0 1.48054e-16 -0 1.48031e-16)
(1.48055e-16 -2.46936e-18 -0 1.48006e-16 -0 1.48028e-16)
(1.48029e-16 -2.461e-18 -0 1.48032e-16 -0 1.48028e-16)
(1.4801e-16 -2.44098e-18 -0 1.48047e-16 -0 1.48032e-16)
(1.48e-16 -2.50915e-18 -0 1.48062e-16 -0 1.48028e-16)
(1.48057e-16 -1.69888e-18 -0 1.48002e-16 -0 1.4803e-16)
(1.4803e-16 -1.69021e-18 -0 1.48031e-16 -0 1.48029e-16)
(1.48009e-16 -1.67669e-18 -0 1.4805e-16 -0 1.48031e-16)
(1.48003e-16 -1.71743e-18 -0 1.48056e-16 -0 1.48031e-16)
(1.48055e-16 -1.16521e-18 -0 1.48005e-16 -0 1.48029e-16)
(1.48031e-16 -1.16406e-18 -0 1.48029e-16 -0 1.48029e-16)
(1.48009e-16 -1.13355e-18 -0 1.48049e-16 -0 1.48031e-16)
(1.47999e-16 -1.14886e-18 -0 1.48062e-16 -0 1.48028e-16)
(1.48055e-16 -7.85151e-19 -0 1.48004e-16 -0 1.48031e-16)
(1.48031e-16 -7.79529e-19 -0 1.48029e-16 -0 1.48029e-16)
(1.4801e-16 -7.49178e-19 -0 1.48049e-16 -0 1.48031e-16)
(1.48003e-16 -7.43319e-19 -0 1.48054e-16 -0 1.48031e-16)
(1.48055e-16 -5.58753e-19 -0 1.48003e-16 -0 1.48032e-16)
(1.48033e-16 -5.60963e-19 -0 1.48027e-16 -0 1.4803e-16)
(1.48011e-16 -4.89177e-19 -0 1.48047e-16 -0 1.48031e-16)
(1.48003e-16 -4.60392e-19 -0 1.48056e-16 -0 1.4803e-16)
(1.48043e-16 -3.92859e-19 -0 1.48022e-16 -0 1.48024e-16)
(1.48032e-16 -3.89595e-19 -0 1.4803e-16 -0 1.48027e-16)
(1.48013e-16 -3.09995e-19 -0 1.48047e-16 -0 1.48029e-16)
(1.48002e-16 -2.65139e-19 -0 1.4806e-16 -0 1.48027e-16)
(1.48049e-16 -3.23758e-19 -0 1.48007e-16 -0 1.48033e-16)
(1.48036e-16 -3.29756e-19 -0 1.48023e-16 -0 1.4803e-16)
(1.4802e-16 -1.95854e-19 -0 1.48036e-16 -0 1.48034e-16)
(1.48007e-16 -1.35602e-19 -0 1.48052e-16 -0 1.48031e-16)
(1.4804e-16 -2.21145e-19 -0 1.48018e-16 -0 1.48031e-16)
(1.48037e-16 -2.22671e-19 -0 1.48024e-16 -0 1.48029e-16)
(1.48021e-16 -1.15939e-19 -0 1.48038e-16 -0 1.4803e-16)
(1.48009e-16 -4.66827e-20 -0 1.4805e-16 -0 1.4803e-16)
(1.4803e-16 -1.49249e-19 -0 1.48037e-16 -0 1.48023e-16)
(1.48037e-16 -1.55958e-19 -0 1.48023e-16 -0 1.48029e-16)
(1.48022e-16 -6.60757e-20 -0 1.48037e-16 -0 1.4803e-16)
(1.48008e-16 4.6626e-21 -0 1.48055e-16 -0 1.48027e-16)
(1.48039e-16 -1.38947e-19 -0 1.48011e-16 -0 1.48039e-16)
(1.48041e-16 -1.48074e-19 -0 1.48018e-16 -0 1.48031e-16)
(1.48029e-16 -3.06997e-20 -0 1.48029e-16 -0 1.48032e-16)
(1.4802e-16 4.61203e-20 -0 1.48033e-16 -0 1.48036e-16)
)
;

boundaryField
{
    topWall
    {
        type            kqRWallFunction;
        value           nonuniform List<symmTensor> 0();
    }
    botWall
    {
        type            kqRWallFunction;
        value           nonuniform List<symmTensor> 0();
    }
    inlet
    {
        type            cyclic;
    }
    outlet
    {
        type            cyclic;
    }
    fixWall
    {
        type            empty;
    }
    procBoundary5to4
    {
        type            processor;
        value           nonuniform List<symmTensor> 8((1.48035e-16 -1.67977e-17 -0 1.48032e-16 -0 1.48021e-16) (1.4804e-16 -1.66093e-17 -0 1.48008e-16 -0 1.48042e-16) (1.48013e-16 -1.67762e-17 -0 1.48042e-16 -0 1.48034e-16) (1.4805e-16 -1.67933e-17 -0 1.48006e-16 -0 1.48033e-16) (1.48041e-16 -1.66936e-17 -0 1.4802e-16 -0 1.48028e-16) (1.48013e-16 -1.66365e-17 -0 1.48049e-16 -0 1.48028e-16) (1.48031e-16 -1.66192e-17 -0 1.48021e-16 -0 1.48037e-16) (1.48032e-16 -1.68464e-17 -0 1.48027e-16 -0 1.48031e-16));
    }
    procBoundary5to6
    {
        type            processor;
        value           nonuniform List<symmTensor> 8((1.48037e-16 1.11977e-19 -0 1.48023e-16 -0 1.48029e-16) (1.48027e-16 -5.4215e-20 -0 1.48042e-16 -0 1.48021e-16) (1.48023e-16 1.07682e-19 -0 1.48041e-16 -0 1.48025e-16) (1.48025e-16 1.98249e-19 -0 1.48037e-16 -0 1.48027e-16) (1.4802e-16 -5.24118e-20 -0 1.48045e-16 -0 1.48024e-16) (1.4804e-16 -5.78117e-20 -0 1.4802e-16 -0 1.48029e-16) (1.48024e-16 -1.1934e-21 -0 1.4804e-16 -0 1.48025e-16) (1.48013e-16 8.09507e-20 -0 1.4805e-16 -0 1.48027e-16));
    }
}


// ************************************************************************* //
