/*--------------------------------*- C++ -*----------------------------------*\
  =========                 |
  \\      /  F ield         | OpenFOAM: The Open Source CFD Toolbox
   \\    /   O peration     | Website:  https://openfoam.org
    \\  /    A nd           | Version:  dev
     \\/     M anipulation  |

   OpenFOAM for Windows 20.09 (v1)
   Built by CFD Support, www.cfdsupport.com (based on Symscape).
\*---------------------------------------------------------------------------*/
FoamFile
{
    version     2.0;
    format      ascii;
    class       volVectorField;
    location    "2";
    object      U;
}
// * * * * * * * * * * * * * * * * * * * * * * * * * * * * * * * * * * * * * //

dimensions      [0 1 -1 0 0 0 0];

internalField   nonuniform List<vector> 
120
(
(0.163414 -5.78023e-06 0)
(0.16333 8.82003e-07 0)
(0.163414 6.16407e-06 0)
(0.163443 -3.95344e-06 0)
(0.164237 -3.96756e-06 0)
(0.164139 -2.00925e-06 0)
(0.164229 4.08623e-06 0)
(0.164259 -4.37825e-06 0)
(0.164843 -5.43059e-06 0)
(0.164731 1.58688e-06 0)
(0.164828 3.24579e-06 0)
(0.164859 -1.62384e-06 0)
(0.165284 -1.50836e-06 0)
(0.165162 -2.28604e-06 0)
(0.165262 2.54689e-06 0)
(0.165294 -3.61886e-06 0)
(0.165599 -4.42799e-06 0)
(0.165471 2.5447e-06 0)
(0.165573 6.63985e-07 0)
(0.165606 4.19986e-08 0)
(0.165824 4.53948e-07 0)
(0.165689 -1.89565e-06 0)
(0.165793 1.66441e-07 0)
(0.165825 -1.83081e-06 0)
(0.16598 -2.47164e-06 0)
(0.165843 2.849e-06 0)
(0.165946 -1.17559e-06 0)
(0.165977 8.89281e-07 0)
(0.166087 1.36791e-06 0)
(0.165949 -7.54817e-09 0)
(0.16605 -1.90573e-06 0)
(0.166082 -1.15811e-07 0)
(0.166158 2.26929e-07 0)
(0.166021 2.50139e-06 0)
(0.16612 -3.33768e-06 0)
(0.166149 1.6779e-06 0)
(0.166204 2.09704e-06 0)
(0.166071 1.88027e-06 0)
(0.166166 -3.89463e-06 0)
(0.166194 1.65506e-06 0)
(0.166232 2.97732e-06 0)
(0.166104 2.3371e-06 0)
(0.166194 -5.54971e-06 0)
(0.166218 2.67001e-06 0)
(0.166247 2.83644e-06 0)
(0.166128 2.51957e-06 0)
(0.166211 -5.79294e-06 0)
(0.166232 2.19334e-06 0)
(0.166253 4.47172e-06 0)
(0.166143 4.30835e-06 0)
(0.166217 -6.46686e-06 0)
(0.166232 3.68793e-06 0)
(0.166252 4.1784e-06 0)
(0.166158 2.20602e-06 0)
(0.166221 -7.80255e-06 0)
(0.16623 2.67934e-06 0)
(0.166249 5.26795e-06 0)
(0.166166 5.5915e-06 0)
(0.166212 -6.80846e-06 0)
(0.166212 3.44081e-06 0)
(0.163331 -2.41771e-06 0)
(0.163362 1.55845e-06 0)
(0.163387 -1.38997e-06 0)
(0.163414 6.68024e-06 0)
(0.164145 -1.05596e-06 0)
(0.164172 9.02584e-07 0)
(0.164184 -1.82764e-06 0)
(0.164229 5.78903e-06 0)
(0.164739 1.70635e-07 0)
(0.164749 5.64967e-07 0)
(0.164755 -2.05781e-06 0)
(0.164828 6.77394e-06 0)
(0.165173 1.71257e-07 0)
(0.165179 6.75473e-07 0)
(0.165178 -2.99147e-06 0)
(0.165264 3.51514e-06 0)
(0.165482 2.47055e-06 0)
(0.165482 -1.84276e-08 0)
(0.16548 -3.92131e-06 0)
(0.165578 5.47833e-06 0)
(0.165702 2.73634e-06 0)
(0.165702 8.55724e-07 0)
(0.165698 -4.38696e-06 0)
(0.165801 1.80013e-06 0)
(0.165855 4.11571e-06 0)
(0.165854 -2.9118e-07 0)
(0.165849 -5.05802e-06 0)
(0.165957 2.88276e-06 0)
(0.165962 4.87556e-06 0)
(0.165961 6.85524e-07 0)
(0.165954 -5.80228e-06 0)
(0.166064 -9.27304e-08 0)
(0.166036 6.01562e-06 0)
(0.166036 -3.05797e-07 0)
(0.166026 -6.48794e-06 0)
(0.166135 2.49233e-07 0)
(0.166087 6.9882e-06 0)
(0.166085 7.10448e-07 0)
(0.166073 -7.21501e-06 0)
(0.166182 -1.92111e-06 0)
(0.166127 8.40601e-06 0)
(0.166127 -9.16221e-08 0)
(0.166105 -7.83542e-06 0)
(0.16621 -1.88136e-06 0)
(0.166153 7.17539e-06 0)
(0.16615 5.06112e-07 0)
(0.166125 -8.71058e-06 0)
(0.166226 -4.71329e-06 0)
(0.166183 1.06832e-05 0)
(0.166184 5.16378e-07 0)
(0.166139 -7.95467e-06 0)
(0.166233 -3.69637e-06 0)
(0.166192 8.36611e-06 0)
(0.16619 9.16569e-07 0)
(0.166146 -9.40973e-06 0)
(0.166234 -6.50814e-06 0)
(0.166211 9.40227e-06 0)
(0.166213 1.01739e-06 0)
(0.166151 -8.6513e-06 0)
(0.166232 -6.33951e-06 0)
)
;

boundaryField
{
    topWall
    {
        type            noSlip;
    }
    botWall
    {
        type            noSlip;
    }
    inlet
    {
        type            cyclic;
    }
    outlet
    {
        type            cyclic;
    }
    fixWall
    {
        type            empty;
    }
    procBoundary5to4
    {
        type            processor;
        value           nonuniform List<vector> 8((0.162307 -5.85273e-06 0) (0.162244 -1.16501e-06 0) (0.162316 4.95427e-06 0) (0.162341 -3.68892e-06 0) (0.16224 -1.18183e-06 0) (0.162282 2.22195e-06 0) (0.16231 -1.71572e-06 0) (0.162309 7.87641e-06 0));
    }
    procBoundary5to6
    {
        type            processor;
        value           nonuniform List<vector> 8((0.166239 6.04885e-06 0) (0.166177 4.429e-06 0) (0.166206 -8.31474e-06 0) (0.166195 3.81434e-06 0) (0.166219 1.1114e-05 0) (0.16622 2.14624e-06 0) (0.166152 -9.10881e-06 0) (0.166225 -6.19225e-06 0));
    }
}


// ************************************************************************* //
