/*--------------------------------*- C++ -*----------------------------------*\
  =========                 |
  \\      /  F ield         | OpenFOAM: The Open Source CFD Toolbox
   \\    /   O peration     | Website:  https://openfoam.org
    \\  /    A nd           | Version:  dev
     \\/     M anipulation  |

   OpenFOAM for Windows 20.09 (v1)
   Built by CFD Support, www.cfdsupport.com (based on Symscape).
\*---------------------------------------------------------------------------*/
FoamFile
{
    version     2.0;
    format      ascii;
    class       volScalarField;
    location    "30";
    object      epsilon;
}
// * * * * * * * * * * * * * * * * * * * * * * * * * * * * * * * * * * * * * //

dimensions      [0 2 -3 0 0 0 0];

internalField   nonuniform List<scalar> 
1600
(
7.47993e-05
7.47995e-05
7.47999e-05
7.48005e-05
7.48012e-05
7.48021e-05
7.48029e-05
7.48036e-05
7.48042e-05
7.48046e-05
7.48047e-05
7.48046e-05
7.48042e-05
7.48029e-05
7.48013e-05
7.48e-05
7.47993e-05
7.47989e-05
7.47989e-05
7.47989e-05
7.47989e-05
7.47989e-05
7.47989e-05
7.4799e-05
7.4799e-05
7.4799e-05
7.4799e-05
7.47989e-05
7.47989e-05
7.4799e-05
7.4799e-05
7.4799e-05
7.4799e-05
7.47991e-05
7.47991e-05
7.47991e-05
7.47992e-05
7.47992e-05
7.47992e-05
7.47992e-05
5.38493e-05
5.38493e-05
5.38494e-05
5.38496e-05
5.385e-05
5.38504e-05
5.38509e-05
5.38513e-05
5.38517e-05
5.3852e-05
5.38521e-05
5.38521e-05
5.3852e-05
5.38514e-05
5.38505e-05
5.38497e-05
5.38492e-05
5.38489e-05
5.38488e-05
5.38488e-05
5.38488e-05
5.38488e-05
5.38489e-05
5.38489e-05
5.38489e-05
5.38489e-05
5.38489e-05
5.38488e-05
5.38488e-05
5.38487e-05
5.38487e-05
5.38486e-05
5.38486e-05
5.38487e-05
5.38487e-05
5.38487e-05
5.38487e-05
5.38487e-05
5.38488e-05
5.38492e-05
4.72643e-05
4.72642e-05
4.72643e-05
4.72645e-05
4.72647e-05
4.7265e-05
4.72653e-05
4.72656e-05
4.72659e-05
4.72661e-05
4.72662e-05
4.72663e-05
4.72662e-05
4.72658e-05
4.72652e-05
4.72646e-05
4.72641e-05
4.72639e-05
4.72637e-05
4.72637e-05
4.72637e-05
4.72637e-05
4.72638e-05
4.72638e-05
4.72638e-05
4.72638e-05
4.72638e-05
4.72637e-05
4.72637e-05
4.72636e-05
4.72635e-05
4.72634e-05
4.72634e-05
4.72634e-05
4.72634e-05
4.72635e-05
4.72635e-05
4.72635e-05
4.72635e-05
4.7264e-05
4.49574e-05
4.49574e-05
4.49576e-05
4.49577e-05
4.49579e-05
4.4958e-05
4.49582e-05
4.49585e-05
4.49587e-05
4.49589e-05
4.4959e-05
4.4959e-05
4.4959e-05
4.49588e-05
4.49582e-05
4.49577e-05
4.49573e-05
4.4957e-05
4.49568e-05
4.49568e-05
4.49568e-05
4.49568e-05
4.49568e-05
4.49568e-05
4.49568e-05
4.49569e-05
4.49569e-05
4.49569e-05
4.49568e-05
4.49567e-05
4.49565e-05
4.49564e-05
4.49564e-05
4.49564e-05
4.49564e-05
4.49565e-05
4.49565e-05
4.49565e-05
4.49565e-05
4.49572e-05
4.43702e-05
4.43702e-05
4.43703e-05
4.43705e-05
4.43706e-05
4.43707e-05
4.43709e-05
4.43711e-05
4.43712e-05
4.43714e-05
4.43715e-05
4.43715e-05
4.43715e-05
4.43714e-05
4.43709e-05
4.43704e-05
4.437e-05
4.43697e-05
4.43695e-05
4.43695e-05
4.43695e-05
4.43695e-05
4.43695e-05
4.43695e-05
4.43695e-05
4.43695e-05
4.43696e-05
4.43695e-05
4.43695e-05
4.43693e-05
4.43692e-05
4.43691e-05
4.4369e-05
4.4369e-05
4.4369e-05
4.43691e-05
4.43691e-05
4.43691e-05
4.43691e-05
4.43698e-05
4.46028e-05
4.46028e-05
4.4603e-05
4.46031e-05
4.46032e-05
4.46033e-05
4.46035e-05
4.46036e-05
4.46037e-05
4.46039e-05
4.4604e-05
4.4604e-05
4.4604e-05
4.46039e-05
4.46036e-05
4.46031e-05
4.46027e-05
4.46023e-05
4.46021e-05
4.4602e-05
4.4602e-05
4.4602e-05
4.4602e-05
4.46021e-05
4.46021e-05
4.46021e-05
4.46021e-05
4.46021e-05
4.46021e-05
4.46019e-05
4.46017e-05
4.46016e-05
4.46015e-05
4.46015e-05
4.46016e-05
4.46015e-05
4.46016e-05
4.46016e-05
4.46016e-05
4.46023e-05
4.52683e-05
4.52683e-05
4.52685e-05
4.52687e-05
4.52688e-05
4.52689e-05
4.52691e-05
4.52692e-05
4.52693e-05
4.52694e-05
4.52695e-05
4.52696e-05
4.52696e-05
4.52695e-05
4.52692e-05
4.52687e-05
4.52683e-05
4.52679e-05
4.52677e-05
4.52676e-05
4.52676e-05
4.52676e-05
4.52676e-05
4.52676e-05
4.52677e-05
4.52677e-05
4.52677e-05
4.52677e-05
4.52677e-05
4.52675e-05
4.52673e-05
4.52671e-05
4.5267e-05
4.5267e-05
4.5267e-05
4.5267e-05
4.52671e-05
4.52671e-05
4.52671e-05
4.52678e-05
4.61736e-05
4.61737e-05
4.6174e-05
4.61742e-05
4.61744e-05
4.61745e-05
4.61746e-05
4.61747e-05
4.61749e-05
4.61749e-05
4.6175e-05
4.61751e-05
4.61751e-05
4.61751e-05
4.61748e-05
4.61744e-05
4.61739e-05
4.61735e-05
4.61732e-05
4.61731e-05
4.61731e-05
4.61731e-05
4.61732e-05
4.61732e-05
4.61732e-05
4.61732e-05
4.61732e-05
4.61732e-05
4.61732e-05
4.61731e-05
4.61728e-05
4.61726e-05
4.61725e-05
4.61725e-05
4.61725e-05
4.61725e-05
4.61725e-05
4.61725e-05
4.61726e-05
4.61731e-05
4.72087e-05
4.72093e-05
4.72098e-05
4.72101e-05
4.72103e-05
4.72104e-05
4.72105e-05
4.72106e-05
4.72107e-05
4.72108e-05
4.72109e-05
4.72109e-05
4.72109e-05
4.72109e-05
4.72107e-05
4.72103e-05
4.72098e-05
4.72094e-05
4.72091e-05
4.7209e-05
4.72089e-05
4.7209e-05
4.7209e-05
4.7209e-05
4.7209e-05
4.7209e-05
4.72091e-05
4.72091e-05
4.72091e-05
4.7209e-05
4.72087e-05
4.72084e-05
4.72083e-05
4.72083e-05
4.72083e-05
4.72083e-05
4.72083e-05
4.72083e-05
4.72084e-05
4.72086e-05
4.83047e-05
4.83054e-05
4.83059e-05
4.83061e-05
4.83063e-05
4.83064e-05
4.83065e-05
4.83066e-05
4.83067e-05
4.83068e-05
4.83068e-05
4.83069e-05
4.83069e-05
4.83069e-05
4.83067e-05
4.83064e-05
4.83059e-05
4.83055e-05
4.83051e-05
4.8305e-05
4.83049e-05
4.8305e-05
4.8305e-05
4.8305e-05
4.8305e-05
4.8305e-05
4.8305e-05
4.83051e-05
4.83051e-05
4.8305e-05
4.83047e-05
4.83044e-05
4.83042e-05
4.83042e-05
4.83043e-05
4.83043e-05
4.83043e-05
4.83043e-05
4.83043e-05
4.83044e-05
4.94118e-05
4.94122e-05
4.94126e-05
4.94128e-05
4.9413e-05
4.94131e-05
4.94132e-05
4.94132e-05
4.94133e-05
4.94134e-05
4.94134e-05
4.94135e-05
4.94135e-05
4.94135e-05
4.94134e-05
4.94131e-05
4.94126e-05
4.94122e-05
4.94118e-05
4.94117e-05
4.94116e-05
4.94116e-05
4.94116e-05
4.94116e-05
4.94117e-05
4.94117e-05
4.94117e-05
4.94117e-05
4.94117e-05
4.94117e-05
4.94113e-05
4.9411e-05
4.94109e-05
4.94109e-05
4.94109e-05
4.94109e-05
4.94109e-05
4.94109e-05
4.9411e-05
4.94111e-05
5.04919e-05
5.04923e-05
5.04926e-05
5.04928e-05
5.04929e-05
5.0493e-05
5.04931e-05
5.04932e-05
5.04932e-05
5.04933e-05
5.04934e-05
5.04934e-05
5.04934e-05
5.04934e-05
5.04934e-05
5.04931e-05
5.04926e-05
5.04922e-05
5.04919e-05
5.04917e-05
5.04916e-05
5.04916e-05
5.04916e-05
5.04916e-05
5.04916e-05
5.04916e-05
5.04917e-05
5.04917e-05
5.04917e-05
5.04916e-05
5.04913e-05
5.0491e-05
5.04908e-05
5.04908e-05
5.04908e-05
5.04908e-05
5.04909e-05
5.04909e-05
5.04909e-05
5.04911e-05
5.1516e-05
5.15163e-05
5.15166e-05
5.15168e-05
5.15169e-05
5.1517e-05
5.15171e-05
5.15171e-05
5.15172e-05
5.15173e-05
5.15173e-05
5.15173e-05
5.15174e-05
5.15174e-05
5.15173e-05
5.15171e-05
5.15167e-05
5.15163e-05
5.15159e-05
5.15157e-05
5.15156e-05
5.15156e-05
5.15156e-05
5.15156e-05
5.15156e-05
5.15157e-05
5.15157e-05
5.15157e-05
5.15157e-05
5.15156e-05
5.15153e-05
5.1515e-05
5.15148e-05
5.15148e-05
5.15148e-05
5.15148e-05
5.15149e-05
5.15149e-05
5.15149e-05
5.15151e-05
5.24607e-05
5.2461e-05
5.24613e-05
5.24615e-05
5.24616e-05
5.24617e-05
5.24617e-05
5.24618e-05
5.24619e-05
5.24619e-05
5.2462e-05
5.2462e-05
5.24621e-05
5.24621e-05
5.2462e-05
5.24618e-05
5.24614e-05
5.2461e-05
5.24607e-05
5.24605e-05
5.24604e-05
5.24604e-05
5.24604e-05
5.24604e-05
5.24604e-05
5.24604e-05
5.24605e-05
5.24605e-05
5.24605e-05
5.24604e-05
5.24601e-05
5.24598e-05
5.24596e-05
5.24596e-05
5.24596e-05
5.24596e-05
5.24596e-05
5.24596e-05
5.24597e-05
5.24598e-05
5.33075e-05
5.33079e-05
5.33081e-05
5.33083e-05
5.33084e-05
5.33085e-05
5.33086e-05
5.33086e-05
5.33087e-05
5.33088e-05
5.33088e-05
5.33089e-05
5.33089e-05
5.33089e-05
5.33089e-05
5.33087e-05
5.33084e-05
5.3308e-05
5.33077e-05
5.33075e-05
5.33074e-05
5.33074e-05
5.33074e-05
5.33074e-05
5.33074e-05
5.33074e-05
5.33074e-05
5.33074e-05
5.33074e-05
5.33073e-05
5.3307e-05
5.33067e-05
5.33066e-05
5.33065e-05
5.33065e-05
5.33065e-05
5.33066e-05
5.33066e-05
5.33066e-05
5.33067e-05
5.40417e-05
5.40421e-05
5.40423e-05
5.40425e-05
5.40426e-05
5.40427e-05
5.40428e-05
5.40428e-05
5.40429e-05
5.4043e-05
5.4043e-05
5.40431e-05
5.40431e-05
5.40431e-05
5.40431e-05
5.40429e-05
5.40426e-05
5.40423e-05
5.4042e-05
5.40418e-05
5.40417e-05
5.40416e-05
5.40417e-05
5.40417e-05
5.40417e-05
5.40417e-05
5.40417e-05
5.40417e-05
5.40417e-05
5.40416e-05
5.40413e-05
5.40411e-05
5.40409e-05
5.40408e-05
5.40408e-05
5.40409e-05
5.40409e-05
5.40409e-05
5.40409e-05
5.4041e-05
5.46512e-05
5.46515e-05
5.46517e-05
5.46519e-05
5.4652e-05
5.46521e-05
5.46522e-05
5.46523e-05
5.46524e-05
5.46524e-05
5.46525e-05
5.46526e-05
5.46526e-05
5.46526e-05
5.46526e-05
5.46524e-05
5.46521e-05
5.46518e-05
5.46516e-05
5.46514e-05
5.46513e-05
5.46512e-05
5.46512e-05
5.46513e-05
5.46512e-05
5.46512e-05
5.46513e-05
5.46513e-05
5.46513e-05
5.46511e-05
5.46509e-05
5.46506e-05
5.46505e-05
5.46504e-05
5.46504e-05
5.46504e-05
5.46505e-05
5.46504e-05
5.46505e-05
5.46506e-05
5.51256e-05
5.51258e-05
5.5126e-05
5.51261e-05
5.51263e-05
5.51264e-05
5.51265e-05
5.51265e-05
5.51266e-05
5.51267e-05
5.51268e-05
5.51268e-05
5.51269e-05
5.51269e-05
5.51268e-05
5.51267e-05
5.51264e-05
5.51262e-05
5.51259e-05
5.51257e-05
5.51256e-05
5.51256e-05
5.51256e-05
5.51256e-05
5.51256e-05
5.51256e-05
5.51256e-05
5.51256e-05
5.51256e-05
5.51254e-05
5.51252e-05
5.5125e-05
5.51248e-05
5.51248e-05
5.51248e-05
5.51248e-05
5.51248e-05
5.51248e-05
5.51248e-05
5.5125e-05
5.54544e-05
5.54546e-05
5.54548e-05
5.5455e-05
5.54551e-05
5.54552e-05
5.54553e-05
5.54554e-05
5.54555e-05
5.54556e-05
5.54556e-05
5.54557e-05
5.54557e-05
5.54557e-05
5.54557e-05
5.54555e-05
5.54553e-05
5.54551e-05
5.54548e-05
5.54547e-05
5.54545e-05
5.54545e-05
5.54545e-05
5.54545e-05
5.54545e-05
5.54545e-05
5.54545e-05
5.54545e-05
5.54545e-05
5.54543e-05
5.54541e-05
5.54539e-05
5.54538e-05
5.54537e-05
5.54537e-05
5.54537e-05
5.54537e-05
5.54537e-05
5.54538e-05
5.54539e-05
5.56262e-05
5.56265e-05
5.56267e-05
5.56268e-05
5.5627e-05
5.56271e-05
5.56272e-05
5.56273e-05
5.56273e-05
5.56274e-05
5.56275e-05
5.56276e-05
5.56276e-05
5.56276e-05
5.56275e-05
5.56274e-05
5.56272e-05
5.56269e-05
5.56267e-05
5.56266e-05
5.56264e-05
5.56264e-05
5.56264e-05
5.56264e-05
5.56264e-05
5.56264e-05
5.56264e-05
5.56264e-05
5.56264e-05
5.56262e-05
5.5626e-05
5.56258e-05
5.56257e-05
5.56256e-05
5.56256e-05
5.56256e-05
5.56256e-05
5.56257e-05
5.56257e-05
5.56258e-05
5.56263e-05
5.56266e-05
5.56268e-05
5.56269e-05
5.5627e-05
5.56271e-05
5.56272e-05
5.56273e-05
5.56274e-05
5.56275e-05
5.56276e-05
5.56276e-05
5.56276e-05
5.56276e-05
5.56276e-05
5.56274e-05
5.56272e-05
5.5627e-05
5.56268e-05
5.56266e-05
5.56265e-05
5.56264e-05
5.56265e-05
5.56265e-05
5.56265e-05
5.56265e-05
5.56265e-05
5.56265e-05
5.56264e-05
5.56263e-05
5.56261e-05
5.56259e-05
5.56258e-05
5.56257e-05
5.56257e-05
5.56257e-05
5.56257e-05
5.56257e-05
5.56257e-05
5.56258e-05
5.54546e-05
5.54549e-05
5.54551e-05
5.54552e-05
5.54553e-05
5.54554e-05
5.54555e-05
5.54556e-05
5.54557e-05
5.54557e-05
5.54558e-05
5.54558e-05
5.54559e-05
5.54559e-05
5.54558e-05
5.54557e-05
5.54554e-05
5.54552e-05
5.5455e-05
5.54548e-05
5.54547e-05
5.54547e-05
5.54547e-05
5.54547e-05
5.54547e-05
5.54547e-05
5.54547e-05
5.54547e-05
5.54547e-05
5.54545e-05
5.54543e-05
5.54541e-05
5.5454e-05
5.54539e-05
5.54539e-05
5.54539e-05
5.54539e-05
5.54539e-05
5.5454e-05
5.54541e-05
5.51258e-05
5.51261e-05
5.51263e-05
5.51264e-05
5.51265e-05
5.51266e-05
5.51267e-05
5.51268e-05
5.51269e-05
5.51269e-05
5.5127e-05
5.5127e-05
5.51271e-05
5.51271e-05
5.5127e-05
5.51269e-05
5.51266e-05
5.51263e-05
5.51261e-05
5.51259e-05
5.51259e-05
5.51258e-05
5.51259e-05
5.51259e-05
5.51259e-05
5.51259e-05
5.51259e-05
5.51259e-05
5.51258e-05
5.51257e-05
5.51254e-05
5.51252e-05
5.51251e-05
5.51251e-05
5.51251e-05
5.51251e-05
5.51251e-05
5.51251e-05
5.51251e-05
5.51252e-05
5.46516e-05
5.46518e-05
5.46521e-05
5.46522e-05
5.46523e-05
5.46524e-05
5.46525e-05
5.46525e-05
5.46526e-05
5.46527e-05
5.46527e-05
5.46528e-05
5.46528e-05
5.46528e-05
5.46527e-05
5.46526e-05
5.46523e-05
5.4652e-05
5.46518e-05
5.46516e-05
5.46516e-05
5.46516e-05
5.46516e-05
5.46516e-05
5.46516e-05
5.46516e-05
5.46516e-05
5.46516e-05
5.46515e-05
5.46514e-05
5.46511e-05
5.46509e-05
5.46507e-05
5.46507e-05
5.46507e-05
5.46507e-05
5.46507e-05
5.46508e-05
5.46508e-05
5.46509e-05
5.4042e-05
5.40423e-05
5.40426e-05
5.40428e-05
5.40429e-05
5.40429e-05
5.4043e-05
5.4043e-05
5.40431e-05
5.40432e-05
5.40432e-05
5.40432e-05
5.40433e-05
5.40433e-05
5.40432e-05
5.4043e-05
5.40427e-05
5.40424e-05
5.40422e-05
5.4042e-05
5.4042e-05
5.4042e-05
5.40421e-05
5.40421e-05
5.40421e-05
5.40421e-05
5.40421e-05
5.40421e-05
5.4042e-05
5.40418e-05
5.40415e-05
5.40413e-05
5.40411e-05
5.40411e-05
5.40411e-05
5.40411e-05
5.40412e-05
5.40412e-05
5.40412e-05
5.40413e-05
5.33076e-05
5.3308e-05
5.33083e-05
5.33085e-05
5.33086e-05
5.33086e-05
5.33087e-05
5.33087e-05
5.33088e-05
5.33089e-05
5.33089e-05
5.33089e-05
5.33089e-05
5.33089e-05
5.33089e-05
5.33087e-05
5.33084e-05
5.33081e-05
5.33078e-05
5.33077e-05
5.33077e-05
5.33077e-05
5.33078e-05
5.33077e-05
5.33078e-05
5.33078e-05
5.33078e-05
5.33078e-05
5.33077e-05
5.33074e-05
5.33071e-05
5.33069e-05
5.33067e-05
5.33067e-05
5.33068e-05
5.33068e-05
5.33068e-05
5.33068e-05
5.33068e-05
5.33069e-05
5.24605e-05
5.2461e-05
5.24613e-05
5.24615e-05
5.24615e-05
5.24616e-05
5.24617e-05
5.24617e-05
5.24618e-05
5.24618e-05
5.24619e-05
5.24619e-05
5.24619e-05
5.24619e-05
5.24619e-05
5.24617e-05
5.24613e-05
5.2461e-05
5.24607e-05
5.24607e-05
5.24607e-05
5.24607e-05
5.24607e-05
5.24607e-05
5.24607e-05
5.24608e-05
5.24608e-05
5.24608e-05
5.24607e-05
5.24604e-05
5.246e-05
5.24598e-05
5.24596e-05
5.24597e-05
5.24597e-05
5.24597e-05
5.24597e-05
5.24597e-05
5.24597e-05
5.24598e-05
5.15156e-05
5.15161e-05
5.15163e-05
5.15165e-05
5.15166e-05
5.15167e-05
5.15167e-05
5.15168e-05
5.15169e-05
5.15169e-05
5.1517e-05
5.1517e-05
5.1517e-05
5.1517e-05
5.1517e-05
5.15168e-05
5.15164e-05
5.15161e-05
5.15158e-05
5.15158e-05
5.15158e-05
5.15158e-05
5.15158e-05
5.15158e-05
5.15159e-05
5.15159e-05
5.15159e-05
5.15159e-05
5.15158e-05
5.15154e-05
5.15151e-05
5.15148e-05
5.15147e-05
5.15147e-05
5.15147e-05
5.15147e-05
5.15147e-05
5.15147e-05
5.15148e-05
5.15149e-05
5.04913e-05
5.04917e-05
5.0492e-05
5.04922e-05
5.04923e-05
5.04924e-05
5.04925e-05
5.04926e-05
5.04926e-05
5.04927e-05
5.04927e-05
5.04928e-05
5.04928e-05
5.04928e-05
5.04927e-05
5.04925e-05
5.04922e-05
5.04918e-05
5.04916e-05
5.04916e-05
5.04916e-05
5.04917e-05
5.04917e-05
5.04917e-05
5.04917e-05
5.04917e-05
5.04918e-05
5.04917e-05
5.04916e-05
5.04912e-05
5.04908e-05
5.04906e-05
5.04905e-05
5.04905e-05
5.04905e-05
5.04905e-05
5.04905e-05
5.04905e-05
5.04906e-05
5.04907e-05
4.94108e-05
4.94112e-05
4.94117e-05
4.94119e-05
4.94121e-05
4.94122e-05
4.94122e-05
4.94123e-05
4.94124e-05
4.94125e-05
4.94125e-05
4.94126e-05
4.94126e-05
4.94126e-05
4.94125e-05
4.94123e-05
4.94119e-05
4.94116e-05
4.94115e-05
4.94114e-05
4.94115e-05
4.94115e-05
4.94115e-05
4.94115e-05
4.94115e-05
4.94116e-05
4.94116e-05
4.94116e-05
4.94114e-05
4.9411e-05
4.94106e-05
4.94103e-05
4.94102e-05
4.94102e-05
4.94103e-05
4.94103e-05
4.94103e-05
4.94103e-05
4.94103e-05
4.94105e-05
4.83037e-05
4.83043e-05
4.83047e-05
4.8305e-05
4.83051e-05
4.83052e-05
4.83053e-05
4.83054e-05
4.83055e-05
4.83056e-05
4.83056e-05
4.83057e-05
4.83057e-05
4.83057e-05
4.83056e-05
4.83054e-05
4.8305e-05
4.83047e-05
4.83046e-05
4.83046e-05
4.83046e-05
4.83046e-05
4.83046e-05
4.83046e-05
4.83047e-05
4.83047e-05
4.83047e-05
4.83047e-05
4.83045e-05
4.83041e-05
4.83037e-05
4.83034e-05
4.83033e-05
4.83033e-05
4.83033e-05
4.83033e-05
4.83034e-05
4.83034e-05
4.83034e-05
4.83038e-05
4.72075e-05
4.72081e-05
4.72085e-05
4.72087e-05
4.72088e-05
4.72089e-05
4.7209e-05
4.72091e-05
4.72092e-05
4.72093e-05
4.72094e-05
4.72094e-05
4.72094e-05
4.72094e-05
4.72094e-05
4.7209e-05
4.72087e-05
4.72084e-05
4.72083e-05
4.72083e-05
4.72084e-05
4.72084e-05
4.72084e-05
4.72084e-05
4.72084e-05
4.72084e-05
4.72084e-05
4.72084e-05
4.72082e-05
4.72078e-05
4.72074e-05
4.72072e-05
4.72071e-05
4.72071e-05
4.72071e-05
4.72071e-05
4.72071e-05
4.72071e-05
4.72072e-05
4.72078e-05
4.61715e-05
4.6172e-05
4.61724e-05
4.61726e-05
4.61727e-05
4.61728e-05
4.61728e-05
4.6173e-05
4.61731e-05
4.61732e-05
4.61733e-05
4.61733e-05
4.61733e-05
4.61733e-05
4.61732e-05
4.61729e-05
4.61725e-05
4.61723e-05
4.61722e-05
4.61723e-05
4.61723e-05
4.61723e-05
4.61723e-05
4.61723e-05
4.61723e-05
4.61723e-05
4.61723e-05
4.61723e-05
4.61721e-05
4.61717e-05
4.61713e-05
4.61711e-05
4.6171e-05
4.6171e-05
4.6171e-05
4.6171e-05
4.6171e-05
4.6171e-05
4.61711e-05
4.61717e-05
4.52658e-05
4.52663e-05
4.52666e-05
4.52667e-05
4.52668e-05
4.52669e-05
4.5267e-05
4.52671e-05
4.52673e-05
4.52674e-05
4.52675e-05
4.52675e-05
4.52676e-05
4.52675e-05
4.52673e-05
4.5267e-05
4.52667e-05
4.52665e-05
4.52665e-05
4.52665e-05
4.52665e-05
4.52665e-05
4.52665e-05
4.52665e-05
4.52665e-05
4.52665e-05
4.52666e-05
4.52665e-05
4.52663e-05
4.52659e-05
4.52656e-05
4.52654e-05
4.52653e-05
4.52653e-05
4.52653e-05
4.52653e-05
4.52653e-05
4.52653e-05
4.52653e-05
4.52659e-05
4.46004e-05
4.46005e-05
4.46007e-05
4.46008e-05
4.46009e-05
4.46011e-05
4.46012e-05
4.46013e-05
4.46015e-05
4.46016e-05
4.46018e-05
4.46018e-05
4.46018e-05
4.46018e-05
4.46015e-05
4.46012e-05
4.46009e-05
4.46008e-05
4.46007e-05
4.46007e-05
4.46007e-05
4.46007e-05
4.46008e-05
4.46008e-05
4.46008e-05
4.46008e-05
4.46008e-05
4.46007e-05
4.46005e-05
4.46001e-05
4.45999e-05
4.45997e-05
4.45996e-05
4.45995e-05
4.45995e-05
4.45995e-05
4.45995e-05
4.45996e-05
4.45996e-05
4.46002e-05
4.43676e-05
4.43676e-05
4.43677e-05
4.43679e-05
4.43681e-05
4.43682e-05
4.43684e-05
4.43686e-05
4.43688e-05
4.4369e-05
4.43691e-05
4.43691e-05
4.43691e-05
4.4369e-05
4.43687e-05
4.43684e-05
4.43682e-05
4.4368e-05
4.4368e-05
4.4368e-05
4.4368e-05
4.4368e-05
4.4368e-05
4.43681e-05
4.43681e-05
4.43681e-05
4.43681e-05
4.4368e-05
4.43677e-05
4.43674e-05
4.43671e-05
4.4367e-05
4.43669e-05
4.43669e-05
4.43669e-05
4.43669e-05
4.43669e-05
4.43669e-05
4.43669e-05
4.43674e-05
4.49546e-05
4.49546e-05
4.49547e-05
4.49549e-05
4.49551e-05
4.49552e-05
4.49555e-05
4.49557e-05
4.4956e-05
4.49562e-05
4.49564e-05
4.49564e-05
4.49564e-05
4.49562e-05
4.49559e-05
4.49556e-05
4.49553e-05
4.49552e-05
4.49552e-05
4.49552e-05
4.49552e-05
4.49552e-05
4.49553e-05
4.49553e-05
4.49553e-05
4.49553e-05
4.49553e-05
4.49551e-05
4.49548e-05
4.49546e-05
4.49543e-05
4.49542e-05
4.49541e-05
4.49541e-05
4.49541e-05
4.49541e-05
4.49541e-05
4.49541e-05
4.49541e-05
4.49545e-05
4.72613e-05
4.72612e-05
4.72613e-05
4.72614e-05
4.72616e-05
4.72618e-05
4.72621e-05
4.72625e-05
4.72629e-05
4.72632e-05
4.72633e-05
4.72633e-05
4.72633e-05
4.7263e-05
4.72626e-05
4.72623e-05
4.72621e-05
4.7262e-05
4.72619e-05
4.72619e-05
4.7262e-05
4.7262e-05
4.7262e-05
4.72621e-05
4.72621e-05
4.72621e-05
4.7262e-05
4.72618e-05
4.72615e-05
4.72612e-05
4.7261e-05
4.72609e-05
4.72608e-05
4.72608e-05
4.72608e-05
4.72608e-05
4.72608e-05
4.72608e-05
4.72608e-05
4.72611e-05
5.38458e-05
5.38457e-05
5.38458e-05
5.38459e-05
5.38461e-05
5.38464e-05
5.38469e-05
5.38474e-05
5.3848e-05
5.38484e-05
5.38485e-05
5.38485e-05
5.38484e-05
5.38479e-05
5.38474e-05
5.3847e-05
5.38468e-05
5.38466e-05
5.38466e-05
5.38466e-05
5.38467e-05
5.38467e-05
5.38468e-05
5.38468e-05
5.38468e-05
5.38468e-05
5.38467e-05
5.38464e-05
5.38461e-05
5.38458e-05
5.38456e-05
5.38455e-05
5.38454e-05
5.38454e-05
5.38454e-05
5.38454e-05
5.38454e-05
5.38454e-05
5.38454e-05
5.38458e-05
7.47941e-05
7.47941e-05
7.47942e-05
7.47945e-05
7.4795e-05
7.47957e-05
7.47965e-05
7.47974e-05
7.47983e-05
7.47988e-05
7.4799e-05
7.47989e-05
7.47985e-05
7.47976e-05
7.47967e-05
7.4796e-05
7.47956e-05
7.47955e-05
7.47954e-05
7.47954e-05
7.47955e-05
7.47956e-05
7.47956e-05
7.47957e-05
7.47957e-05
7.47956e-05
7.47955e-05
7.4795e-05
7.47945e-05
7.47942e-05
7.4794e-05
7.47939e-05
7.47938e-05
7.47938e-05
7.47939e-05
7.47939e-05
7.47939e-05
7.47939e-05
7.47939e-05
7.47941e-05
)
;

boundaryField
{
    bottomWall
    {
        type            epsilonWallFunction;
        value           nonuniform List<scalar> 
40
(
7.47993e-05
7.47995e-05
7.47999e-05
7.48005e-05
7.48012e-05
7.48021e-05
7.48029e-05
7.48036e-05
7.48042e-05
7.48046e-05
7.48047e-05
7.48046e-05
7.48042e-05
7.48029e-05
7.48013e-05
7.48e-05
7.47993e-05
7.47989e-05
7.47989e-05
7.47989e-05
7.47989e-05
7.47989e-05
7.47989e-05
7.4799e-05
7.4799e-05
7.4799e-05
7.4799e-05
7.47989e-05
7.47989e-05
7.4799e-05
7.4799e-05
7.4799e-05
7.4799e-05
7.47991e-05
7.47991e-05
7.47991e-05
7.47992e-05
7.47992e-05
7.47992e-05
7.47992e-05
)
;
    }
    topWall
    {
        type            epsilonWallFunction;
        value           nonuniform List<scalar> 
40
(
7.47941e-05
7.47941e-05
7.47942e-05
7.47945e-05
7.4795e-05
7.47957e-05
7.47965e-05
7.47974e-05
7.47983e-05
7.47988e-05
7.4799e-05
7.47989e-05
7.47985e-05
7.47976e-05
7.47967e-05
7.4796e-05
7.47956e-05
7.47955e-05
7.47954e-05
7.47954e-05
7.47955e-05
7.47956e-05
7.47956e-05
7.47957e-05
7.47957e-05
7.47956e-05
7.47955e-05
7.4795e-05
7.47945e-05
7.47942e-05
7.4794e-05
7.47939e-05
7.47938e-05
7.47938e-05
7.47939e-05
7.47939e-05
7.47939e-05
7.47939e-05
7.47939e-05
7.47941e-05
)
;
    }
    sides1_half0
    {
        type            empty;
    }
    sides1_half1
    {
        type            empty;
    }
    sides2_half0
    {
        type            empty;
    }
    sides2_half1
    {
        type            empty;
    }
    inout1_half0
    {
        type            cyclic;
    }
    inout1_half1
    {
        type            cyclic;
    }
    inout2_half0
    {
        type            cyclic;
    }
    inout2_half1
    {
        type            cyclic;
    }
}


// ************************************************************************* //
