/*--------------------------------*- C++ -*----------------------------------*\
  =========                 |
  \\      /  F ield         | OpenFOAM: The Open Source CFD Toolbox
   \\    /   O peration     | Website:  https://openfoam.org
    \\  /    A nd           | Version:  dev
     \\/     M anipulation  |

   OpenFOAM for Windows 20.09 (v1)
   Built by CFD Support, www.cfdsupport.com (based on Symscape).
\*---------------------------------------------------------------------------*/
FoamFile
{
    version     2.0;
    format      ascii;
    class       volScalarField;
    location    "30";
    object      k;
}
// * * * * * * * * * * * * * * * * * * * * * * * * * * * * * * * * * * * * * //

dimensions      [0 2 -2 0 0 0 0];

internalField   nonuniform List<scalar> 
1600
(
0.000555535
0.000555537
0.00055554
0.000555544
0.000555549
0.000555555
0.000555561
0.000555567
0.000555571
0.000555574
0.000555576
0.000555575
0.000555574
0.000555566
0.000555554
0.000555543
0.000555536
0.000555533
0.000555532
0.000555532
0.000555532
0.000555532
0.000555532
0.000555533
0.000555533
0.000555533
0.000555533
0.000555532
0.000555533
0.000555533
0.000555533
0.000555533
0.000555533
0.000555533
0.000555534
0.000555534
0.000555534
0.000555534
0.000555535
0.000555535
0.00068255
0.000682553
0.000682559
0.000682565
0.00068257
0.000682576
0.000682581
0.000682586
0.00068259
0.000682592
0.000682593
0.000682593
0.000682592
0.000682583
0.000682569
0.000682557
0.000682548
0.000682544
0.000682543
0.000682544
0.000682544
0.000682544
0.000682544
0.000682544
0.000682545
0.000682545
0.000682545
0.000682545
0.000682545
0.000682546
0.000682546
0.000682546
0.000682547
0.000682547
0.000682547
0.000682548
0.000682548
0.000682548
0.000682549
0.000682549
0.000782896
0.000782903
0.000782911
0.000782918
0.000782924
0.000782929
0.000782933
0.000782937
0.00078294
0.000782942
0.000782944
0.000782944
0.000782942
0.000782934
0.000782917
0.000782902
0.000782892
0.000782887
0.000782886
0.000782887
0.000782887
0.000782887
0.000782887
0.000782888
0.000782888
0.000782888
0.000782888
0.000782889
0.000782889
0.000782889
0.00078289
0.00078289
0.000782891
0.000782891
0.000782891
0.000782892
0.000782892
0.000782893
0.000782893
0.000782893
0.000871366
0.000871378
0.000871389
0.000871396
0.000871401
0.000871404
0.000871408
0.000871411
0.000871414
0.000871416
0.000871417
0.000871417
0.000871416
0.000871407
0.000871388
0.000871371
0.000871359
0.000871353
0.000871353
0.000871353
0.000871353
0.000871354
0.000871354
0.000871354
0.000871355
0.000871355
0.000871355
0.000871355
0.000871356
0.000871356
0.000871357
0.000871357
0.000871358
0.000871358
0.000871359
0.000871359
0.000871359
0.00087136
0.00087136
0.000871361
0.000952251
0.000952267
0.000952279
0.000952286
0.00095229
0.000952292
0.000952295
0.000952297
0.000952299
0.000952301
0.000952302
0.000952303
0.000952302
0.000952292
0.000952271
0.000952251
0.000952238
0.000952232
0.000952232
0.000952232
0.000952232
0.000952233
0.000952233
0.000952234
0.000952234
0.000952234
0.000952234
0.000952235
0.000952235
0.000952235
0.000952236
0.000952237
0.000952238
0.000952238
0.000952238
0.000952238
0.000952239
0.00095224
0.00095224
0.000952242
0.00102719
0.00102721
0.00102722
0.00102723
0.00102723
0.00102723
0.00102724
0.00102724
0.00102724
0.00102724
0.00102724
0.00102724
0.00102724
0.00102723
0.00102721
0.00102718
0.00102717
0.00102716
0.00102716
0.00102716
0.00102716
0.00102716
0.00102717
0.00102717
0.00102717
0.00102717
0.00102717
0.00102717
0.00102717
0.00102717
0.00102717
0.00102717
0.00102717
0.00102717
0.00102717
0.00102717
0.00102717
0.00102717
0.00102717
0.00102718
0.00109691
0.00109693
0.00109695
0.00109695
0.00109695
0.00109695
0.00109695
0.00109696
0.00109696
0.00109696
0.00109696
0.00109696
0.00109696
0.00109695
0.00109692
0.0010969
0.00109688
0.00109687
0.00109687
0.00109688
0.00109688
0.00109688
0.00109688
0.00109688
0.00109688
0.00109688
0.00109688
0.00109688
0.00109688
0.00109688
0.00109688
0.00109688
0.00109688
0.00109688
0.00109688
0.00109688
0.00109688
0.00109689
0.00109689
0.00109689
0.00116176
0.00116178
0.00116179
0.0011618
0.0011618
0.0011618
0.0011618
0.0011618
0.0011618
0.0011618
0.00116181
0.00116181
0.0011618
0.00116179
0.00116176
0.00116174
0.00116172
0.00116171
0.00116171
0.00116171
0.00116171
0.00116171
0.00116172
0.00116172
0.00116172
0.00116172
0.00116172
0.00116172
0.00116172
0.00116172
0.00116172
0.00116172
0.00116172
0.00116172
0.00116172
0.00116172
0.00116172
0.00116173
0.00116173
0.00116173
0.0012219
0.00122192
0.00122194
0.00122194
0.00122194
0.00122194
0.00122194
0.00122194
0.00122194
0.00122194
0.00122195
0.00122195
0.00122194
0.00122193
0.0012219
0.00122187
0.00122186
0.00122185
0.00122185
0.00122185
0.00122185
0.00122185
0.00122185
0.00122185
0.00122185
0.00122185
0.00122185
0.00122185
0.00122185
0.00122186
0.00122186
0.00122186
0.00122186
0.00122186
0.00122186
0.00122186
0.00122186
0.00122186
0.00122186
0.00122187
0.00127741
0.00127743
0.00127744
0.00127745
0.00127745
0.00127745
0.00127745
0.00127745
0.00127745
0.00127745
0.00127745
0.00127745
0.00127745
0.00127743
0.0012774
0.00127738
0.00127736
0.00127735
0.00127735
0.00127735
0.00127735
0.00127736
0.00127735
0.00127736
0.00127735
0.00127736
0.00127736
0.00127736
0.00127736
0.00127736
0.00127736
0.00127736
0.00127736
0.00127736
0.00127736
0.00127736
0.00127737
0.00127737
0.00127737
0.00127738
0.0013283
0.00132832
0.00132833
0.00132834
0.00132834
0.00132834
0.00132834
0.00132834
0.00132834
0.00132834
0.00132834
0.00132834
0.00132834
0.00132832
0.00132829
0.00132827
0.00132825
0.00132824
0.00132824
0.00132824
0.00132824
0.00132824
0.00132824
0.00132824
0.00132824
0.00132824
0.00132824
0.00132824
0.00132825
0.00132825
0.00132825
0.00132825
0.00132825
0.00132825
0.00132825
0.00132825
0.00132825
0.00132825
0.00132826
0.00132827
0.00137456
0.00137458
0.00137459
0.00137459
0.00137459
0.00137459
0.00137459
0.00137459
0.00137459
0.00137459
0.00137459
0.00137459
0.00137459
0.00137457
0.00137454
0.00137452
0.0013745
0.00137449
0.00137449
0.00137449
0.0013745
0.00137449
0.0013745
0.0013745
0.0013745
0.0013745
0.0013745
0.0013745
0.0013745
0.0013745
0.0013745
0.0013745
0.0013745
0.0013745
0.0013745
0.0013745
0.00137451
0.00137451
0.00137451
0.00137452
0.00141614
0.00141616
0.00141616
0.00141617
0.00141617
0.00141617
0.00141617
0.00141617
0.00141617
0.00141617
0.00141617
0.00141617
0.00141616
0.00141615
0.00141612
0.0014161
0.00141608
0.00141607
0.00141607
0.00141607
0.00141607
0.00141607
0.00141608
0.00141607
0.00141607
0.00141608
0.00141608
0.00141608
0.00141608
0.00141608
0.00141608
0.00141608
0.00141608
0.00141608
0.00141608
0.00141608
0.00141609
0.00141609
0.00141609
0.0014161
0.00145299
0.00145301
0.00145301
0.00145302
0.00145302
0.00145302
0.00145302
0.00145302
0.00145302
0.00145302
0.00145302
0.00145302
0.00145301
0.001453
0.00145298
0.00145295
0.00145294
0.00145293
0.00145293
0.00145293
0.00145293
0.00145293
0.00145293
0.00145293
0.00145293
0.00145293
0.00145293
0.00145293
0.00145293
0.00145293
0.00145293
0.00145293
0.00145293
0.00145294
0.00145294
0.00145294
0.00145294
0.00145294
0.00145294
0.00145295
0.00148505
0.00148507
0.00148507
0.00148508
0.00148508
0.00148508
0.00148508
0.00148508
0.00148508
0.00148508
0.00148508
0.00148508
0.00148508
0.00148506
0.00148504
0.00148502
0.001485
0.00148499
0.00148499
0.00148499
0.00148499
0.00148499
0.00148499
0.00148499
0.00148499
0.001485
0.001485
0.001485
0.001485
0.001485
0.001485
0.001485
0.001485
0.001485
0.001485
0.001485
0.001485
0.001485
0.00148501
0.00148502
0.00151225
0.00151226
0.00151227
0.00151227
0.00151227
0.00151227
0.00151227
0.00151227
0.00151227
0.00151227
0.00151227
0.00151227
0.00151227
0.00151226
0.00151224
0.00151222
0.00151221
0.0015122
0.00151219
0.00151219
0.00151219
0.00151219
0.00151219
0.00151219
0.00151219
0.0015122
0.0015122
0.0015122
0.0015122
0.0015122
0.0015122
0.0015122
0.0015122
0.0015122
0.0015122
0.0015122
0.0015122
0.0015122
0.00151221
0.00151221
0.00153448
0.00153449
0.00153449
0.00153449
0.00153449
0.00153449
0.00153449
0.0015345
0.0015345
0.0015345
0.0015345
0.0015345
0.0015345
0.00153449
0.00153447
0.00153445
0.00153444
0.00153443
0.00153443
0.00153443
0.00153443
0.00153443
0.00153443
0.00153443
0.00153443
0.00153443
0.00153443
0.00153443
0.00153443
0.00153443
0.00153443
0.00153443
0.00153443
0.00153443
0.00153443
0.00153443
0.00153443
0.00153443
0.00153444
0.00153444
0.00155159
0.0015516
0.00155161
0.00155161
0.00155161
0.00155161
0.00155161
0.00155161
0.00155161
0.00155161
0.00155161
0.00155162
0.00155162
0.00155161
0.00155159
0.00155158
0.00155156
0.00155155
0.00155155
0.00155155
0.00155155
0.00155155
0.00155155
0.00155155
0.00155155
0.00155155
0.00155155
0.00155155
0.00155155
0.00155155
0.00155155
0.00155155
0.00155155
0.00155155
0.00155155
0.00155155
0.00155155
0.00155155
0.00155155
0.00155156
0.00156338
0.00156339
0.00156339
0.0015634
0.0015634
0.0015634
0.0015634
0.0015634
0.0015634
0.0015634
0.00156341
0.00156341
0.00156341
0.0015634
0.00156338
0.00156337
0.00156335
0.00156335
0.00156334
0.00156334
0.00156334
0.00156334
0.00156334
0.00156334
0.00156334
0.00156334
0.00156334
0.00156334
0.00156334
0.00156334
0.00156334
0.00156334
0.00156334
0.00156334
0.00156334
0.00156334
0.00156334
0.00156335
0.00156335
0.00156335
0.00156952
0.00156953
0.00156953
0.00156954
0.00156954
0.00156954
0.00156954
0.00156954
0.00156954
0.00156954
0.00156954
0.00156955
0.00156955
0.00156954
0.00156952
0.00156951
0.0015695
0.00156949
0.00156948
0.00156948
0.00156948
0.00156948
0.00156948
0.00156948
0.00156948
0.00156948
0.00156948
0.00156948
0.00156949
0.00156948
0.00156948
0.00156948
0.00156948
0.00156948
0.00156948
0.00156948
0.00156949
0.00156948
0.00156949
0.00156949
0.00156952
0.00156953
0.00156954
0.00156954
0.00156954
0.00156954
0.00156954
0.00156954
0.00156954
0.00156955
0.00156955
0.00156955
0.00156955
0.00156954
0.00156952
0.00156951
0.0015695
0.00156949
0.00156948
0.00156948
0.00156948
0.00156949
0.00156949
0.00156949
0.00156949
0.00156949
0.00156949
0.00156949
0.00156949
0.00156949
0.00156949
0.00156949
0.00156949
0.00156949
0.00156949
0.00156949
0.00156949
0.00156949
0.00156949
0.0015695
0.00156339
0.0015634
0.0015634
0.0015634
0.00156341
0.00156341
0.00156341
0.00156341
0.00156341
0.00156341
0.00156341
0.00156341
0.00156341
0.0015634
0.00156339
0.00156337
0.00156336
0.00156335
0.00156335
0.00156335
0.00156335
0.00156335
0.00156335
0.00156335
0.00156335
0.00156335
0.00156335
0.00156335
0.00156335
0.00156335
0.00156335
0.00156335
0.00156335
0.00156335
0.00156335
0.00156335
0.00156335
0.00156335
0.00156335
0.00156336
0.0015516
0.00155161
0.00155162
0.00155162
0.00155162
0.00155162
0.00155162
0.00155162
0.00155162
0.00155162
0.00155162
0.00155162
0.00155162
0.00155161
0.00155159
0.00155158
0.00155156
0.00155156
0.00155156
0.00155156
0.00155156
0.00155156
0.00155156
0.00155156
0.00155156
0.00155156
0.00155156
0.00155156
0.00155156
0.00155156
0.00155156
0.00155156
0.00155156
0.00155156
0.00155156
0.00155156
0.00155156
0.00155156
0.00155156
0.00155157
0.00153448
0.0015345
0.0015345
0.0015345
0.0015345
0.0015345
0.0015345
0.0015345
0.0015345
0.0015345
0.00153451
0.00153451
0.0015345
0.00153449
0.00153447
0.00153446
0.00153444
0.00153444
0.00153444
0.00153444
0.00153444
0.00153444
0.00153444
0.00153444
0.00153444
0.00153444
0.00153444
0.00153444
0.00153444
0.00153444
0.00153444
0.00153444
0.00153444
0.00153444
0.00153444
0.00153444
0.00153444
0.00153444
0.00153445
0.00153445
0.00151225
0.00151227
0.00151227
0.00151227
0.00151227
0.00151227
0.00151227
0.00151227
0.00151227
0.00151227
0.00151228
0.00151228
0.00151227
0.00151226
0.00151224
0.00151222
0.00151221
0.0015122
0.0015122
0.0015122
0.0015122
0.00151221
0.0015122
0.0015122
0.0015122
0.00151221
0.00151221
0.00151221
0.00151221
0.00151221
0.00151221
0.00151221
0.00151221
0.00151221
0.00151221
0.00151221
0.00151221
0.00151221
0.00151221
0.00151222
0.00148505
0.00148507
0.00148507
0.00148507
0.00148508
0.00148508
0.00148508
0.00148508
0.00148508
0.00148508
0.00148508
0.00148508
0.00148508
0.00148506
0.00148504
0.00148502
0.001485
0.001485
0.001485
0.001485
0.001485
0.001485
0.001485
0.001485
0.001485
0.001485
0.001485
0.001485
0.00148501
0.00148501
0.00148501
0.00148501
0.00148501
0.00148501
0.00148501
0.00148501
0.00148501
0.00148501
0.00148501
0.00148502
0.00145299
0.001453
0.00145301
0.00145301
0.00145301
0.00145301
0.00145301
0.00145301
0.00145301
0.00145301
0.00145301
0.00145301
0.00145301
0.00145299
0.00145297
0.00145295
0.00145293
0.00145293
0.00145293
0.00145293
0.00145293
0.00145293
0.00145293
0.00145293
0.00145294
0.00145294
0.00145294
0.00145294
0.00145294
0.00145294
0.00145294
0.00145294
0.00145294
0.00145294
0.00145294
0.00145294
0.00145294
0.00145294
0.00145294
0.00145295
0.00141613
0.00141614
0.00141615
0.00141615
0.00141615
0.00141615
0.00141615
0.00141615
0.00141615
0.00141615
0.00141615
0.00141616
0.00141615
0.00141613
0.00141611
0.00141609
0.00141608
0.00141607
0.00141607
0.00141608
0.00141607
0.00141607
0.00141608
0.00141608
0.00141608
0.00141608
0.00141608
0.00141608
0.00141608
0.00141608
0.00141608
0.00141608
0.00141608
0.00141608
0.00141608
0.00141608
0.00141608
0.00141608
0.00141608
0.00141609
0.00137454
0.00137456
0.00137456
0.00137457
0.00137457
0.00137457
0.00137457
0.00137457
0.00137457
0.00137457
0.00137457
0.00137457
0.00137456
0.00137455
0.00137452
0.0013745
0.00137449
0.00137449
0.00137449
0.00137449
0.00137449
0.00137449
0.00137449
0.00137449
0.00137449
0.00137449
0.00137449
0.00137449
0.00137449
0.00137449
0.00137449
0.00137449
0.00137449
0.00137449
0.00137449
0.0013745
0.00137449
0.00137449
0.0013745
0.0013745
0.00132828
0.0013283
0.0013283
0.0013283
0.0013283
0.0013283
0.0013283
0.00132831
0.00132831
0.00132831
0.00132831
0.00132831
0.0013283
0.00132828
0.00132826
0.00132824
0.00132823
0.00132823
0.00132823
0.00132823
0.00132823
0.00132823
0.00132823
0.00132823
0.00132823
0.00132823
0.00132823
0.00132823
0.00132823
0.00132823
0.00132823
0.00132823
0.00132823
0.00132823
0.00132823
0.00132823
0.00132823
0.00132823
0.00132823
0.00132824
0.00127738
0.0012774
0.0012774
0.0012774
0.00127741
0.00127741
0.00127741
0.00127741
0.00127741
0.00127741
0.00127741
0.00127741
0.00127741
0.00127739
0.00127736
0.00127735
0.00127734
0.00127734
0.00127734
0.00127734
0.00127734
0.00127734
0.00127734
0.00127734
0.00127734
0.00127734
0.00127734
0.00127734
0.00127734
0.00127734
0.00127733
0.00127733
0.00127734
0.00127734
0.00127734
0.00127734
0.00127734
0.00127734
0.00127734
0.00127735
0.00122187
0.00122188
0.00122189
0.00122189
0.00122189
0.00122189
0.00122189
0.00122189
0.00122189
0.00122189
0.00122189
0.00122189
0.00122189
0.00122188
0.00122185
0.00122184
0.00122183
0.00122183
0.00122183
0.00122183
0.00122183
0.00122183
0.00122183
0.00122183
0.00122183
0.00122183
0.00122183
0.00122183
0.00122183
0.00122182
0.00122182
0.00122182
0.00122182
0.00122182
0.00122182
0.00122182
0.00122182
0.00122183
0.00122183
0.00122183
0.00116172
0.00116173
0.00116174
0.00116174
0.00116174
0.00116174
0.00116174
0.00116174
0.00116174
0.00116175
0.00116175
0.00116175
0.00116175
0.00116173
0.00116171
0.0011617
0.00116169
0.00116169
0.00116169
0.00116169
0.00116169
0.00116169
0.00116169
0.00116169
0.00116169
0.00116169
0.00116169
0.00116169
0.00116169
0.00116168
0.00116168
0.00116168
0.00116168
0.00116168
0.00116168
0.00116168
0.00116168
0.00116168
0.00116168
0.00116169
0.00109686
0.00109688
0.00109688
0.00109689
0.00109689
0.00109689
0.00109689
0.00109689
0.0010969
0.0010969
0.0010969
0.0010969
0.0010969
0.00109689
0.00109687
0.00109685
0.00109684
0.00109684
0.00109684
0.00109684
0.00109684
0.00109684
0.00109684
0.00109684
0.00109684
0.00109684
0.00109685
0.00109685
0.00109684
0.00109684
0.00109684
0.00109684
0.00109684
0.00109684
0.00109684
0.00109684
0.00109684
0.00109684
0.00109684
0.00109684
0.00102714
0.00102715
0.00102716
0.00102716
0.00102717
0.00102717
0.00102717
0.00102717
0.00102718
0.00102718
0.00102718
0.00102718
0.00102718
0.00102717
0.00102715
0.00102714
0.00102713
0.00102713
0.00102713
0.00102713
0.00102713
0.00102713
0.00102713
0.00102713
0.00102713
0.00102713
0.00102713
0.00102713
0.00102713
0.00102712
0.00102712
0.00102712
0.00102712
0.00102712
0.00102712
0.00102712
0.00102712
0.00102712
0.00102712
0.00102712
0.000952199
0.000952208
0.000952215
0.00095222
0.000952224
0.000952228
0.000952232
0.000952235
0.000952239
0.000952242
0.000952245
0.000952245
0.000952243
0.000952232
0.000952218
0.000952206
0.000952199
0.000952197
0.000952197
0.000952197
0.000952197
0.000952197
0.000952197
0.000952197
0.000952198
0.000952198
0.000952198
0.000952198
0.000952195
0.000952189
0.000952187
0.000952186
0.000952187
0.000952186
0.000952187
0.000952187
0.000952187
0.000952187
0.000952187
0.000952189
0.000871315
0.000871322
0.000871327
0.000871333
0.000871338
0.000871342
0.000871347
0.000871352
0.000871356
0.00087136
0.000871362
0.000871363
0.00087136
0.00087135
0.000871338
0.000871328
0.000871322
0.00087132
0.000871319
0.000871319
0.000871319
0.000871319
0.00087132
0.00087132
0.00087132
0.00087132
0.000871321
0.00087132
0.000871316
0.000871311
0.000871309
0.000871308
0.000871308
0.000871309
0.000871308
0.000871309
0.000871309
0.000871309
0.000871309
0.00087131
0.000782847
0.000782851
0.000782856
0.000782861
0.000782865
0.000782871
0.000782876
0.000782882
0.000782887
0.000782891
0.000782893
0.000782894
0.000782891
0.000782882
0.000782872
0.000782863
0.000782858
0.000782856
0.000782855
0.000782855
0.000782855
0.000782855
0.000782856
0.000782856
0.000782856
0.000782857
0.000782856
0.000782855
0.000782851
0.000782847
0.000782845
0.000782844
0.000782844
0.000782844
0.000782845
0.000782845
0.000782845
0.000782845
0.000782845
0.000782845
0.000682506
0.000682508
0.000682511
0.000682514
0.000682519
0.000682524
0.00068253
0.000682536
0.000682542
0.000682546
0.000682548
0.000682548
0.000682546
0.000682538
0.00068253
0.000682523
0.000682518
0.000682516
0.000682516
0.000682516
0.000682516
0.000682516
0.000682516
0.000682517
0.000682517
0.000682517
0.000682517
0.000682515
0.000682511
0.000682508
0.000682506
0.000682505
0.000682505
0.000682505
0.000682505
0.000682505
0.000682505
0.000682505
0.000682505
0.000682506
0.000555496
0.000555496
0.000555497
0.000555499
0.000555503
0.000555507
0.000555513
0.00055552
0.000555526
0.000555531
0.000555533
0.000555533
0.000555531
0.000555525
0.000555517
0.000555512
0.000555508
0.000555507
0.000555506
0.000555506
0.000555506
0.000555507
0.000555507
0.000555508
0.000555508
0.000555508
0.000555507
0.000555504
0.0005555
0.000555497
0.000555496
0.000555495
0.000555495
0.000555494
0.000555494
0.000555495
0.000555495
0.000555495
0.000555495
0.000555497
)
;

boundaryField
{
    bottomWall
    {
        type            kqRWallFunction;
        value           nonuniform List<scalar> 
40
(
0.000555535
0.000555537
0.00055554
0.000555544
0.000555549
0.000555555
0.000555561
0.000555567
0.000555571
0.000555574
0.000555576
0.000555575
0.000555574
0.000555566
0.000555554
0.000555543
0.000555536
0.000555533
0.000555532
0.000555532
0.000555532
0.000555532
0.000555532
0.000555533
0.000555533
0.000555533
0.000555533
0.000555532
0.000555533
0.000555533
0.000555533
0.000555533
0.000555533
0.000555533
0.000555534
0.000555534
0.000555534
0.000555534
0.000555535
0.000555535
)
;
    }
    topWall
    {
        type            kqRWallFunction;
        value           nonuniform List<scalar> 
40
(
0.000555496
0.000555496
0.000555497
0.000555499
0.000555503
0.000555507
0.000555513
0.00055552
0.000555526
0.000555531
0.000555533
0.000555533
0.000555531
0.000555525
0.000555517
0.000555512
0.000555508
0.000555507
0.000555506
0.000555506
0.000555506
0.000555507
0.000555507
0.000555508
0.000555508
0.000555508
0.000555507
0.000555504
0.0005555
0.000555497
0.000555496
0.000555495
0.000555495
0.000555494
0.000555494
0.000555495
0.000555495
0.000555495
0.000555495
0.000555497
)
;
    }
    sides1_half0
    {
        type            empty;
    }
    sides1_half1
    {
        type            empty;
    }
    sides2_half0
    {
        type            empty;
    }
    sides2_half1
    {
        type            empty;
    }
    inout1_half0
    {
        type            cyclic;
    }
    inout1_half1
    {
        type            cyclic;
    }
    inout2_half0
    {
        type            cyclic;
    }
    inout2_half1
    {
        type            cyclic;
    }
}


// ************************************************************************* //
