/*--------------------------------*- C++ -*----------------------------------*\
  =========                 |
  \\      /  F ield         | OpenFOAM: The Open Source CFD Toolbox
   \\    /   O peration     | Website:  https://openfoam.org
    \\  /    A nd           | Version:  dev
     \\/     M anipulation  |

   OpenFOAM for Windows 20.09 (v1)
   Built by CFD Support, www.cfdsupport.com (based on Symscape).
\*---------------------------------------------------------------------------*/
FoamFile
{
    version     2.0;
    format      ascii;
    class       volScalarField;
    location    "30";
    object      nut;
}
// * * * * * * * * * * * * * * * * * * * * * * * * * * * * * * * * * * * * * //

dimensions      [0 2 -1 0 0 0 0];

internalField   nonuniform List<scalar> 
1600
(
0.000371337
0.000371338
0.00037134
0.000371343
0.000371346
0.00037135
0.000371354
0.000371358
0.000371361
0.000371363
0.000371364
0.000371364
0.000371364
0.00037136
0.000371352
0.000371344
0.000371338
0.000371336
0.000371335
0.000371334
0.000371334
0.000371335
0.000371335
0.000371335
0.000371335
0.000371335
0.000371335
0.000371335
0.000371335
0.000371335
0.000371335
0.000371335
0.000371336
0.000371336
0.000371336
0.000371336
0.000371336
0.000371336
0.000371337
0.000371337
0.00077863
0.000778638
0.00077865
0.00077866
0.000778667
0.000778674
0.000778679
0.000778683
0.000778686
0.000778688
0.000778689
0.000778689
0.000778686
0.000778676
0.000778657
0.00077864
0.000778628
0.000778623
0.000778622
0.000778623
0.000778623
0.000778623
0.000778624
0.000778624
0.000778624
0.000778624
0.000778625
0.000778626
0.000778628
0.000778629
0.000778631
0.000778632
0.000778632
0.000778633
0.000778633
0.000778634
0.000778634
0.000778635
0.000778635
0.000778629
0.00116713
0.00116715
0.00116717
0.00116719
0.0011672
0.0011672
0.00116721
0.00116721
0.00116722
0.00116722
0.00116722
0.00116722
0.00116722
0.0011672
0.00116717
0.00116714
0.00116712
0.00116711
0.00116711
0.00116711
0.00116711
0.00116711
0.00116711
0.00116711
0.00116711
0.00116711
0.00116711
0.00116712
0.00116712
0.00116712
0.00116713
0.00116713
0.00116713
0.00116713
0.00116713
0.00116713
0.00116713
0.00116714
0.00116714
0.00116712
0.00152
0.00152004
0.00152007
0.00152009
0.0015201
0.00152011
0.00152011
0.00152012
0.00152012
0.00152012
0.00152012
0.00152012
0.00152012
0.00152009
0.00152005
0.00152
0.00151998
0.00151997
0.00151997
0.00151997
0.00151997
0.00151997
0.00151997
0.00151997
0.00151998
0.00151998
0.00151998
0.00151998
0.00151998
0.00151999
0.00151999
0.00152
0.00152
0.00152
0.00152
0.00152
0.00152001
0.00152001
0.00152001
0.00151999
0.00183931
0.00183937
0.00183941
0.00183943
0.00183944
0.00183944
0.00183945
0.00183945
0.00183945
0.00183945
0.00183945
0.00183945
0.00183945
0.00183942
0.00183935
0.0018393
0.00183926
0.00183925
0.00183926
0.00183926
0.00183926
0.00183927
0.00183927
0.00183927
0.00183927
0.00183927
0.00183927
0.00183927
0.00183927
0.00183928
0.00183929
0.0018393
0.0018393
0.00183931
0.0018393
0.0018393
0.00183931
0.00183931
0.00183931
0.00183929
0.00212904
0.00212911
0.00212916
0.00212918
0.00212918
0.00212919
0.00212919
0.00212919
0.00212919
0.00212919
0.00212919
0.00212919
0.00212918
0.00212914
0.00212906
0.00212899
0.00212895
0.00212895
0.00212895
0.00212896
0.00212896
0.00212896
0.00212896
0.00212897
0.00212896
0.00212896
0.00212897
0.00212897
0.00212897
0.00212898
0.002129
0.00212901
0.00212901
0.00212901
0.00212901
0.00212901
0.00212902
0.00212902
0.00212902
0.002129
0.00239218
0.00239226
0.0023923
0.00239232
0.00239232
0.00239232
0.00239232
0.00239231
0.00239231
0.00239231
0.00239231
0.00239231
0.00239231
0.00239226
0.00239216
0.00239208
0.00239203
0.00239203
0.00239204
0.00239205
0.00239205
0.00239205
0.00239205
0.00239205
0.00239205
0.00239205
0.00239205
0.00239206
0.00239206
0.00239207
0.00239209
0.0023921
0.00239211
0.00239211
0.00239211
0.00239211
0.00239211
0.00239212
0.00239212
0.00239211
0.00263077
0.00263086
0.00263089
0.0026309
0.00263089
0.00263089
0.00263089
0.00263089
0.00263089
0.00263088
0.00263089
0.00263089
0.00263088
0.00263081
0.0026307
0.00263061
0.00263056
0.00263055
0.00263057
0.00263058
0.00263058
0.00263058
0.00263059
0.00263059
0.00263059
0.00263059
0.00263059
0.0026306
0.0026306
0.00263061
0.00263063
0.00263064
0.00263066
0.00263065
0.00263066
0.00263066
0.00263066
0.00263067
0.00263067
0.00263067
0.00284639
0.00284645
0.00284647
0.00284647
0.00284646
0.00284646
0.00284646
0.00284646
0.00284646
0.00284645
0.00284646
0.00284645
0.00284644
0.00284637
0.00284625
0.00284615
0.00284609
0.00284609
0.00284611
0.00284612
0.00284613
0.00284613
0.00284613
0.00284613
0.00284613
0.00284613
0.00284613
0.00284613
0.00284614
0.00284615
0.00284617
0.00284619
0.0028462
0.0028462
0.0028462
0.00284621
0.00284621
0.00284622
0.00284622
0.00284625
0.0030403
0.00304035
0.00304037
0.00304037
0.00304036
0.00304036
0.00304036
0.00304036
0.00304035
0.00304036
0.00304035
0.00304035
0.00304033
0.00304025
0.00304012
0.00304002
0.00303996
0.00303996
0.00303998
0.00303999
0.00304
0.00304
0.00304
0.00304001
0.00304
0.00304001
0.00304
0.00304001
0.00304001
0.00304003
0.00304005
0.00304007
0.00304008
0.00304008
0.00304008
0.00304009
0.00304009
0.0030401
0.00304011
0.00304014
0.00321371
0.00321377
0.0032138
0.0032138
0.0032138
0.0032138
0.00321379
0.00321379
0.00321379
0.00321379
0.00321378
0.00321379
0.00321377
0.00321367
0.00321355
0.00321344
0.00321338
0.00321338
0.0032134
0.00321341
0.00321342
0.00321343
0.00321343
0.00321342
0.00321343
0.00321343
0.00321343
0.00321343
0.00321344
0.00321345
0.00321348
0.0032135
0.00321351
0.00321351
0.00321351
0.00321352
0.00321352
0.00321353
0.00321354
0.00321357
0.0033678
0.00336787
0.0033679
0.0033679
0.00336789
0.00336789
0.00336789
0.00336789
0.00336789
0.00336788
0.00336788
0.00336788
0.00336786
0.00336777
0.00336764
0.00336754
0.00336748
0.00336747
0.00336748
0.00336751
0.00336752
0.00336752
0.00336752
0.00336752
0.00336752
0.00336752
0.00336752
0.00336753
0.00336753
0.00336754
0.00336757
0.00336759
0.0033676
0.00336761
0.00336761
0.00336761
0.00336762
0.00336763
0.00336763
0.00336767
0.00350358
0.00350364
0.00350366
0.00350366
0.00350366
0.00350366
0.00350365
0.00350365
0.00350364
0.00350364
0.00350365
0.00350365
0.00350361
0.00350354
0.00350342
0.00350331
0.00350325
0.00350324
0.00350325
0.00350328
0.00350329
0.00350329
0.00350329
0.00350329
0.00350329
0.00350329
0.0035033
0.0035033
0.0035033
0.00350332
0.00350334
0.00350336
0.00350338
0.00350338
0.00350339
0.00350339
0.0035034
0.0035034
0.00350341
0.00350344
0.00362189
0.00362194
0.00362195
0.00362195
0.00362195
0.00362194
0.00362194
0.00362193
0.00362193
0.00362193
0.00362193
0.00362193
0.00362191
0.00362183
0.00362172
0.00362162
0.00362156
0.00362154
0.00362156
0.00362158
0.00362159
0.00362159
0.00362159
0.00362159
0.00362159
0.00362159
0.0036216
0.0036216
0.00362161
0.00362162
0.00362164
0.00362166
0.00362168
0.00362169
0.00362169
0.0036217
0.0036217
0.00362171
0.00362171
0.00362175
0.00372339
0.00372343
0.00372344
0.00372344
0.00372344
0.00372343
0.00372343
0.00372342
0.00372342
0.00372342
0.00372341
0.00372341
0.0037234
0.00372334
0.00372323
0.00372314
0.00372308
0.00372306
0.00372307
0.00372308
0.0037231
0.0037231
0.0037231
0.0037231
0.0037231
0.0037231
0.00372311
0.00372311
0.00372312
0.00372313
0.00372315
0.00372317
0.00372319
0.0037232
0.0037232
0.00372321
0.00372321
0.00372321
0.00372322
0.00372325
0.00380856
0.00380859
0.0038086
0.0038086
0.00380859
0.00380859
0.00380858
0.00380858
0.00380857
0.00380857
0.00380857
0.00380857
0.00380856
0.00380851
0.00380841
0.00380833
0.00380827
0.00380824
0.00380825
0.00380827
0.00380828
0.00380828
0.00380828
0.00380828
0.00380828
0.00380828
0.00380829
0.00380829
0.00380829
0.00380831
0.00380833
0.00380835
0.00380836
0.00380837
0.00380838
0.00380838
0.00380838
0.00380838
0.00380839
0.00380842
0.0038776
0.00387763
0.00387764
0.00387764
0.00387764
0.00387763
0.00387762
0.00387762
0.00387762
0.00387762
0.00387762
0.00387762
0.00387761
0.00387757
0.00387748
0.00387741
0.00387735
0.00387732
0.00387732
0.00387734
0.00387735
0.00387735
0.00387735
0.00387735
0.00387735
0.00387736
0.00387736
0.00387736
0.00387737
0.00387738
0.0038774
0.00387742
0.00387743
0.00387744
0.00387744
0.00387744
0.00387744
0.00387745
0.00387745
0.00387748
0.00393046
0.0039305
0.00393051
0.00393051
0.00393051
0.00393051
0.0039305
0.0039305
0.0039305
0.0039305
0.0039305
0.0039305
0.00393049
0.00393046
0.00393038
0.00393031
0.00393025
0.00393022
0.00393022
0.00393023
0.00393024
0.00393025
0.00393025
0.00393025
0.00393025
0.00393025
0.00393026
0.00393026
0.00393026
0.00393027
0.00393028
0.0039303
0.00393032
0.00393032
0.00393032
0.00393032
0.00393033
0.00393033
0.00393033
0.00393036
0.00396675
0.00396679
0.0039668
0.0039668
0.0039668
0.0039668
0.0039668
0.0039668
0.0039668
0.0039668
0.0039668
0.0039668
0.00396679
0.00396676
0.00396669
0.00396662
0.00396656
0.00396653
0.00396653
0.00396654
0.00396655
0.00396656
0.00396656
0.00396656
0.00396656
0.00396656
0.00396656
0.00396656
0.00396657
0.00396658
0.00396659
0.0039666
0.00396662
0.00396662
0.00396662
0.00396662
0.00396662
0.00396663
0.00396663
0.00396665
0.00398561
0.00398564
0.00398566
0.00398566
0.00398566
0.00398566
0.00398566
0.00398566
0.00398566
0.00398566
0.00398566
0.00398566
0.00398566
0.00398562
0.00398555
0.00398549
0.00398543
0.0039854
0.0039854
0.00398541
0.00398542
0.00398543
0.00398543
0.00398543
0.00398543
0.00398543
0.00398543
0.00398543
0.00398544
0.00398545
0.00398546
0.00398548
0.00398548
0.00398549
0.00398549
0.00398549
0.00398549
0.00398549
0.00398549
0.00398552
0.00398563
0.00398565
0.00398567
0.00398567
0.00398567
0.00398567
0.00398567
0.00398567
0.00398566
0.00398566
0.00398567
0.00398567
0.00398566
0.00398563
0.00398555
0.00398549
0.00398544
0.00398541
0.00398541
0.00398542
0.00398543
0.00398543
0.00398543
0.00398543
0.00398544
0.00398543
0.00398544
0.00398544
0.00398545
0.00398546
0.00398547
0.00398548
0.00398549
0.00398549
0.00398549
0.0039855
0.0039855
0.0039855
0.0039855
0.00398553
0.00396678
0.00396681
0.00396682
0.00396682
0.00396682
0.00396682
0.00396681
0.00396681
0.00396681
0.00396681
0.00396681
0.00396681
0.00396681
0.00396677
0.00396669
0.00396662
0.00396657
0.00396654
0.00396655
0.00396656
0.00396657
0.00396657
0.00396658
0.00396658
0.00396658
0.00396658
0.00396658
0.00396658
0.00396659
0.0039666
0.00396662
0.00396663
0.00396664
0.00396664
0.00396664
0.00396664
0.00396664
0.00396664
0.00396665
0.00396668
0.00393049
0.00393053
0.00393054
0.00393054
0.00393053
0.00393053
0.00393052
0.00393052
0.00393052
0.00393052
0.00393052
0.00393052
0.00393051
0.00393047
0.00393038
0.00393031
0.00393026
0.00393024
0.00393025
0.00393026
0.00393027
0.00393027
0.00393028
0.00393028
0.00393028
0.00393027
0.00393028
0.00393028
0.00393029
0.0039303
0.00393031
0.00393033
0.00393034
0.00393035
0.00393035
0.00393035
0.00393035
0.00393035
0.00393036
0.00393039
0.00387762
0.00387765
0.00387766
0.00387766
0.00387765
0.00387765
0.00387765
0.00387765
0.00387764
0.00387764
0.00387764
0.00387764
0.00387763
0.00387757
0.00387748
0.0038774
0.00387735
0.00387734
0.00387736
0.00387737
0.00387737
0.00387738
0.00387738
0.00387738
0.00387738
0.00387738
0.00387738
0.00387739
0.00387739
0.0038774
0.00387742
0.00387744
0.00387745
0.00387746
0.00387746
0.00387747
0.00387746
0.00387746
0.00387747
0.0038775
0.00380855
0.0038086
0.00380861
0.0038086
0.0038086
0.00380859
0.00380859
0.00380859
0.00380858
0.00380858
0.00380858
0.00380858
0.00380857
0.0038085
0.0038084
0.00380832
0.00380827
0.00380827
0.00380828
0.0038083
0.00380831
0.00380831
0.0038083
0.0038083
0.00380831
0.00380831
0.00380831
0.00380831
0.00380831
0.00380833
0.00380836
0.00380838
0.00380839
0.00380839
0.0038084
0.0038084
0.0038084
0.0038084
0.0038084
0.00380843
0.00372338
0.00372342
0.00372343
0.00372343
0.00372342
0.00372342
0.00372342
0.00372342
0.00372341
0.00372341
0.00372341
0.00372342
0.0037234
0.00372332
0.00372321
0.00372312
0.00372308
0.00372308
0.0037231
0.00372312
0.00372312
0.00372312
0.00372311
0.00372312
0.00372312
0.00372312
0.00372312
0.00372312
0.00372313
0.00372316
0.00372318
0.0037232
0.00372321
0.00372321
0.00372321
0.00372321
0.00372321
0.00372321
0.00372322
0.00372325
0.00362187
0.00362191
0.00362192
0.00362192
0.00362191
0.00362191
0.00362191
0.00362191
0.0036219
0.0036219
0.00362191
0.00362191
0.00362188
0.00362179
0.00362168
0.00362159
0.00362155
0.00362156
0.00362159
0.0036216
0.0036216
0.00362159
0.00362159
0.0036216
0.0036216
0.00362161
0.00362161
0.00362161
0.00362162
0.00362164
0.00362166
0.00362168
0.00362169
0.00362169
0.00362169
0.0036217
0.0036217
0.0036217
0.0036217
0.00362173
0.00350355
0.0035036
0.00350361
0.00350361
0.0035036
0.0035036
0.0035036
0.00350359
0.00350359
0.00350359
0.00350359
0.0035036
0.00350357
0.00350347
0.00350336
0.00350327
0.00350324
0.00350325
0.00350327
0.00350328
0.00350327
0.00350328
0.00350328
0.00350329
0.00350329
0.00350329
0.00350329
0.0035033
0.0035033
0.00350332
0.00350334
0.00350337
0.00350337
0.00350337
0.00350338
0.00350338
0.00350338
0.00350337
0.00350338
0.00350341
0.00336777
0.00336782
0.00336783
0.00336782
0.00336782
0.00336781
0.00336781
0.00336781
0.00336781
0.0033678
0.0033678
0.0033678
0.00336778
0.00336768
0.00336757
0.00336748
0.00336746
0.00336747
0.00336749
0.00336749
0.00336749
0.00336749
0.0033675
0.0033675
0.0033675
0.0033675
0.0033675
0.0033675
0.00336751
0.00336753
0.00336756
0.00336757
0.00336758
0.00336758
0.00336759
0.00336759
0.00336758
0.00336759
0.00336759
0.00336762
0.00321367
0.00321371
0.00321371
0.0032137
0.00321369
0.00321369
0.00321369
0.00321369
0.00321368
0.00321368
0.00321368
0.00321368
0.00321365
0.00321356
0.00321345
0.00321337
0.00321335
0.00321336
0.00321338
0.00321337
0.00321338
0.00321338
0.00321338
0.00321339
0.00321339
0.00321339
0.00321338
0.00321339
0.0032134
0.00321341
0.00321344
0.00321345
0.00321346
0.00321347
0.00321347
0.00321347
0.00321347
0.00321347
0.00321347
0.0032135
0.00304021
0.00304025
0.00304025
0.00304024
0.00304023
0.00304023
0.00304023
0.00304022
0.00304022
0.00304022
0.00304022
0.00304022
0.0030402
0.00304012
0.00304001
0.00303994
0.00303991
0.00303993
0.00303993
0.00303994
0.00303994
0.00303994
0.00303995
0.00303995
0.00303995
0.00303994
0.00303994
0.00303995
0.00303996
0.00303997
0.00303998
0.00304
0.00304001
0.00304002
0.00304002
0.00304002
0.00304002
0.00304002
0.00304002
0.00304003
0.00284629
0.00284632
0.00284632
0.00284632
0.00284631
0.00284631
0.00284631
0.00284631
0.0028463
0.0028463
0.00284631
0.00284631
0.00284629
0.00284622
0.00284612
0.00284606
0.00284604
0.00284604
0.00284605
0.00284606
0.00284606
0.00284606
0.00284606
0.00284606
0.00284606
0.00284606
0.00284606
0.00284606
0.00284607
0.00284607
0.00284608
0.0028461
0.00284611
0.00284612
0.00284612
0.00284612
0.00284612
0.00284612
0.00284612
0.00284611
0.00263068
0.00263072
0.00263073
0.00263073
0.00263073
0.00263073
0.00263072
0.00263072
0.00263072
0.00263072
0.00263073
0.00263073
0.00263072
0.00263065
0.00263057
0.00263051
0.00263049
0.0026305
0.00263051
0.00263051
0.00263051
0.00263051
0.00263051
0.00263051
0.00263051
0.00263051
0.00263051
0.00263052
0.00263052
0.00263052
0.00263052
0.00263054
0.00263055
0.00263055
0.00263055
0.00263056
0.00263056
0.00263056
0.00263056
0.00263054
0.00239209
0.00239212
0.00239214
0.00239215
0.00239215
0.00239215
0.00239215
0.00239215
0.00239215
0.00239215
0.00239216
0.00239216
0.00239215
0.0023921
0.00239202
0.00239198
0.00239196
0.00239196
0.00239197
0.00239197
0.00239197
0.00239197
0.00239197
0.00239197
0.00239197
0.00239197
0.00239197
0.00239197
0.00239198
0.00239197
0.00239198
0.00239199
0.002392
0.002392
0.002392
0.002392
0.002392
0.002392
0.002392
0.00239199
0.00212894
0.00212898
0.002129
0.00212901
0.00212902
0.00212903
0.00212903
0.00212903
0.00212904
0.00212904
0.00212905
0.00212905
0.00212904
0.00212899
0.00212894
0.0021289
0.00212888
0.00212888
0.00212888
0.00212888
0.00212888
0.00212888
0.00212888
0.00212888
0.00212888
0.00212888
0.00212888
0.00212889
0.00212889
0.00212888
0.00212888
0.00212889
0.0021289
0.0021289
0.0021289
0.0021289
0.0021289
0.0021289
0.0021289
0.00212888
0.00183922
0.00183925
0.00183927
0.00183928
0.00183929
0.0018393
0.00183931
0.00183931
0.00183932
0.00183932
0.00183933
0.00183933
0.00183932
0.00183928
0.00183924
0.00183921
0.00183919
0.00183919
0.00183919
0.00183919
0.00183919
0.00183919
0.00183919
0.00183919
0.00183919
0.00183919
0.00183919
0.00183919
0.00183919
0.00183918
0.00183918
0.00183919
0.00183919
0.0018392
0.0018392
0.0018392
0.0018392
0.0018392
0.0018392
0.00183918
0.00151991
0.00151994
0.00151995
0.00151997
0.00151998
0.00151999
0.00152
0.00152
0.00152001
0.00152001
0.00152002
0.00152002
0.00152001
0.00151998
0.00151995
0.00151993
0.00151991
0.00151991
0.00151991
0.00151991
0.00151991
0.00151991
0.00151991
0.00151991
0.00151991
0.00151991
0.00151991
0.00151991
0.00151991
0.0015199
0.0015199
0.0015199
0.00151991
0.00151991
0.00151991
0.00151991
0.00151991
0.00151991
0.00151991
0.0015199
0.00116705
0.00116707
0.00116708
0.00116709
0.0011671
0.00116711
0.00116712
0.00116713
0.00116713
0.00116714
0.00116714
0.00116714
0.00116714
0.00116712
0.0011671
0.00116708
0.00116707
0.00116706
0.00116706
0.00116706
0.00116706
0.00116706
0.00116706
0.00116706
0.00116706
0.00116706
0.00116706
0.00116706
0.00116706
0.00116706
0.00116705
0.00116706
0.00116706
0.00116706
0.00116706
0.00116706
0.00116706
0.00116706
0.00116706
0.00116705
0.000778581
0.000778585
0.000778592
0.000778599
0.000778606
0.000778613
0.00077862
0.000778626
0.000778631
0.000778635
0.000778637
0.000778637
0.000778634
0.000778623
0.000778611
0.000778601
0.000778595
0.000778592
0.000778591
0.000778591
0.00077859
0.00077859
0.000778591
0.000778591
0.000778591
0.000778592
0.000778592
0.000778592
0.000778588
0.000778585
0.000778583
0.000778583
0.000778584
0.000778584
0.000778584
0.000778584
0.000778584
0.000778585
0.000778584
0.00077858
0.000371311
0.000371311
0.000371311
0.000371313
0.000371315
0.000371318
0.000371322
0.000371326
0.00037133
0.000371334
0.000371335
0.000371336
0.000371335
0.000371331
0.000371326
0.000371322
0.000371319
0.000371318
0.000371317
0.000371317
0.000371317
0.000371317
0.000371318
0.000371318
0.000371318
0.000371318
0.000371318
0.000371317
0.000371314
0.000371312
0.000371311
0.00037131
0.00037131
0.00037131
0.00037131
0.00037131
0.00037131
0.00037131
0.00037131
0.000371311
)
;

boundaryField
{
    bottomWall
    {
        type            nutkWallFunction;
        Cmu             0.09;
        kappa           0.41;
        E               9.8;
        value           uniform 0;
    }
    topWall
    {
        type            nutkWallFunction;
        Cmu             0.09;
        kappa           0.41;
        E               9.8;
        value           uniform 0;
    }
    sides1_half0
    {
        type            empty;
    }
    sides1_half1
    {
        type            empty;
    }
    sides2_half0
    {
        type            empty;
    }
    sides2_half1
    {
        type            empty;
    }
    inout1_half0
    {
        type            cyclic;
    }
    inout1_half1
    {
        type            cyclic;
    }
    inout2_half0
    {
        type            cyclic;
    }
    inout2_half1
    {
        type            cyclic;
    }
}


// ************************************************************************* //
