/*--------------------------------*- C++ -*----------------------------------*\
  =========                 |
  \\      /  F ield         | OpenFOAM: The Open Source CFD Toolbox
   \\    /   O peration     | Website:  https://openfoam.org
    \\  /    A nd           | Version:  dev
     \\/     M anipulation  |

   OpenFOAM for Windows 20.09 (v1)
   Built by CFD Support, www.cfdsupport.com (based on Symscape).
\*---------------------------------------------------------------------------*/
FoamFile
{
    version     2.0;
    format      ascii;
    class       volScalarField;
    location    "30";
    object      p;
}
// * * * * * * * * * * * * * * * * * * * * * * * * * * * * * * * * * * * * * //

dimensions      [0 2 -2 0 0 0 0];

internalField   nonuniform List<scalar> 
1600
(
-4.28234e-09
-8.96439e-09
-1.07854e-08
-8.4444e-09
-6.08477e-09
-4.98427e-09
-4.00717e-09
-2.62585e-09
-9.11627e-10
1.00067e-09
3.07221e-09
5.55167e-09
1.05784e-08
1.61894e-08
1.69462e-08
1.29405e-08
7.56103e-09
3.16697e-09
7.45868e-10
-1.99272e-10
-5.03637e-10
-6.45826e-10
-7.35422e-10
-8.19156e-10
-8.22284e-10
-7.70891e-10
-7.21269e-10
-9.33623e-10
-1.28355e-09
-1.42601e-09
-1.33431e-09
-1.07897e-09
-9.0159e-10
-8.17872e-10
-8.99826e-10
-9.47726e-10
-1.22927e-09
-1.16062e-09
-1.74123e-09
-2.45465e-09
-3.79569e-09
-7.49581e-09
-7.61373e-09
-4.29752e-09
-1.34472e-09
1.52918e-10
9.96823e-10
1.77278e-09
2.50001e-09
3.21306e-09
3.82864e-09
5.25032e-09
6.39671e-09
6.8785e-09
6.77475e-09
5.66873e-09
3.66617e-09
1.69624e-09
4.36643e-10
-1.2396e-10
-3.42563e-10
-3.76032e-10
-4.35184e-10
-5.49886e-10
-6.81366e-10
-7.67515e-10
-9.78215e-10
-1.17651e-09
-1.31314e-09
-1.35139e-09
-1.22087e-09
-9.69484e-10
-7.91923e-10
-7.02965e-10
-7.67759e-10
-8.26778e-10
-1.08459e-09
-1.00835e-09
-1.81989e-09
-2.42366e-09
-3.11084e-09
-6.8306e-09
-6.74694e-09
-3.36151e-09
-1.03019e-09
-5.39731e-11
5.95269e-10
1.30681e-09
2.02531e-09
2.67868e-09
3.60404e-09
4.66278e-09
5.86197e-09
6.77334e-09
6.67137e-09
5.38581e-09
3.46531e-09
1.6904e-09
5.56307e-10
-1.72396e-12
-2.73635e-10
-3.93905e-10
-4.86503e-10
-5.75182e-10
-6.8402e-10
-7.58444e-10
-8.80353e-10
-1.01556e-09
-1.15046e-09
-1.19956e-09
-1.10353e-09
-8.89828e-10
-7.43377e-10
-6.75687e-10
-7.39255e-10
-8.1241e-10
-1.03338e-09
-1.01601e-09
-2.29481e-09
-2.41957e-09
-2.12701e-09
-6.08282e-09
-5.72858e-09
-2.44922e-09
-6.86673e-10
-6.11949e-11
4.83991e-10
1.14589e-09
1.85094e-09
2.53794e-09
3.32833e-09
4.19547e-09
5.18314e-09
5.87897e-09
5.73554e-09
4.6583e-09
3.05803e-09
1.56108e-09
5.77227e-10
4.25894e-11
-2.2851e-10
-3.61078e-10
-4.79089e-10
-5.7331e-10
-6.64778e-10
-7.19565e-10
-7.77164e-10
-8.21648e-10
-9.26409e-10
-9.94406e-10
-9.36269e-10
-7.78676e-10
-6.81131e-10
-6.44173e-10
-6.91479e-10
-7.85786e-10
-9.42108e-10
-1.07214e-09
-2.8266e-09
-2.1556e-09
-9.51397e-10
-5.22e-09
-4.65384e-09
-1.51513e-09
-2.11676e-10
1.77237e-10
6.43456e-10
1.22377e-09
1.84491e-09
2.43158e-09
3.0303e-09
3.64473e-09
4.20353e-09
4.46515e-09
4.23389e-09
3.4828e-09
2.36579e-09
1.29606e-09
5.24913e-10
5.15148e-11
-1.87976e-10
-3.28578e-10
-4.53938e-10
-5.378e-10
-6.15427e-10
-6.79614e-10
-7.01804e-10
-6.4735e-10
-6.83741e-10
-7.53491e-10
-7.25738e-10
-6.48519e-10
-6.11006e-10
-5.84651e-10
-5.98738e-10
-7.21845e-10
-7.94783e-10
-1.13258e-09
-3.14216e-09
-1.49007e-09
1.95202e-10
-4.38647e-09
-3.68895e-09
-7.6029e-10
1.66472e-10
3.75666e-10
7.58639e-10
1.25012e-09
1.76974e-09
2.22994e-09
2.65091e-09
3.00846e-09
3.1763e-09
3.06502e-09
2.76858e-09
2.32064e-09
1.68739e-09
1.02901e-09
4.41702e-10
4.29858e-11
-1.73206e-10
-3.2024e-10
-4.22214e-10
-4.85742e-10
-5.5414e-10
-6.11651e-10
-5.98841e-10
-4.80319e-10
-4.39811e-10
-4.92627e-10
-5.24919e-10
-5.43101e-10
-5.3084e-10
-4.91578e-10
-4.69669e-10
-6.16224e-10
-6.09143e-10
-1.15346e-09
-3.10635e-09
-4.8061e-10
1.17905e-09
-3.66247e-09
-2.90487e-09
-2.35959e-10
4.02624e-10
4.68045e-10
7.60932e-10
1.17847e-09
1.59914e-09
1.93733e-09
2.20987e-09
2.36897e-09
2.22593e-09
1.81574e-09
1.49365e-09
1.31017e-09
1.0986e-09
7.58589e-10
3.23156e-10
3.66922e-12
-1.83002e-10
-3.04145e-10
-3.82373e-10
-4.23039e-10
-4.62321e-10
-4.90309e-10
-4.51057e-10
-3.15241e-10
-2.32969e-10
-2.61015e-10
-3.58323e-10
-4.40577e-10
-4.13382e-10
-3.65949e-10
-3.10923e-10
-4.6624e-10
-3.9284e-10
-1.08e-09
-2.72637e-09
6.80865e-10
1.96491e-09
-2.97602e-09
-2.27351e-09
1.07551e-10
5.50361e-10
5.04493e-10
7.10915e-10
1.04794e-09
1.35902e-09
1.59355e-09
1.7602e-09
1.74267e-09
1.32529e-09
7.01004e-10
4.00891e-10
4.55988e-10
5.7351e-10
4.72888e-10
1.993e-10
-4.63908e-11
-1.97648e-10
-2.78544e-10
-3.43274e-10
-3.47527e-10
-3.51479e-10
-3.5818e-10
-2.96574e-10
-1.68027e-10
-7.84032e-11
-7.87899e-11
-1.93112e-10
-2.8496e-10
-2.50933e-10
-2.07682e-10
-1.31206e-10
-2.85742e-10
-1.54016e-10
-8.95926e-10
-2.12354e-09
1.7532e-09
2.55472e-09
-2.28613e-09
-1.74883e-09
3.29881e-10
6.52166e-10
5.29654e-10
6.55173e-10
8.87746e-10
1.08442e-09
1.24558e-09
1.31641e-09
1.11686e-09
4.72222e-10
-2.77867e-10
-5.18e-10
-2.56967e-10
9.66106e-11
2.12181e-10
9.91022e-11
-8.51047e-11
-2.08493e-10
-2.73459e-10
-3.12527e-10
-2.89942e-10
-2.7016e-10
-2.42356e-10
-1.64699e-10
-5.72217e-11
6.1464e-11
9.4969e-11
-1.12513e-11
-8.47946e-11
-6.08796e-11
-2.94555e-11
5.14387e-11
-8.68315e-11
9.13829e-11
-6.28226e-10
-1.41871e-09
2.6038e-09
2.95206e-09
-1.63361e-09
-1.31161e-09
4.82867e-10
7.32161e-10
5.57659e-10
6.06085e-10
7.2672e-10
8.21528e-10
9.11313e-10
8.7151e-10
5.11232e-10
-2.99917e-10
-1.10325e-09
-1.25963e-09
-8.44198e-10
-3.17236e-10
-6.3002e-12
8.71963e-12
-1.23155e-10
-2.27195e-10
-2.91726e-10
-2.9599e-10
-2.58128e-10
-2.05104e-10
-1.41068e-10
-6.0087e-11
5.03646e-11
1.92521e-10
2.54121e-10
1.8365e-10
1.26613e-10
1.34119e-10
1.53727e-10
2.293e-10
1.19965e-10
3.14485e-10
-3.19942e-10
-6.81487e-10
3.21531e-09
3.1768e-09
-1.02488e-09
-9.25771e-10
6.02989e-10
8.01062e-10
5.91737e-10
5.67848e-10
5.83003e-10
5.87294e-10
5.96433e-10
4.44458e-10
-5.31346e-11
-9.65061e-10
-1.75386e-09
-1.82693e-09
-1.31718e-09
-6.60757e-10
-2.04525e-10
-1.02075e-10
-1.76392e-10
-2.57007e-10
-3.10471e-10
-2.83472e-10
-2.18792e-10
-1.33813e-10
-5.88484e-11
2.59766e-11
1.65058e-10
3.0416e-10
3.81437e-10
3.72983e-10
3.27844e-10
3.20475e-10
3.28684e-10
3.92633e-10
3.11922e-10
5.01813e-10
7.97206e-12
9.58428e-12
3.57181e-09
3.2753e-09
-4.67002e-10
-5.78739e-10
6.9606e-10
8.58828e-10
6.23793e-10
5.21826e-10
4.57202e-10
3.91676e-10
3.14123e-10
5.79397e-11
-5.55148e-10
-1.49905e-09
-2.22401e-09
-2.23588e-09
-1.68242e-09
-9.47555e-10
-4.11135e-10
-2.35892e-10
-2.39554e-10
-2.89809e-10
-3.1267e-10
-2.53293e-10
-1.63421e-10
-7.07597e-11
9.5398e-12
1.1092e-10
2.54501e-10
3.93167e-10
4.96739e-10
5.31062e-10
5.02398e-10
4.88362e-10
4.80844e-10
5.3329e-10
4.90023e-10
6.71043e-10
3.48052e-10
5.85736e-10
3.69015e-09
3.29203e-09
6.57075e-12
-2.94335e-10
7.5394e-10
8.92685e-10
6.36038e-10
4.69594e-10
3.52928e-10
2.31392e-10
6.84408e-11
-2.90341e-10
-9.68218e-10
-1.87503e-09
-2.52914e-09
-2.50923e-09
-1.95062e-09
-1.19599e-09
-6.24177e-10
-3.68131e-10
-3.07488e-10
-3.23498e-10
-2.98227e-10
-2.11663e-10
-1.13088e-10
-2.089e-11
7.82545e-11
1.95394e-10
3.23145e-10
4.62146e-10
5.90322e-10
6.51992e-10
6.4727e-10
6.34373e-10
6.16192e-10
6.67996e-10
6.59125e-10
8.30109e-10
6.70084e-10
1.02224e-09
3.64946e-09
3.25578e-09
3.83267e-10
-7.82835e-11
7.7557e-10
8.9812e-10
6.28601e-10
4.22662e-10
2.63673e-10
9.02737e-11
-1.55229e-10
-5.90655e-10
-1.26641e-09
-2.10114e-09
-2.69297e-09
-2.66779e-09
-2.1357e-09
-1.40706e-09
-8.14667e-10
-4.94699e-10
-3.8493e-10
-3.52128e-10
-2.821e-10
-1.80083e-10
-7.75243e-11
2.7598e-11
1.47433e-10
2.61813e-10
3.79625e-10
5.17881e-10
6.57763e-10
7.49788e-10
7.68901e-10
7.61909e-10
7.46245e-10
7.96825e-10
8.00723e-10
9.76721e-10
9.50862e-10
1.32074e-09
3.51509e-09
3.18486e-09
6.75108e-10
8.30158e-11
7.6926e-10
8.81992e-10
6.09568e-10
3.73604e-10
1.77905e-10
-4.28801e-11
-3.56608e-10
-8.16532e-10
-1.45131e-09
-2.21182e-09
-2.74338e-09
-2.72938e-09
-2.24859e-09
-1.56989e-09
-9.75374e-10
-6.20236e-10
-4.6317e-10
-3.75169e-10
-2.77298e-10
-1.63634e-10
-4.9993e-11
7.05731e-11
1.96759e-10
3.07973e-10
4.2102e-10
5.64335e-10
7.22627e-10
8.32861e-10
8.67119e-10
8.6669e-10
8.55068e-10
8.94709e-10
9.18568e-10
1.11051e-09
1.16988e-09
1.50863e-09
3.33332e-09
3.08801e-09
8.95047e-10
2.03157e-10
7.45771e-10
8.52068e-10
5.8144e-10
3.20617e-10
9.26554e-11
-1.69238e-10
-5.14008e-10
-9.66176e-10
-1.55567e-09
-2.23607e-09
-2.71119e-09
-2.71638e-09
-2.30027e-09
-1.68471e-09
-1.10964e-09
-7.31502e-10
-5.29126e-10
-4.0062e-10
-2.84086e-10
-1.57746e-10
-3.09544e-11
9.77273e-11
2.25002e-10
3.36906e-10
4.541e-10
6.11615e-10
7.82108e-10
8.95706e-10
9.35912e-10
9.35155e-10
9.24817e-10
9.66902e-10
1.02332e-09
1.21348e-09
1.32378e-09
1.62665e-09
3.1371e-09
2.96974e-09
1.0576e-09
2.92949e-10
7.14094e-10
8.16798e-10
5.49015e-10
2.66662e-10
1.25563e-11
-2.7277e-10
-6.22483e-10
-1.05945e-09
-1.60531e-09
-2.2073e-09
-2.63111e-09
-2.65521e-09
-2.30425e-09
-1.75673e-09
-1.2143e-09
-8.21705e-10
-5.83998e-10
-4.27263e-10
-2.93602e-10
-1.56895e-10
-2.08824e-11
1.12607e-10
2.39512e-10
3.57758e-10
4.87366e-10
6.52273e-10
8.19236e-10
9.28457e-10
9.67947e-10
9.70687e-10
9.71143e-10
1.02435e-09
1.10331e-09
1.28235e-09
1.43291e-09
1.69554e-09
2.93229e-09
2.84259e-09
1.17411e-09
3.59329e-10
6.81266e-10
7.81728e-10
5.18365e-10
2.20257e-10
-5.10188e-11
-3.45768e-10
-6.94237e-10
-1.11737e-09
-1.62264e-09
-2.15677e-09
-2.53558e-09
-2.57213e-09
-2.27569e-09
-1.79076e-09
-1.28577e-09
-8.90454e-10
-6.27393e-10
-4.48114e-10
-3.00847e-10
-1.56929e-10
-1.57832e-11
1.20085e-10
2.48332e-10
3.75532e-10
5.12947e-10
6.73963e-10
8.30763e-10
9.34329e-10
9.7814e-10
9.89028e-10
1.00483e-09
1.06365e-09
1.15282e-09
1.32516e-09
1.50286e-09
1.72018e-09
2.73279e-09
2.72185e-09
1.2461e-09
4.01745e-10
6.48974e-10
7.4992e-10
4.9307e-10
1.85988e-10
-9.50671e-11
-3.93866e-10
-7.40672e-10
-1.15132e-09
-1.62383e-09
-2.10769e-09
-2.44943e-09
-2.48891e-09
-2.2291e-09
-1.79193e-09
-1.32065e-09
-9.30763e-10
-6.55117e-10
-4.61477e-10
-3.0486e-10
-1.56886e-10
-1.41943e-11
1.22343e-10
2.53491e-10
3.86358e-10
5.29384e-10
6.84901e-10
8.27852e-10
9.27749e-10
9.76339e-10
9.95665e-10
1.02037e-09
1.08157e-09
1.1763e-09
1.34337e-09
1.53446e-09
1.71505e-09
2.56102e-09
2.62288e-09
1.26384e-09
4.0909e-10
6.15e-10
7.19623e-10
4.69811e-10
1.6067e-10
-1.22836e-10
-4.2113e-10
-7.64638e-10
-1.16586e-09
-1.61888e-09
-2.07367e-09
-2.38907e-09
-2.4215e-09
-2.17563e-09
-1.76382e-09
-1.31656e-09
-9.38112e-10
-6.6364e-10
-4.66083e-10
-3.05089e-10
-1.56805e-10
-1.47715e-11
1.21478e-10
2.5421e-10
3.91896e-10
5.38866e-10
6.88262e-10
8.22166e-10
9.18119e-10
9.66606e-10
9.8871e-10
1.01616e-09
1.0793e-09
1.17855e-09
1.34141e-09
1.53429e-09
1.69268e-09
2.43935e-09
2.56683e-09
1.20985e-09
3.6111e-10
5.77052e-10
6.89833e-10
4.45207e-10
1.41816e-10
-1.34971e-10
-4.27163e-10
-7.65641e-10
-1.16247e-09
-1.61251e-09
-2.06234e-09
-2.36451e-09
-2.37941e-09
-2.12159e-09
-1.70933e-09
-1.27414e-09
-9.13064e-10
-6.52247e-10
-4.60068e-10
-2.99964e-10
-1.54021e-10
-1.46412e-11
1.19406e-10
2.51344e-10
3.90333e-10
5.38741e-10
6.87548e-10
8.18538e-10
9.08721e-10
9.50321e-10
9.68139e-10
9.95343e-10
1.06065e-09
1.15986e-09
1.31843e-09
1.50786e-09
1.66077e-09
2.39291e-09
2.55273e-09
1.07806e-09
2.55306e-10
5.36965e-10
6.63758e-10
4.2185e-10
1.31077e-10
-1.30112e-10
-4.10571e-10
-7.4304e-10
-1.1414e-09
-1.60502e-09
-2.07348e-09
-2.37384e-09
-2.35991e-09
-2.06586e-09
-1.6305e-09
-1.1986e-09
-8.61435e-10
-6.2467e-10
-4.44308e-10
-2.89156e-10
-1.47077e-10
-1.26836e-11
1.14134e-10
2.41094e-10
3.79961e-10
5.30216e-10
6.8364e-10
8.14913e-10
8.96422e-10
9.27275e-10
9.37742e-10
9.61392e-10
1.02519e-09
1.11791e-09
1.27535e-09
1.45699e-09
1.62349e-09
2.42848e-09
2.55794e-09
8.79174e-10
1.095e-10
4.99919e-10
6.45488e-10
4.03901e-10
1.31848e-10
-1.05528e-10
-3.69975e-10
-6.96171e-10
-1.1012e-09
-1.59221e-09
-2.09722e-09
-2.40147e-09
-2.34812e-09
-2.00009e-09
-1.52703e-09
-1.097e-09
-7.93682e-10
-5.88334e-10
-4.2178e-10
-2.72246e-10
-1.35182e-10
-1.18807e-11
1.02842e-10
2.24046e-10
3.64012e-10
5.14984e-10
6.70273e-10
8.02308e-10
8.7668e-10
8.97444e-10
8.96399e-10
9.11407e-10
9.71063e-10
1.05246e-09
1.21173e-09
1.37872e-09
1.57939e-09
2.52581e-09
2.56885e-09
6.19432e-10
-6.67208e-11
4.67093e-10
6.34952e-10
3.95356e-10
1.48941e-10
-5.92467e-11
-3.05069e-10
-6.23747e-10
-1.03762e-09
-1.56465e-09
-2.1158e-09
-2.42502e-09
-2.32465e-09
-1.91278e-09
-1.3977e-09
-9.78028e-10
-7.17586e-10
-5.45134e-10
-3.91275e-10
-2.46161e-10
-1.21015e-10
-1.70762e-11
8.7086e-11
2.07541e-10
3.43982e-10
4.88822e-10
6.39188e-10
7.70993e-10
8.44918e-10
8.54655e-10
8.37447e-10
8.39179e-10
8.9545e-10
9.65756e-10
1.12679e-09
1.27224e-09
1.52091e-09
2.65839e-09
2.58444e-09
3.18512e-10
-2.69152e-10
4.38501e-10
6.3159e-10
3.95647e-10
1.79748e-10
3.69537e-12
-2.19083e-10
-5.24719e-10
-9.44912e-10
-1.50793e-09
-2.1034e-09
-2.41654e-09
-2.2696e-09
-1.79377e-09
-1.24495e-09
-8.49819e-10
-6.37572e-10
-4.90986e-10
-3.47318e-10
-2.16655e-10
-1.12723e-10
-2.57244e-11
7.18212e-11
1.89472e-10
3.16081e-10
4.47213e-10
5.88789e-10
7.18571e-10
7.93256e-10
7.88949e-10
7.58981e-10
7.50654e-10
8.06202e-10
8.62199e-10
1.0276e-09
1.13814e-09
1.43028e-09
2.80977e-09
2.6021e-09
1.06744e-14
-4.71898e-10
4.17627e-10
6.31591e-10
3.97097e-10
2.13438e-10
7.45392e-11
-1.15179e-10
-3.98797e-10
-8.16731e-10
-1.40086e-09
-2.02909e-09
-2.34857e-09
-2.16523e-09
-1.63587e-09
-1.07225e-09
-7.20049e-10
-5.52659e-10
-4.20781e-10
-2.93987e-10
-1.92886e-10
-1.1186e-10
-3.51612e-11
5.70907e-11
1.63001e-10
2.77745e-10
3.97716e-10
5.16528e-10
6.34914e-10
7.12849e-10
7.02828e-10
6.72469e-10
6.59698e-10
7.14562e-10
7.5288e-10
9.2133e-10
9.59301e-10
1.28534e-09
2.96812e-09
2.61248e-09
-3.48294e-10
-6.59338e-10
4.04505e-10
6.25671e-10
3.90689e-10
2.39289e-10
1.47392e-10
6.57711e-12
-2.4571e-10
-6.39775e-10
-1.21329e-09
-1.8677e-09
-2.20485e-09
-1.99652e-09
-1.43265e-09
-8.86983e-10
-5.93054e-10
-4.54411e-10
-3.38613e-10
-2.44004e-10
-1.78803e-10
-1.18957e-10
-4.08497e-11
4.38918e-11
1.39922e-10
2.38073e-10
3.34641e-10
4.12937e-10
5.07385e-10
6.04521e-10
6.07718e-10
5.83366e-10
5.78148e-10
6.29027e-10
6.34272e-10
7.94378e-10
7.20674e-10
1.08305e-09
3.12996e-09
2.61053e-09
-7.39219e-10
-8.70177e-10
3.85002e-10
6.11675e-10
3.68803e-10
2.53975e-10
2.26219e-10
1.47209e-10
-4.93735e-11
-3.92117e-10
-9.39647e-10
-1.6127e-09
-1.97253e-09
-1.75078e-09
-1.18361e-09
-6.94482e-10
-4.55715e-10
-3.44808e-10
-2.63996e-10
-2.03681e-10
-1.69755e-10
-1.20551e-10
-4.253e-11
4.1443e-11
1.21538e-10
1.9234e-10
2.52865e-10
2.68837e-10
3.55808e-10
4.7908e-10
4.98373e-10
5.02543e-10
4.95705e-10
5.38375e-10
4.97295e-10
6.35408e-10
4.40089e-10
8.08328e-10
3.27167e-09
2.56077e-09
-1.2028e-09
-1.11527e-09
3.61963e-10
5.8779e-10
3.37015e-10
2.7607e-10
3.24597e-10
3.15177e-10
1.993e-10
-7.69055e-11
-5.9407e-10
-1.26779e-09
-1.63938e-09
-1.41578e-09
-8.91755e-10
-4.8981e-10
-3.06921e-10
-2.34231e-10
-1.9564e-10
-1.6822e-10
-1.48025e-10
-1.14011e-10
-4.76073e-11
4.81513e-11
1.0281e-10
1.40807e-10
1.48222e-10
1.00446e-10
1.87349e-10
3.32591e-10
3.86934e-10
4.19468e-10
4.00343e-10
4.353e-10
3.41871e-10
4.75838e-10
1.34895e-10
4.09505e-10
3.32531e-09
2.41948e-09
-1.72025e-09
-1.37136e-09
3.28639e-10
5.54664e-10
3.23116e-10
3.31951e-10
4.50366e-10
5.10857e-10
4.82456e-10
2.81813e-10
-1.88274e-10
-8.34915e-10
-1.19697e-09
-9.8802e-10
-5.58738e-10
-2.68633e-10
-1.58441e-10
-1.2525e-10
-1.17799e-10
-1.34718e-10
-1.28789e-10
-9.96728e-11
-2.52212e-11
5.7814e-11
8.1145e-11
8.19388e-11
9.44006e-12
-7.91682e-11
-3.57535e-12
1.77588e-10
2.89101e-10
3.22908e-10
2.94669e-10
3.13314e-10
1.85519e-10
3.22081e-10
-2.06054e-10
-1.2762e-10
3.20802e-09
2.16017e-09
-2.27773e-09
-1.68688e-09
2.53158e-10
5.19358e-10
3.4265e-10
4.2115e-10
5.92466e-10
7.18242e-10
7.81742e-10
6.61115e-10
2.56382e-10
-3.21349e-10
-6.43499e-10
-4.73982e-10
-1.8474e-10
-3.81702e-11
-4.03127e-12
-9.41425e-12
-5.35587e-11
-1.01278e-10
-1.08733e-10
-6.30691e-11
2.45927e-11
5.98607e-11
5.10779e-11
4.55165e-12
-1.44673e-10
-2.64834e-10
-1.81433e-10
4.77176e-11
1.83231e-10
2.14498e-10
1.71816e-10
1.76998e-10
3.78994e-11
1.53104e-10
-5.25914e-10
-7.14681e-10
2.89518e-09
1.78566e-09
-2.90083e-09
-2.11979e-09
1.07178e-10
4.817e-10
3.73047e-10
5.10629e-10
7.31558e-10
9.28296e-10
1.07547e-09
1.0266e-09
7.16523e-10
2.60407e-10
1.61656e-11
1.18347e-10
2.23165e-10
2.15008e-10
1.64483e-10
8.68151e-11
-8.83418e-12
-6.15616e-11
-6.46179e-11
-1.18866e-11
5.36238e-11
4.87159e-11
1.97357e-11
-7.51701e-11
-2.87373e-10
-4.22283e-10
-3.09598e-10
-6.95928e-11
6.04038e-11
9.05097e-11
3.59304e-11
5.05664e-11
-1.11181e-10
8.42278e-12
-7.56026e-10
-1.27931e-09
2.43672e-09
1.31262e-09
-3.57884e-09
-2.65929e-09
-1.28928e-10
4.07933e-10
3.79542e-10
5.73708e-10
8.55422e-10
1.12497e-09
1.33043e-09
1.35473e-09
1.18123e-09
9.05877e-10
7.72858e-10
7.80962e-10
6.75283e-10
5.07086e-10
3.2781e-10
1.55753e-10
4.2692e-11
-1.94138e-11
-1.50467e-11
3.15989e-11
5.68424e-11
3.68503e-11
-5.66305e-12
-1.4567e-10
-3.92398e-10
-5.18021e-10
-3.95049e-10
-1.94444e-10
-8.09112e-11
-4.6563e-11
-8.42033e-11
-5.22887e-11
-2.40748e-10
-9.47217e-11
-8.91903e-10
-1.79283e-09
1.86438e-09
7.33949e-10
-4.25774e-09
-3.27353e-09
-4.79356e-10
2.5325e-10
3.2845e-10
5.89752e-10
9.39331e-10
1.27543e-09
1.52728e-09
1.64926e-09
1.66236e-09
1.61854e-09
1.61363e-09
1.51252e-09
1.19823e-09
8.26425e-10
4.87354e-10
2.44524e-10
1.019e-10
2.1233e-11
1.96569e-11
4.56709e-11
5.0957e-11
3.30541e-11
-2.02916e-11
-1.92538e-10
-4.49884e-10
-5.52583e-10
-4.52286e-10
-3.23491e-10
-2.34682e-10
-1.75119e-10
-1.66759e-10
-1.41613e-10
-3.29551e-10
-1.85513e-10
-9.41553e-10
-2.20889e-09
1.15856e-09
1.50344e-11
-4.85723e-09
-3.92264e-09
-9.66844e-10
-2.26463e-11
1.69098e-10
5.03714e-10
9.29138e-10
1.34165e-09
1.66257e-09
1.9217e-09
2.17575e-09
2.40498e-09
2.54068e-09
2.33142e-09
1.80209e-09
1.19013e-09
6.85614e-10
3.61827e-10
1.56976e-10
4.7963e-11
2.87669e-11
3.65217e-11
4.56938e-11
3.87533e-11
-2.13124e-11
-2.06899e-10
-4.58861e-10
-5.29407e-10
-4.70477e-10
-4.37122e-10
-3.64269e-10
-2.70335e-10
-2.39965e-10
-2.28681e-10
-3.8327e-10
-2.93369e-10
-9.16859e-10
-2.47101e-09
3.03524e-10
-8.50738e-10
-5.28775e-09
-4.57271e-09
-1.61911e-09
-4.58155e-10
-1.44276e-10
2.58728e-10
7.68973e-10
1.28214e-09
1.71746e-09
2.16566e-09
2.71724e-09
3.26775e-09
3.56567e-09
3.25996e-09
2.49643e-09
1.62215e-09
9.29066e-10
4.83948e-10
1.99236e-10
5.52679e-11
1.98245e-11
2.20879e-11
3.97196e-11
4.16699e-11
-1.30773e-11
-1.96903e-10
-3.97796e-10
-4.23948e-10
-4.34653e-10
-5.00453e-10
-4.55115e-10
-3.56247e-10
-3.14703e-10
-3.03282e-10
-4.20282e-10
-4.19888e-10
-8.32701e-10
-2.51737e-09
-6.5623e-10
-1.72004e-09
-5.5786e-09
-5.28194e-09
-2.4399e-09
-1.01137e-09
-5.38604e-10
-6.28226e-11
5.27755e-10
1.13534e-09
1.69813e-09
2.36619e-09
3.23052e-09
4.13234e-09
4.61122e-09
4.21471e-09
3.21211e-09
2.07274e-09
1.17766e-09
5.96691e-10
2.4137e-10
6.4961e-11
7.68783e-12
9.36581e-12
3.14449e-11
2.23516e-11
-2.9365e-11
-1.91715e-10
-2.83579e-10
-2.54874e-10
-3.59167e-10
-5.2714e-10
-5.31027e-10
-4.37011e-10
-3.73275e-10
-3.61712e-10
-4.41613e-10
-5.28042e-10
-7.25333e-10
-2.30599e-09
-1.48045e-09
-2.3242e-09
-5.84347e-09
-6.08254e-09
-3.37041e-09
-1.55376e-09
-7.81585e-10
-1.35958e-10
5.69805e-10
1.22749e-09
1.81288e-09
2.60445e-09
3.67369e-09
4.76923e-09
5.33682e-09
4.86228e-09
3.69455e-09
2.375e-09
1.34011e-09
6.698e-10
2.88997e-10
1.05701e-10
2.34124e-11
1.27742e-11
3.22801e-11
-8.80454e-12
-8.9876e-11
-2.86124e-10
-2.9638e-10
-2.12504e-10
-3.75294e-10
-5.96775e-10
-6.23775e-10
-5.11016e-10
-4.19072e-10
-3.99037e-10
-4.40714e-10
-5.93878e-10
-6.39837e-10
-1.91127e-09
-1.84596e-09
-2.55042e-09
-6.02493e-09
-6.90569e-09
-4.45022e-09
-2.23224e-09
-1.00889e-09
-4.72865e-12
9.86665e-10
1.76238e-09
2.29845e-09
2.9756e-09
4.17984e-09
5.0606e-09
5.46466e-09
5.11528e-09
3.99403e-09
2.57126e-09
1.41131e-09
6.5757e-10
2.82422e-10
1.69092e-10
1.28316e-10
8.82226e-11
2.88645e-11
-1.9094e-11
-1.07083e-10
-5.35818e-10
-7.00476e-10
-5.5026e-10
-5.85075e-10
-7.2756e-10
-7.29596e-10
-6.10656e-10
-4.59668e-10
-4.26809e-10
-4.33181e-10
-6.25422e-10
-6.07295e-10
-1.54331e-09
-1.8298e-09
-2.68573e-09
-6.13889e-09
-8.20695e-09
-6.82887e-09
-5.55872e-09
-5.52057e-09
-5.48445e-09
-4.77365e-09
-3.20696e-09
-8.4265e-10
1.83963e-09
4.828e-09
9.1071e-09
1.17037e-08
1.07069e-08
7.64848e-09
4.47344e-09
2.15235e-09
8.2543e-10
1.67562e-10
-2.17035e-10
-3.80179e-10
-4.02563e-10
-3.19576e-10
-1.48079e-10
1.33474e-10
1.1962e-09
2.39491e-09
2.54493e-09
1.61633e-09
4.29117e-10
-2.62365e-10
-4.49725e-10
-4.37748e-10
-4.66783e-10
-4.80818e-10
-7.60068e-10
-6.21086e-10
-1.56606e-09
-2.29255e-09
)
;

boundaryField
{
    bottomWall
    {
        type            zeroGradient;
    }
    topWall
    {
        type            zeroGradient;
    }
    sides1_half0
    {
        type            empty;
    }
    sides1_half1
    {
        type            empty;
    }
    sides2_half0
    {
        type            empty;
    }
    sides2_half1
    {
        type            empty;
    }
    inout1_half0
    {
        type            cyclic;
    }
    inout1_half1
    {
        type            cyclic;
    }
    inout2_half0
    {
        type            cyclic;
    }
    inout2_half1
    {
        type            cyclic;
    }
}


// ************************************************************************* //
