/*--------------------------------*- C++ -*----------------------------------*\
  =========                 |
  \\      /  F ield         | OpenFOAM: The Open Source CFD Toolbox
   \\    /   O peration     | Website:  https://openfoam.org
    \\  /    A nd           | Version:  dev
     \\/     M anipulation  |

   OpenFOAM for Windows 20.09 (v1)
   Built by CFD Support, www.cfdsupport.com (based on Symscape).
\*---------------------------------------------------------------------------*/
FoamFile
{
    version     2.0;
    format      ascii;
    class       surfaceScalarField;
    location    "30";
    object      phi;
}
// * * * * * * * * * * * * * * * * * * * * * * * * * * * * * * * * * * * * * //

dimensions      [0 3 -1 0 0 0 0];

internalField   nonuniform List<scalar> 
3120
(
0.000733751
-5.23657e-10
0.000733751
-2.59423e-10
0.000733751
-1.26716e-10
0.000733752
-3.59369e-10
0.000733752
-4.92394e-10
0.000733753
-5.02228e-10
0.000733753
-4.79953e-10
0.000733753
-4.19271e-10
0.000733754
-3.02792e-10
0.000733754
-1.19404e-10
0.000733754
1.37053e-10
0.000733753
3.96001e-10
0.000733753
4.75485e-10
0.000733752
5.30803e-10
0.000733752
6.30504e-10
0.000733751
6.63935e-10
0.00073375
5.89805e-10
0.00073375
4.42893e-10
0.00073375
2.74221e-10
0.00073375
1.41629e-10
0.00073375
5.82835e-11
0.00073375
1.13107e-11
0.00073375
-1.2368e-11
0.00073375
-2.06297e-11
0.00073375
-3.37178e-11
0.00073375
-5.53914e-11
0.00073375
-7.89223e-11
0.00073375
-6.68371e-11
0.00073375
-5.06131e-11
0.00073375
-4.43204e-11
0.00073375
-4.81196e-11
0.00073375
-5.33636e-11
0.00073375
-6.05446e-11
0.00073375
-5.32484e-11
0.00073375
-5.46478e-11
0.00073375
-5.23405e-11
0.00073375
-2.8173e-11
0.00073375
-1.06504e-10
0.00073375
1.1872e-10
-6.56945e-11
0.000812018
-7.86702e-10
0.000812018
-3.20564e-10
0.000812018
-1.59815e-10
0.000812018
-4.49867e-10
0.000812019
-6.45346e-10
0.000812019
-6.79097e-10
0.000812019
-6.46055e-10
0.000812019
-5.51323e-10
0.000812019
-3.72681e-10
0.000812019
-9.81539e-11
0.000812019
2.64515e-10
0.000812019
5.65107e-10
0.000812019
6.87966e-10
0.000812018
7.51554e-10
0.000812018
8.48606e-10
0.000812018
8.98774e-10
0.000812018
8.37519e-10
0.000812017
6.65931e-10
0.000812017
4.39094e-10
0.000812017
2.42463e-10
0.000812017
1.10187e-10
0.000812017
2.90633e-11
0.000812017
-1.1456e-11
0.000812017
-3.08728e-11
0.000812017
-5.82923e-11
0.000812017
-9.65512e-11
0.000812017
-1.3584e-10
0.000812017
-1.32883e-10
0.000812017
-1.10916e-10
0.000812017
-9.14682e-11
0.000812017
-9.43553e-11
0.000812017
-9.61521e-11
0.000812018
-1.09237e-10
0.000812018
-9.0785e-11
0.000812018
-1.04346e-10
0.000812018
-7.78381e-11
0.000812018
-8.788e-11
0.000812018
-1.30849e-10
0.000812018
1.31042e-10
-3.02492e-10
0.000873742
-8.4705e-10
0.000873742
-2.59925e-10
0.000873742
-1.33415e-10
0.000873742
-4.51067e-10
0.000873742
-6.55761e-10
0.000873742
-6.96472e-10
0.000873742
-6.6101e-10
0.000873742
-5.51542e-10
0.000873742
-3.40574e-10
0.000873741
-2.06241e-11
0.000873741
3.64166e-10
0.000873741
6.55907e-10
0.000873741
7.38503e-10
0.000873741
7.5679e-10
0.000873741
8.49867e-10
0.000873741
9.36718e-10
0.000873741
9.22155e-10
0.000873741
7.72697e-10
0.000873741
5.36335e-10
0.000873741
3.13319e-10
0.000873741
1.51298e-10
0.000873741
4.84416e-11
0.000873741
-6.0519e-12
0.000873741
-3.57092e-11
0.000873741
-7.33804e-11
0.000873741
-1.23434e-10
0.000873741
-1.7275e-10
0.000873741
-1.78096e-10
0.000873741
-1.56114e-10
0.000873741
-1.28753e-10
0.000873741
-1.29171e-10
0.000873741
-1.2976e-10
0.000873741
-1.44855e-10
0.000873741
-1.21141e-10
0.000873741
-1.42932e-10
0.000873741
-9.86763e-11
0.000873741
-1.46568e-10
0.000873741
-1.23985e-10
0.000873741
4.5564e-11
-5.6294e-10
0.000929279
-7.23553e-10
0.000929279
-1.47308e-10
0.000929279
-1.17963e-10
0.000929279
-4.24847e-10
0.000929279
-6.03393e-10
0.000929279
-6.37361e-10
0.000929279
-5.98606e-10
0.000929279
-4.81737e-10
0.000929279
-2.58328e-10
0.000929279
7.3812e-11
0.000929278
4.46344e-10
0.000929278
6.9116e-10
0.000929278
6.97678e-10
0.000929279
6.49488e-10
0.000929279
7.28828e-10
0.000929279
8.55589e-10
0.000929279
9.04179e-10
0.000929279
8.02805e-10
0.000929279
5.86015e-10
0.000929279
3.60213e-10
0.000929279
1.8402e-10
0.000929279
6.76766e-11
0.000929279
1.49653e-12
0.000929279
-3.76416e-11
0.000929279
-8.3305e-11
0.000929279
-1.41768e-10
0.000929279
-1.96691e-10
0.000929279
-2.06068e-10
0.000929279
-1.83361e-10
0.000929279
-1.51828e-10
0.000929279
-1.50907e-10
0.000929279
-1.52885e-10
0.000929279
-1.6851e-10
0.000929279
-1.46522e-10
0.000929279
-1.70436e-10
0.000929279
-1.19999e-10
0.000929279
-1.91758e-10
0.000929279
-1.16013e-10
0.000929279
-1.02493e-10
-7.36023e-10
0.000981979
-4.89019e-10
0.000981979
-3.86981e-11
0.000981979
-1.20749e-10
0.000981979
-3.92241e-10
0.000981979
-5.31365e-10
0.000981979
-5.51205e-10
0.000981978
-5.04641e-10
0.000981978
-3.82715e-10
0.000981978
-1.58533e-10
0.000981978
1.6702e-10
0.000981978
5.08055e-10
0.000981978
6.8771e-10
0.000981978
6.1117e-10
0.000981978
4.94393e-10
0.000981979
5.51268e-10
0.000981979
7.10887e-10
0.000981979
8.22112e-10
0.000981979
7.80388e-10
0.000981979
6.00927e-10
0.000981979
3.86969e-10
0.000981979
2.08635e-10
0.000981979
8.50031e-11
0.000981979
9.89221e-12
0.000981979
-3.74916e-11
0.000981979
-8.99074e-11
0.000981979
-1.55326e-10
0.000981979
-2.11988e-10
0.000981979
-2.21038e-10
0.000981979
-1.96149e-10
0.000981979
-1.62533e-10
0.000981979
-1.60344e-10
0.000981979
-1.65496e-10
0.000981979
-1.83332e-10
0.000981979
-1.66886e-10
0.000981979
-1.87538e-10
0.000981979
-1.42232e-10
0.000981979
-2.19218e-10
0.000981979
-1.23004e-10
0.000981979
-2.59921e-10
-7.72857e-10
0.00103336
-2.26994e-10
0.00103336
4.62599e-11
0.00103336
-1.26429e-10
0.00103336
-3.56512e-10
0.00103336
-4.58545e-10
0.00103336
-4.62066e-10
0.00103336
-4.04985e-10
0.00103336
-2.80062e-10
0.00103336
-6.10981e-11
0.00103336
2.47319e-10
0.00103336
5.4626e-10
0.00103336
6.5788e-10
0.00103336
5.06061e-10
0.00103336
3.2732e-10
0.00103336
3.57314e-10
0.00103336
5.38993e-10
0.00103336
7.05009e-10
0.00103336
7.24856e-10
0.00103336
5.89718e-10
0.00103336
3.96547e-10
0.00103336
2.24621e-10
0.00103336
9.85405e-11
0.00103336
1.84368e-11
0.00103336
-3.5149e-11
0.00103336
-9.36109e-11
0.00103336
-1.62616e-10
0.00103336
-2.18491e-10
0.00103336
-2.26735e-10
0.00103336
-1.98452e-10
0.00103336
-1.63596e-10
0.00103336
-1.61196e-10
0.00103336
-1.71193e-10
0.00103336
-1.91209e-10
0.00103336
-1.81206e-10
0.00103336
-1.96455e-10
0.00103336
-1.63034e-10
0.00103336
-2.31057e-10
0.00103336
-1.44961e-10
0.00103336
-3.79324e-10
-6.90157e-10
0.00108429
5.52207e-12
0.00108429
1.05546e-10
0.00108429
-1.2347e-10
0.00108429
-3.15257e-10
0.00108429
-3.88636e-10
0.00108429
-3.78581e-10
0.00108429
-3.13139e-10
0.00108429
-1.86898e-10
0.00108429
2.35097e-11
0.00108429
3.07741e-10
0.00108429
5.59909e-10
0.00108429
6.08971e-10
0.00108429
3.9519e-10
0.00108429
1.6586e-10
0.00108429
1.69775e-10
0.00108429
3.63183e-10
0.00108429
5.73334e-10
0.00108429
6.48222e-10
0.00108429
5.57046e-10
0.00108429
3.91465e-10
0.00108429
2.32878e-10
0.00108429
1.09771e-10
0.00108429
2.84773e-11
0.00108429
-3.00824e-11
0.00108429
-9.20329e-11
0.00108429
-1.61345e-10
0.00108429
-2.17397e-10
0.00108429
-2.2615e-10
0.00108429
-1.94858e-10
0.00108429
-1.58775e-10
0.00108429
-1.5659e-10
0.00108429
-1.71205e-10
0.00108429
-1.91869e-10
0.00108429
-1.88594e-10
0.00108429
-1.98753e-10
0.00108429
-1.78852e-10
0.00108429
-2.31109e-10
0.00108429
-1.71438e-10
0.00108429
-4.38036e-10
-5.33328e-10
0.00113533
1.85531e-10
0.00113533
1.49173e-10
0.00113533
-1.07024e-10
0.00113533
-2.67701e-10
0.00113533
-3.21047e-10
0.00113533
-3.02572e-10
0.00113533
-2.32689e-10
0.00113533
-1.07726e-10
0.00113533
9.04943e-11
0.00113533
3.45628e-10
0.00113533
5.50336e-10
0.00113533
5.44312e-10
0.00113533
2.83411e-10
0.00113533
1.83621e-11
0.00113533
5.08058e-13
0.00113534
1.9747e-10
0.00113534
4.39189e-10
0.00113534
5.58123e-10
0.00113534
5.0943e-10
0.00113534
3.75509e-10
0.00113534
2.3476e-10
0.00113534
1.20262e-10
0.00113534
4.00155e-11
0.00113534
-2.13349e-11
0.00113534
-8.48659e-11
0.00113534
-1.55244e-10
0.00113534
-2.11015e-10
0.00113534
-2.19788e-10
0.00113534
-1.87988e-10
0.00113534
-1.50322e-10
0.00113534
-1.4653e-10
0.00113534
-1.63668e-10
0.00113534
-1.84936e-10
0.00113534
-1.88479e-10
0.00113534
-1.95312e-10
0.00113534
-1.87853e-10
0.00113534
-2.23002e-10
0.00113534
-1.91738e-10
0.00113534
-4.39432e-10
-3.52242e-10
0.00118689
3.11959e-10
0.00118689
1.84939e-10
0.00118689
-7.92061e-11
0.00118689
-2.16274e-10
0.00118689
-2.55707e-10
0.00118689
-2.32789e-10
0.00118689
-1.62286e-10
0.00118689
-4.24749e-11
0.00118689
1.39351e-10
0.00118689
3.6235e-10
0.00118689
5.20542e-10
0.00118689
4.6697e-10
0.00118689
1.74438e-10
0.00118689
-1.10954e-10
0.00118689
-1.45207e-10
0.00118689
4.95166e-11
0.00118689
3.09464e-10
0.00118689
4.6236e-10
0.00118689
4.53627e-10
0.00118689
3.52588e-10
0.00118689
2.32271e-10
0.00118689
1.28469e-10
0.00118689
5.13748e-11
0.00118689
-1.12077e-11
0.00118689
-7.62292e-11
0.00118689
-1.46075e-10
0.00118689
-1.99559e-10
0.00118689
-2.08764e-10
0.00118689
-1.76478e-10
0.00118689
-1.37073e-10
0.00118689
-1.31233e-10
0.00118689
-1.49094e-10
0.00118689
-1.71543e-10
0.00118689
-1.81688e-10
0.00118689
-1.86748e-10
0.00118689
-1.88894e-10
0.00118689
-2.09184e-10
0.00118689
-1.99673e-10
0.00118689
-3.99704e-10
-1.82169e-10
0.00123923
3.89163e-10
0.00123923
2.09736e-10
0.00123923
-4.68164e-11
0.00123923
-1.63496e-10
0.00123923
-1.92404e-10
0.00123923
-1.67522e-10
0.00123923
-1.00023e-10
0.00123923
1.09175e-11
0.00123923
1.7308e-10
0.00123923
3.61289e-10
0.00123923
4.74652e-10
0.00123923
3.82131e-10
0.00123923
7.217e-11
0.00123923
-2.19854e-10
0.00123923
-2.6493e-10
0.00123923
-7.72908e-11
0.00123923
1.89003e-10
0.00123923
3.67065e-10
0.00123923
3.94397e-10
0.00123923
3.24747e-10
0.00123923
2.25543e-10
0.00123923
1.33012e-10
0.00123923
6.0579e-11
0.00123923
-2.11777e-12
0.00123923
-6.66062e-11
0.00123923
-1.32492e-10
0.00123923
-1.83047e-10
0.00123923
-1.92811e-10
0.00123923
-1.60233e-10
0.00123923
-1.1983e-10
0.00123923
-1.11963e-10
0.00123923
-1.29805e-10
0.00123923
-1.53524e-10
0.00123923
-1.68887e-10
0.00123923
-1.73792e-10
0.00123923
-1.82308e-10
0.00123923
-1.91281e-10
0.00123923
-1.94147e-10
0.00123923
-3.33891e-10
-3.84096e-11
0.0012926
4.24093e-10
0.0012926
2.23212e-10
0.0012926
-1.3658e-11
0.0012926
-1.10824e-10
0.0012926
-1.31362e-10
0.0012926
-1.06631e-10
0.0012926
-4.40632e-11
0.0012926
5.51821e-11
0.0012926
1.94444e-10
0.0012926
3.46277e-10
0.0012926
4.17214e-10
0.0012926
2.94645e-10
0.0012926
-1.94786e-11
0.0012926
-3.06334e-10
0.0012926
-3.57464e-10
0.0012926
-1.81514e-10
0.0012926
8.20359e-11
0.0012926
2.766e-10
0.0012926
3.33665e-10
0.0012926
2.92591e-10
0.0012926
2.14125e-10
0.0012926
1.34013e-10
0.0012926
6.71137e-11
0.0012926
6.82811e-12
0.0012926
-5.415e-11
0.0012926
-1.15278e-10
0.0012926
-1.627e-10
0.0012926
-1.72018e-10
0.0012926
-1.40839e-10
0.0012926
-1.01316e-10
0.0012926
-9.07632e-11
0.0012926
-1.07854e-10
0.0012926
-1.32299e-10
0.0012926
-1.51192e-10
0.0012926
-1.5745e-10
0.0012926
-1.69762e-10
0.0012926
-1.7057e-10
0.0012926
-1.77018e-10
0.0012926
-2.57859e-10
7.03625e-11
0.00134714
4.26869e-10
0.00134714
2.2762e-10
0.00134714
1.7538e-11
0.00134714
-6.13138e-11
0.00134714
-7.4797e-11
0.00134714
-5.10049e-11
0.00134714
4.93084e-12
0.00134714
9.07185e-11
0.00134714
2.0565e-10
0.00134714
3.21003e-10
0.00134714
3.53524e-10
0.00134714
2.09796e-10
0.00134714
-9.66649e-11
0.00134714
-3.68586e-10
0.00134714
-4.22352e-10
0.00134714
-2.61639e-10
0.00134714
-8.49248e-12
0.00134714
1.9307e-10
0.00134714
2.72407e-10
0.00134714
2.5705e-10
0.00134714
1.98881e-10
0.00134714
1.31837e-10
0.00134714
7.21901e-11
0.00134714
1.65885e-11
0.00134714
-4.00138e-11
0.00134714
-9.63617e-11
0.00134714
-1.39831e-10
0.00134714
-1.48733e-10
0.00134714
-1.20027e-10
0.00134714
-8.22556e-11
0.00134714
-6.97681e-11
0.00134714
-8.49524e-11
0.00134714
-1.09072e-10
0.00134714
-1.3044e-10
0.00134714
-1.38362e-10
0.00134714
-1.52072e-10
0.00134714
-1.47636e-10
0.00134714
-1.51541e-10
0.00134714
-1.84986e-10
1.41233e-10
0.00140299
4.07087e-10
0.00140299
2.22972e-10
0.00140299
4.26314e-11
0.00140299
-1.90292e-11
0.00140299
-2.60602e-11
0.00140299
-3.47703e-12
0.00140299
4.49245e-11
0.00140299
1.16603e-10
0.00140299
2.0746e-10
0.00140299
2.88413e-10
0.00140299
2.88242e-10
0.00140299
1.33148e-10
0.00140299
-1.55255e-10
0.00140299
-4.05425e-10
0.00140299
-4.59541e-10
0.00140299
-3.16804e-10
0.00140299
-8.15673e-11
0.00140299
1.17808e-10
0.00140299
2.12963e-10
0.00140299
2.19556e-10
0.00140299
1.80253e-10
0.00140299
1.26877e-10
0.00140299
7.56638e-11
0.00140299
2.56474e-11
0.00140299
-2.60368e-11
0.00140299
-7.68163e-11
0.00140299
-1.15633e-10
0.00140299
-1.2431e-10
0.00140299
-9.85604e-11
0.00140299
-6.3199e-11
0.00140299
-4.96667e-11
0.00140299
-6.19667e-11
0.00140299
-8.4764e-11
0.00140299
-1.07267e-10
0.00140299
-1.16755e-10
0.00140299
-1.30511e-10
0.00140299
-1.23059e-10
0.00140299
-1.22095e-10
0.00140299
-1.22335e-10
1.79893e-10
0.00146024
3.72449e-10
0.00146024
2.0992e-10
0.00146024
5.91595e-11
0.00146024
1.3188e-11
0.00146024
1.1864e-11
0.00146024
3.2852e-11
0.00146024
7.38033e-11
0.00146024
1.31517e-10
0.00146024
1.99431e-10
0.00146024
2.50174e-10
0.00146024
2.2532e-10
0.00146024
6.94838e-11
0.00146024
-1.92455e-10
0.00146024
-4.16328e-10
0.00146024
-4.69342e-10
0.00146024
-3.47083e-10
0.00146024
-1.36267e-10
0.00146024
5.32538e-11
0.00146024
1.5707e-10
0.00146024
1.80679e-10
0.00146024
1.58333e-10
0.00146024
1.1842e-10
0.00146024
7.59827e-11
0.00146024
3.23469e-11
0.00146024
-1.32323e-11
0.00146024
-5.7437e-11
0.00146024
-9.11649e-11
0.00146024
-9.90529e-11
0.00146024
-7.62927e-11
0.00146024
-4.42281e-11
0.00146024
-2.99293e-11
0.00146024
-3.90443e-11
0.00146024
-5.98367e-11
0.00146024
-8.22068e-11
0.00146024
-9.33437e-11
0.00146024
-1.06992e-10
0.00146024
-9.84377e-11
0.00146024
-9.27941e-11
0.00146024
-7.31262e-11
1.93349e-10
0.00151898
3.28196e-10
0.00151898
1.89862e-10
0.00151898
6.66828e-11
0.00151898
3.40384e-11
0.00151898
3.70698e-11
0.00151898
5.61366e-11
0.00151898
8.96625e-11
0.00151898
1.33994e-10
0.00151898
1.81525e-10
0.00151898
2.08221e-10
0.00151898
1.68436e-10
0.00151898
2.17605e-11
0.00151898
-2.07437e-10
0.00151898
-4.01774e-10
0.00151898
-4.52584e-10
0.00151898
-3.52775e-10
0.00151898
-1.71452e-10
0.00151898
9.00845e-13
0.00151898
1.05595e-10
0.00151898
1.40886e-10
0.00151898
1.32977e-10
0.00151898
1.05423e-10
0.00151898
7.21272e-11
0.00151898
3.58576e-11
0.00151898
-2.38744e-12
0.00151898
-3.91769e-11
0.00151898
-6.69364e-11
0.00151898
-7.31904e-11
0.00151898
-5.32995e-11
0.00151898
-2.47124e-11
0.00151898
-1.03338e-11
0.00151898
-1.67299e-11
0.00151898
-3.52658e-11
0.00151898
-5.68356e-11
0.00151898
-6.96775e-11
0.00151898
-8.3058e-11
0.00151898
-7.50756e-11
0.00151898
-6.66574e-11
0.00151898
-3.78325e-11
1.87847e-10
0.00157925
2.77047e-10
0.00157925
1.6353e-10
0.00157925
6.55485e-11
0.00157925
4.35745e-11
0.00157925
4.92463e-11
0.00157925
6.56843e-11
0.00157925
9.17868e-11
0.00157925
1.24004e-10
0.00157925
1.54882e-10
0.00157925
1.6499e-10
0.00157925
1.19785e-10
0.00157925
-9.40745e-12
0.00157925
-2.00984e-10
0.00157925
-3.63514e-10
0.00157925
-4.11094e-10
0.00157925
-3.34931e-10
0.00157925
-1.87016e-10
0.00157925
-3.86553e-11
0.00157925
5.961e-11
0.00157925
1.01138e-10
0.00157925
1.0428e-10
0.00157925
8.77407e-11
0.00157925
6.37397e-11
0.00157925
3.58299e-11
0.00157925
5.96317e-12
0.00157925
-2.26087e-11
0.00157925
-4.36253e-11
0.00157925
-4.73461e-11
0.00157925
-2.98645e-11
0.00157925
-4.98096e-12
0.00157925
8.49885e-12
0.00157925
4.00592e-12
0.00157925
-1.23449e-11
0.00157925
-3.27834e-11
0.00157925
-4.67445e-11
0.00157925
-5.97508e-11
0.00157925
-5.3946e-11
0.00157925
-4.51468e-11
0.00157925
-1.47652e-11
1.6863e-10
0.00164112
2.19432e-10
0.00164112
1.31155e-10
0.00164112
5.67877e-11
0.00164112
4.30667e-11
0.00164112
4.94493e-11
0.00164112
6.2366e-11
0.00164112
8.12467e-11
0.00164112
1.03117e-10
0.00164112
1.21615e-10
0.00164112
1.22139e-10
0.00164112
7.96889e-11
0.00164112
-2.52619e-11
0.00164112
-1.75617e-10
0.00164112
-3.0463e-10
0.00164112
-3.4788e-10
0.00164112
-2.95746e-10
0.00164112
-1.84066e-10
0.00164112
-6.5347e-11
0.00164112
1.98961e-11
0.00164112
6.22679e-11
0.00164112
7.30437e-11
0.00164112
6.61225e-11
0.00164112
5.13284e-11
0.00164112
3.24374e-11
0.00164112
1.16461e-11
0.00164112
-8.17029e-12
0.00164112
-2.18668e-11
0.00164112
-2.22873e-11
0.00164112
-6.86646e-12
0.00164112
1.40746e-11
0.00164112
2.58366e-11
0.00164112
2.26696e-11
0.00164112
8.49748e-12
0.00164112
-1.02518e-11
0.00164112
-2.47931e-11
0.00164112
-3.76974e-11
0.00164112
-3.53485e-11
0.00164112
-2.84037e-11
0.00164112
-2.09377e-12
1.38449e-10
0.0017046
1.54669e-10
0.0017046
9.32978e-11
0.0017046
4.24037e-11
0.0017046
3.47867e-11
0.0017046
3.98869e-11
0.0017046
4.85142e-11
0.0017046
6.0543e-11
0.0017046
7.37195e-11
0.0017046
8.34796e-11
0.0017046
8.0036e-11
0.0017046
4.69166e-11
0.0017046
-2.84225e-11
0.0017046
-1.34882e-10
0.0017046
-2.29072e-10
0.0017046
-2.66931e-10
0.0017046
-2.38649e-10
0.0017046
-1.65027e-10
0.0017046
-8.01775e-11
0.0017046
-1.34461e-11
0.0017046
2.51124e-11
0.0017046
4.0581e-11
0.0017046
4.17291e-11
0.0017046
3.57564e-11
0.0017046
2.60546e-11
0.0017046
1.46868e-11
0.0017046
4.04254e-12
0.0017046
-1.98452e-12
0.0017046
1.29525e-12
0.0017046
1.51639e-11
0.0017046
3.20664e-11
0.0017046
4.19043e-11
0.0017046
3.9758e-11
0.0017046
2.78144e-11
0.0017046
1.10485e-11
0.0017046
-3.8539e-12
0.0017046
-1.72248e-11
0.0017046
-1.93349e-11
0.0017046
-1.63628e-11
0.0017046
1.64075e-12
9.84674e-11
0.0017697
8.1758e-11
0.0017697
5.11078e-11
0.0017697
2.50466e-11
0.0017697
2.13442e-11
0.0017697
2.32813e-11
0.0017697
2.70216e-11
0.0017697
3.24289e-11
0.0017697
3.80247e-11
0.0017697
4.15666e-11
0.0017697
3.82403e-11
0.0017697
1.94189e-11
0.0017697
-2.21681e-11
0.0017697
-8.26613e-11
0.0017697
-1.41103e-10
0.0017697
-1.72888e-10
0.0017697
-1.6828e-10
0.0017697
-1.33675e-10
0.0017697
-8.53309e-11
0.0017697
-4.0821e-11
0.0017697
-9.57089e-12
0.0017697
8.02454e-12
0.0017697
1.57197e-11
0.0017697
1.7906e-11
0.0017697
1.72062e-11
0.0017697
1.5375e-11
0.0017697
1.4246e-11
0.0017697
1.6205e-11
0.0017697
2.37659e-11
0.0017697
3.66722e-11
0.0017697
4.99388e-11
0.0017697
5.75405e-11
0.0017697
5.60371e-11
0.0017697
4.62237e-11
0.0017697
3.12696e-11
0.0017697
1.59514e-11
0.0017697
1.51303e-12
0.0017697
-5.78853e-12
0.0017697
-8.48165e-12
0.0017697
-1.52279e-12
4.94641e-11
0.0018364
4.78411e-13
0.0018364
5.61009e-12
0.0018364
6.95265e-12
0.0018364
4.84787e-12
0.0018364
2.1838e-12
0.0018364
6.9271e-13
0.0018364
-4.57493e-13
0.0018364
-1.93346e-12
0.0018364
-3.24673e-12
0.0018364
-3.98235e-12
0.0018364
-5.24528e-12
0.0018364
-1.00868e-11
0.0018364
-2.29068e-11
0.0018364
-4.51609e-11
0.0018364
-7.10071e-11
0.0018364
-9.034e-11
0.0018364
-9.5171e-11
0.0018364
-8.41726e-11
0.0018364
-6.34418e-11
0.0018364
-4.14602e-11
0.0018364
-2.35571e-11
0.0018364
-1.06867e-11
0.0018364
-1.15421e-12
0.0018364
6.77166e-12
0.0018364
1.44915e-11
0.0018364
2.31812e-11
0.0018364
3.35968e-11
0.0018364
4.60715e-11
0.0018364
5.87803e-11
0.0018364
6.86174e-11
0.0018364
7.36676e-11
0.0018364
7.23771e-11
0.0018364
6.41785e-11
0.0018364
5.06891e-11
0.0018364
3.47124e-11
0.0018364
1.89154e-11
0.0018364
5.95861e-12
0.0018364
-3.4136e-12
0.0018364
-8.71186e-12
-6.6323e-12
0.0018364
-8.12379e-11
0.0018364
-3.98952e-11
0.0018364
-1.1415e-11
0.0018364
-1.24255e-11
0.0018364
-1.97323e-11
0.0018364
-2.62565e-11
0.0018364
-3.37738e-11
0.0018364
-4.22017e-11
0.0018364
-4.81821e-11
0.0018364
-4.59115e-11
0.0018364
-2.90272e-11
0.0018364
3.33812e-12
0.0018364
3.77962e-11
0.0018364
5.0262e-11
0.0018364
2.89796e-11
0.0018364
-1.44239e-11
0.0018364
-5.72686e-11
0.0018364
-8.12729e-11
0.0018364
-8.26467e-11
0.0018364
-6.96091e-11
0.0018364
-5.21299e-11
0.0018364
-3.52158e-11
0.0018364
-1.93002e-11
0.0018364
-3.59426e-12
0.0018364
1.31778e-11
0.0018364
3.15108e-11
0.0018364
5.043e-11
0.0018364
6.82745e-11
0.0018364
8.14226e-11
0.0018364
8.82727e-11
0.0018364
9.05668e-11
0.0018364
8.87696e-11
0.0018364
8.15e-11
0.0018364
6.89871e-11
0.0018364
5.21003e-11
0.0018364
3.4917e-11
0.0018364
1.63265e-11
0.0018364
3.58642e-13
0.0018364
-1.73591e-11
-6.41049e-11
0.0017697
-1.55232e-10
0.0017697
-8.21869e-11
0.0017697
-2.968e-11
0.0017697
-2.78283e-11
0.0017697
-3.82268e-11
0.0017697
-4.89529e-11
0.0017697
-6.25665e-11
0.0017697
-7.83559e-11
0.0017697
-9.01303e-11
0.0017697
-8.66261e-11
0.0017697
-5.37567e-11
0.0017697
1.36739e-11
0.0017697
9.28914e-11
0.0017697
1.36946e-10
0.0017697
1.17957e-10
0.0017697
5.06103e-11
0.0017697
-2.71046e-11
0.0017697
-8.10693e-11
0.0017697
-1.00037e-10
0.0017697
-9.36746e-11
0.0017697
-7.64109e-11
0.0017697
-5.61295e-11
0.0017697
-3.49713e-11
0.0017697
-1.26385e-11
0.0017697
1.22584e-11
0.0017697
3.94688e-11
0.0017697
6.65738e-11
0.0017697
9.0112e-11
0.0017697
1.04351e-10
0.0017697
1.08507e-10
0.0017697
1.07658e-10
0.0017697
1.04704e-10
0.0017697
9.77992e-11
0.0017697
8.57937e-11
0.0017697
6.77527e-11
0.0017697
4.95088e-11
0.0017697
2.5956e-11
0.0017697
4.66926e-12
0.0017697
-2.46391e-11
-1.16969e-10
0.0017046
-2.21471e-10
0.0017046
-1.20127e-10
0.0017046
-4.54011e-11
0.0017046
-3.84306e-11
0.0017046
-4.96548e-11
0.0017046
-6.34624e-11
0.0017046
-8.32407e-11
0.0017046
-1.07567e-10
0.0017046
-1.27479e-10
0.0017046
-1.26247e-10
0.0017046
-8.13442e-11
0.0017046
1.78251e-11
0.0017046
1.38871e-10
0.0017046
2.11255e-10
0.0017046
1.92009e-10
0.0017046
1.00682e-10
0.0017046
-8.42742e-12
0.0017046
-8.63107e-11
0.0017046
-1.17374e-10
0.0017046
-1.14713e-10
0.0017046
-9.67402e-11
0.0017046
-7.33699e-11
0.0017046
-4.78117e-11
0.0017046
-1.98824e-11
0.0017046
1.19182e-11
0.0017046
4.6968e-11
0.0017046
8.19894e-11
0.0017046
1.11668e-10
0.0017046
1.27557e-10
0.0017046
1.28861e-10
0.0017046
1.24243e-10
0.0017046
1.19703e-10
0.0017046
1.12774e-10
0.0017046
1.01059e-10
0.0017046
8.18826e-11
0.0017046
6.32362e-11
0.0017046
3.5828e-11
0.0017046
1.11236e-11
0.0017046
-2.74709e-11
-1.62923e-10
0.00164112
-2.81468e-10
0.00164112
-1.51796e-10
0.00164112
-5.53271e-11
0.00164112
-4.0868e-11
0.00164112
-5.05651e-11
0.00164112
-6.64304e-11
0.00164112
-9.27379e-11
0.00164112
-1.27193e-10
0.00164112
-1.58441e-10
0.00164112
-1.64337e-10
0.00164112
-1.12839e-10
0.00164112
1.35991e-11
0.00164112
1.73004e-10
0.00164112
2.70403e-10
0.00164112
2.48445e-10
0.00164112
1.33344e-10
0.00164112
-3.03174e-12
0.00164112
-9.83012e-11
0.00164112
-1.35837e-10
0.00164112
-1.33714e-10
0.00164112
-1.13684e-10
0.00164112
-8.69065e-11
0.00164112
-5.75223e-11
0.00164112
-2.52868e-11
0.00164112
1.18975e-11
0.00164112
5.36088e-11
0.00164112
9.61352e-11
0.00164112
1.3222e-10
0.00164112
1.50055e-10
0.00164112
1.48265e-10
0.00164112
1.39251e-10
0.00164112
1.3273e-10
0.00164112
1.25443e-10
0.00164112
1.14209e-10
0.00164112
9.42969e-11
0.00164112
7.62728e-11
0.00164112
4.64748e-11
0.00164112
2.07332e-11
0.00164112
-2.32091e-11
-2.00885e-10
0.00157926
-3.35956e-10
0.00157926
-1.76903e-10
0.00157926
-5.64289e-11
0.00157926
-3.25239e-11
0.00157926
-3.85399e-11
0.00157926
-5.56383e-11
0.00157926
-8.88918e-11
0.00157926
-1.35233e-10
0.00157926
-1.81564e-10
0.00157926
-2.00203e-10
0.00157926
-1.4841e-10
0.00157926
-1.71027e-13
0.00157926
1.93528e-10
0.00157926
3.12638e-10
0.00157926
2.85804e-10
0.00157926
1.47647e-10
0.00157926
-1.13399e-11
0.00157926
-1.17458e-10
0.00157926
-1.56053e-10
0.00157926
-1.51352e-10
0.00157926
-1.27581e-10
0.00157926
-9.67314e-11
0.00157926
-6.42707e-11
0.00157926
-2.91835e-11
0.00157926
1.17631e-11
0.00157926
5.87812e-11
0.00157926
1.0793e-10
0.00157926
1.5033e-10
0.00157926
1.70729e-10
0.00157926
1.6543e-10
0.00157926
1.51001e-10
0.00157926
1.4236e-10
0.00157926
1.34964e-10
0.00157926
1.24655e-10
0.00157926
1.04538e-10
0.00157926
8.84766e-11
0.00157926
5.82307e-11
0.00157926
3.44097e-11
0.00157926
-9.51756e-12
-2.2926e-10
0.00151898
-3.83672e-10
0.00151898
-1.94342e-10
0.00151898
-4.79514e-11
0.00151898
-1.28279e-11
0.00151898
-1.27579e-11
0.00151898
-3.04924e-11
0.00151898
-7.09729e-11
0.00151898
-1.31006e-10
0.00151898
-1.96276e-10
0.00151898
-2.3306e-10
0.00151898
-1.87439e-10
0.00151898
-2.35081e-11
0.00151898
2.00183e-10
0.00151898
3.37552e-10
0.00151898
3.03693e-10
0.00151898
1.43695e-10
0.00151898
-3.29506e-11
0.00151898
-1.43419e-10
0.00151898
-1.78354e-10
0.00151898
-1.67977e-10
0.00151898
-1.38376e-10
0.00151898
-1.03277e-10
0.00151898
-6.86562e-11
0.00151898
-3.23127e-11
0.00151898
1.06391e-11
0.00151898
6.11339e-11
0.00151898
1.15996e-10
0.00151898
1.64947e-10
0.00151898
1.88403e-10
0.00151898
1.7889e-10
0.00151898
1.58081e-10
0.00151898
1.47715e-10
0.00151898
1.40915e-10
0.00151898
1.31982e-10
0.00151898
1.12714e-10
0.00151898
1.0029e-10
0.00151898
7.15748e-11
0.00151898
5.21961e-11
0.00151898
1.50437e-11
-2.46011e-10
0.00146024
-4.22869e-10
0.00146024
-2.04965e-10
0.00146024
-3.08332e-11
0.00146024
1.82184e-11
0.00146024
2.51452e-11
0.00146024
7.68878e-12
0.00146024
-4.01494e-11
0.00146024
-1.15396e-10
0.00146024
-2.02451e-10
0.00146024
-2.61745e-10
0.00146024
-2.27946e-10
0.00146024
-5.41245e-11
0.00146024
1.94272e-10
0.00146024
3.45448e-10
0.00146024
3.02372e-10
0.00146024
1.22312e-10
0.00146024
-6.64874e-11
0.00146024
-1.75877e-10
0.00146024
-2.02874e-10
0.00146024
-1.83255e-10
0.00146024
-1.46515e-10
0.00146024
-1.07388e-10
0.00146024
-7.1525e-11
0.00146024
-3.52712e-11
0.00146024
7.58655e-12
0.00146024
5.98645e-11
0.00146024
1.19403e-10
0.00146024
1.74672e-10
0.00146024
2.01317e-10
0.00146024
1.86442e-10
0.00146024
1.59753e-10
0.00146024
1.48713e-10
0.00146024
1.4263e-10
0.00146024
1.36598e-10
0.00146024
1.19644e-10
0.00146024
1.11692e-10
0.00146024
8.65136e-11
0.00146024
7.30196e-11
0.00146024
5.23856e-11
-2.46016e-10
0.00140299
-4.49237e-10
0.00140299
-2.0977e-10
0.00140299
-8.53403e-12
0.00140299
5.70736e-11
0.00140299
7.27278e-11
0.00140299
5.63321e-11
0.00140299
1.19675e-12
0.00140299
-8.94987e-11
0.00140299
-1.99086e-10
0.00140299
-2.83401e-10
0.00140299
-2.6603e-10
0.00140299
-8.85937e-11
0.00140299
1.77493e-10
0.00140299
3.3683e-10
0.00140299
2.82278e-10
0.00140299
8.49756e-11
0.00140299
-1.10406e-10
0.00140299
-2.13848e-10
0.00140299
-2.28932e-10
0.00140299
-1.97624e-10
0.00140299
-1.52918e-10
0.00140299
-1.09811e-10
0.00140299
-7.29182e-11
0.00140299
-3.80967e-11
0.00140299
2.1534e-12
0.00140299
5.41898e-11
0.00140299
1.16701e-10
0.00140299
1.77895e-10
0.00140299
2.07461e-10
0.00140299
1.87426e-10
0.00140299
1.5558e-10
0.00140299
1.43937e-10
0.00140299
1.40291e-10
0.00140299
1.38742e-10
0.00140299
1.25142e-10
0.00140299
1.2196e-10
0.00140299
1.02091e-10
0.00140299
9.50933e-11
0.00140299
1.0407e-10
-2.22933e-10
0.00134714
-4.58916e-10
0.00134714
-2.12254e-10
0.00134714
1.55228e-11
0.00134714
1.01143e-10
0.00134714
1.27548e-10
0.00134714
1.12921e-10
0.00134714
5.17258e-11
0.00134714
-5.27198e-11
0.00134714
-1.83741e-10
0.00134714
-2.93952e-10
0.00134714
-2.97348e-10
0.00134714
-1.23797e-10
0.00134714
1.51506e-10
0.00134714
3.123e-10
0.00134714
2.44203e-10
0.00134714
3.33083e-11
0.00134714
-1.63236e-10
0.00134714
-2.55525e-10
0.00134714
-2.55581e-10
0.00134714
-2.11477e-10
0.00134714
-1.57416e-10
0.00134714
-1.09837e-10
0.00134714
-7.29051e-11
0.00134714
-4.20577e-11
0.00134714
-6.33822e-12
0.00134714
4.30999e-11
0.00134714
1.07175e-10
0.00134714
1.74176e-10
0.00134714
2.05731e-10
0.00134714
1.81047e-10
0.00134714
1.43906e-10
0.00134714
1.32252e-10
0.00134714
1.3416e-10
0.00134714
1.37834e-10
0.00134714
1.29037e-10
0.00134714
1.30192e-10
0.00134714
1.17501e-10
0.00134714
1.15047e-10
0.00134714
1.66856e-10
-1.71087e-10
0.0012926
-4.46784e-10
0.0012926
-2.12536e-10
0.0012926
3.89732e-11
0.0012926
1.48223e-10
0.0012926
1.87665e-10
0.0012926
1.76703e-10
0.0012926
1.12242e-10
0.0012926
-2.96371e-12
0.0012926
-1.53398e-10
0.0012926
-2.89975e-10
0.0012926
-3.17857e-10
0.0012926
-1.56077e-10
0.0012926
1.18049e-10
0.0012926
2.72295e-10
0.0012926
1.89036e-10
0.0012926
-3.13243e-11
0.0012926
-2.22953e-10
0.0012926
-3.00104e-10
0.0012926
-2.8281e-10
0.0012926
-2.23512e-10
0.0012926
-1.59529e-10
0.0012926
-1.07184e-10
0.0012926
-7.15783e-11
0.0012926
-4.67452e-11
0.0012926
-1.73893e-11
0.0012926
2.68608e-11
0.0012926
9.04588e-11
0.0012926
1.6114e-10
0.0012926
1.94295e-10
0.0012926
1.64713e-10
0.0012926
1.23444e-10
0.0012926
1.1523e-10
0.0012926
1.24256e-10
0.0012926
1.33691e-10
0.0012926
1.31205e-10
0.0012926
1.34153e-10
0.0012926
1.31689e-10
0.0012926
1.26986e-10
0.0012926
2.30639e-10
-8.92237e-11
0.00123924
-4.0492e-10
0.00123924
-2.12879e-10
0.00123924
5.50408e-11
0.00123924
1.93201e-10
0.00123924
2.50734e-10
0.00123924
2.4798e-10
0.00123924
1.84494e-10
0.00123924
6.19301e-11
0.00123924
-1.05478e-10
0.00123924
-2.67974e-10
0.00123924
-3.23716e-10
0.00123924
-1.82784e-10
0.00123924
7.79772e-11
0.00123924
2.16726e-10
0.00123924
1.17155e-10
0.00123924
-1.07531e-10
0.00123924
-2.8888e-10
0.00123924
-3.47189e-10
0.00123924
-3.08906e-10
0.00123924
-2.32633e-10
0.00123924
-1.58474e-10
0.00123924
-1.02205e-10
0.00123924
-6.84494e-11
0.00123924
-5.03425e-11
0.00123924
-3.04756e-11
0.00123924
4.94026e-12
0.00123924
6.48349e-11
0.00123924
1.36979e-10
0.00123924
1.70767e-10
0.00123924
1.37238e-10
0.00123924
9.5812e-11
0.00123924
9.35565e-11
0.00123924
1.11026e-10
0.00123924
1.25888e-10
0.00123924
1.30411e-10
0.00123924
1.32828e-10
0.00123924
1.43364e-10
0.00123924
1.27566e-10
0.00123924
2.87525e-10
2.4867e-11
0.00118689
-3.20391e-10
0.00118689
-2.16673e-10
0.00118689
5.22457e-11
0.00118689
2.28229e-10
0.00118689
3.1355e-10
0.00118689
3.25913e-10
0.00118689
2.69049e-10
0.00118689
1.43319e-10
0.00118689
-3.79671e-11
0.00118689
-2.25101e-10
0.00118689
-3.13028e-10
0.00118689
-2.03625e-10
0.00118689
3.04763e-11
0.00118689
1.44839e-10
0.00118689
2.87003e-11
0.00118689
-1.94816e-10
0.00118689
-3.60406e-10
0.00118689
-3.94105e-10
0.00118689
-3.31699e-10
0.00118689
-2.38809e-10
0.00118689
-1.5383e-10
0.00118689
-9.44952e-11
0.00118689
-6.38543e-11
0.00118689
-5.38199e-11
0.00118689
-4.62101e-11
0.00118689
-2.23438e-11
0.00118689
3.13349e-11
0.00118689
1.02166e-10