/*--------------------------------*- C++ -*----------------------------------*\
  =========                 |
  \\      /  F ield         | OpenFOAM: The Open Source CFD Toolbox
   \\    /   O peration     | Website:  https://openfoam.org
    \\  /    A nd           | Version:  dev
     \\/     M anipulation  |

   OpenFOAM for Windows 20.09 (v1)
   Built by CFD Support, www.cfdsupport.com (based on Symscape).
\*---------------------------------------------------------------------------*/
FoamFile
{
    version     2.0;
    format      ascii;
    class       volVectorField;
    location    "30";
    object      U;
}
// * * * * * * * * * * * * * * * * * * * * * * * * * * * * * * * * * * * * * //

dimensions      [0 1 -1 0 0 0 0];

internalField   nonuniform List<vector> 
1600
(
(0.106079 -1.11e-08 0)
(0.106079 7.89003e-09 0)
(0.106079 2.31965e-08 0)
(0.106079 2.95212e-08 0)
(0.106079 3.92513e-08 0)
(0.106079 4.65502e-08 0)
(0.10608 4.62961e-08 0)
(0.10608 4.06221e-08 0)
(0.10608 3.06695e-08 0)
(0.10608 1.9888e-08 0)
(0.10608 1.60386e-08 0)
(0.10608 5.30191e-09 0)
(0.10608 -3.52916e-08 0)
(0.10608 -8.16821e-08 0)
(0.106079 -8.61427e-08 0)
(0.106079 -6.25439e-08 0)
(0.106079 -3.15799e-08 0)
(0.106079 -7.29158e-09 0)
(0.106079 3.71741e-09 0)
(0.106079 5.0829e-09 0)
(0.106079 3.67415e-09 0)
(0.106079 2.99411e-09 0)
(0.106079 2.90702e-09 0)
(0.106079 2.72536e-09 0)
(0.106079 1.24984e-09 0)
(0.106079 -3.29222e-09 0)
(0.106079 -8.08651e-09 0)
(0.106079 -6.68084e-09 0)
(0.106079 -2.89812e-09 0)
(0.106079 -8.98952e-10 0)
(0.106079 -2.54007e-11 0)
(0.106079 -2.67511e-11 0)
(0.106079 2.26768e-10 0)
(0.106079 4.24704e-10 0)
(0.106079 9.74149e-10 0)
(0.106079 3.13164e-10 0)
(0.106079 2.02561e-09 0)
(0.106079 -1.03927e-09 0)
(0.106079 7.84655e-09 0)
(0.106079 3.98155e-09 0)
(0.113189 -3.6211e-08 0)
(0.113189 -2.14786e-08 0)
(0.113189 -1.83658e-08 0)
(0.113189 -3.77904e-08 0)
(0.113189 -5.31775e-08 0)
(0.113189 -5.86016e-08 0)
(0.113189 -5.71104e-08 0)
(0.113189 -4.98514e-08 0)
(0.113189 -3.63472e-08 0)
(0.113189 -1.65591e-08 0)
(0.113189 5.69812e-09 0)
(0.113189 2.73004e-08 0)
(0.113189 5.32742e-08 0)
(0.113189 7.72083e-08 0)
(0.113189 8.59719e-08 0)
(0.113189 7.57771e-08 0)
(0.113189 5.67547e-08 0)
(0.113189 3.71849e-08 0)
(0.113189 2.12491e-08 0)
(0.113189 1.03036e-08 0)
(0.113189 3.70327e-09 0)
(0.113189 -1.09242e-10 0)
(0.113189 -2.13284e-09 0)
(0.113189 -2.86231e-09 0)
(0.113189 -3.20706e-09 0)
(0.113189 -3.32587e-09 0)
(0.113189 -3.13813e-09 0)
(0.113189 -3.05445e-09 0)
(0.113189 -3.40764e-09 0)
(0.113189 -3.35215e-09 0)
(0.113189 -3.94736e-09 0)
(0.113189 -4.23429e-09 0)
(0.113189 -4.98741e-09 0)
(0.113189 -4.35026e-09 0)
(0.113189 -4.90629e-09 0)
(0.113189 -4.05207e-09 0)
(0.113189 -3.66842e-09 0)
(0.113189 -7.27665e-09 0)
(0.113189 6.08315e-09 0)
(0.113189 -9.79216e-09 0)
(0.11743 -4.32378e-08 0)
(0.11743 -1.62428e-08 0)
(0.11743 -7.47977e-09 0)
(0.11743 -2.39763e-08 0)
(0.11743 -3.48921e-08 0)
(0.11743 -3.66862e-08 0)
(0.11743 -3.45914e-08 0)
(0.11743 -2.89959e-08 0)
(0.11743 -1.84033e-08 0)
(0.11743 -2.23414e-09 0)
(0.11743 1.59809e-08 0)
(0.11743 3.2541e-08 0)
(0.11743 3.79687e-08 0)
(0.11743 3.9445e-08 0)
(0.11743 4.50732e-08 0)
(0.11743 4.91416e-08 0)
(0.11743 4.6615e-08 0)
(0.11743 3.74021e-08 0)
(0.117429 2.50224e-08 0)
(0.117429 1.41061e-08 0)
(0.117429 6.55937e-09 0)
(0.117429 2.06389e-09 0)
(0.117429 -4.06267e-10 0)
(0.117429 -1.77673e-09 0)
(0.117429 -3.3648e-09 0)
(0.117429 -5.4355e-09 0)
(0.117429 -7.68799e-09 0)
(0.117429 -7.78528e-09 0)
(0.117429 -6.76128e-09 0)
(0.11743 -5.61547e-09 0)
(0.11743 -5.76312e-09 0)
(0.11743 -5.84761e-09 0)
(0.11743 -6.60581e-09 0)
(0.11743 -5.49381e-09 0)
(0.11743 -6.46213e-09 0)
(0.11743 -4.54682e-09 0)
(0.11743 -6.10589e-09 0)
(0.11743 -6.71988e-09 0)
(0.11743 4.67234e-09 0)
(0.11743 -2.28857e-08 0)
(0.12042 -4.05529e-08 0)
(0.12042 -1.00302e-08 0)
(0.12042 -5.43142e-09 0)
(0.12042 -2.12782e-08 0)
(0.12042 -3.09363e-08 0)
(0.12042 -3.26885e-08 0)
(0.12042 -3.07965e-08 0)
(0.12042 -2.51896e-08 0)
(0.120419 -1.44239e-08 0)
(0.120419 1.79472e-09 0)
(0.120419 2.07207e-08 0)
(0.120419 3.41553e-08 0)
(0.120419 3.54617e-08 0)
(0.120419 3.38235e-08 0)
(0.120419 3.82285e-08 0)
(0.12042 4.42701e-08 0)
(0.12042 4.5706e-08 0)
(0.12042 3.97301e-08 0)
(0.12042 2.84081e-08 0)
(0.120419 1.70672e-08 0)
(0.120419 8.56685e-09 0)
(0.120419 3.03131e-09 0)
(0.120419 -4.93491e-11 0)
(0.120419 -1.82445e-09 0)
(0.120419 -3.93409e-09 0)
(0.120419 -6.75567e-09 0)
(0.120419 -9.49045e-09 0)
(0.120419 -9.81988e-09 0)
(0.120419 -8.62952e-09 0)
(0.12042 -7.12426e-09 0)
(0.12042 -7.10585e-09 0)
(0.12042 -7.1482e-09 0)
(0.12042 -7.93021e-09 0)
(0.12042 -6.75771e-09 0)
(0.12042 -7.93962e-09 0)
(0.12042 -5.43177e-09 0)
(0.12042 -8.62362e-09 0)
(0.12042 -5.93272e-09 0)
(0.12042 -1.35207e-09 0)
(0.12042 -3.3914e-08 0)
(0.12269 -3.06629e-08 0)
(0.12269 -4.09241e-09 0)
(0.12269 -5.57883e-09 0)
(0.12269 -2.02209e-08 0)
(0.12269 -2.81601e-08 0)
(0.12269 -2.94801e-08 0)
(0.12269 -2.73776e-08 0)
(0.12269 -2.14861e-08 0)
(0.12269 -1.03398e-08 0)
(0.12269 6.14531e-09 0)
(0.12269 2.41051e-08 0)
(0.12269 3.45379e-08 0)
(0.12269 3.24783e-08 0)
(0.12269 2.82375e-08 0)
(0.12269 3.17279e-08 0)
(0.12269 3.91804e-08 0)
(0.12269 4.34294e-08 0)
(0.12269 4.0015e-08 0)
(0.12269 3.00719e-08 0)
(0.12269 1.89391e-08 0)
(0.12269 9.96395e-09 0)
(0.12269 3.83933e-09 0)
(0.12269 2.84925e-10 0)
(0.12269 -1.88167e-09 0)
(0.12269 -4.37915e-09 0)
(0.12269 -7.58243e-09 0)
(0.12269 -1.03978e-08 0)
(0.12269 -1.08091e-08 0)
(0.12269 -9.59154e-09 0)
(0.12269 -7.96485e-09 0)
(0.12269 -7.8497e-09 0)
(0.12269 -8.0359e-09 0)
(0.12269 -8.91787e-09 0)
(0.12269 -7.88496e-09 0)
(0.12269 -9.01633e-09 0)
(0.12269 -6.55687e-09 0)
(0.12269 -1.0453e-08 0)
(0.12269 -5.84542e-09 0)
(0.12269 -9.40158e-09 0)
(0.12269 -3.90619e-08 0)
(0.124485 -1.75803e-08 0)
(0.124485 6.22517e-10 0)
(0.124485 -6.2388e-09 0)
(0.124485 -1.89215e-08 0)
(0.124485 -2.48565e-08 0)
(0.124485 -2.53516e-08 0)
(0.124485 -2.27558e-08 0)
(0.124485 -1.65885e-08 0)
(0.124485 -5.42557e-09 0)
(0.124485 1.05351e-08 0)
(0.124485 2.65923e-08 0)
(0.124485 3.38402e-08 0)
(0.124485 2.80546e-08 0)
(0.124485 2.05461e-08 0)
(0.124485 2.27044e-08 0)
(0.124485 3.13415e-08 0)
(0.124485 3.84564e-08 0)
(0.124485 3.80008e-08 0)
(0.124485 3.00297e-08 0)
(0.124485 1.97643e-08 0)
(0.124485 1.09201e-08 0)
(0.124485 4.60064e-09 0)
(0.124485 7.0233e-10 0)
(0.124485 -1.84409e-09 0)
(0.124485 -4.65152e-09 0)
(0.124485 -7.99033e-09 0)
(0.124485 -1.08195e-08 0)
(0.124485 -1.1298e-08 0)
(0.124485 -9.93438e-09 0)
(0.124485 -8.21676e-09 0)
(0.124485 -8.14622e-09 0)
(0.124485 -8.55793e-09 0)
(0.124485 -9.45318e-09 0)
(0.124485 -8.77203e-09 0)
(0.124485 -9.68846e-09 0)
(0.124485 -7.6686e-09 0)
(0.124485 -1.1409e-08 0)
(0.124485 -6.63648e-09 0)
(0.124485 -1.65224e-08 0)
(0.124485 -3.73966e-08 0)
(0.125941 -4.86789e-09 0)
(0.125941 3.97018e-09 0)
(0.125941 -6.53051e-09 0)
(0.125941 -1.70372e-08 0)
(0.125941 -2.12361e-08 0)
(0.125941 -2.09954e-08 0)
(0.125941 -1.79259e-08 0)
(0.125941 -1.15646e-08 0)
(0.125941 -7.48216e-10 0)
(0.125941 1.41106e-08 0)
(0.125941 2.79154e-08 0)
(0.125941 3.19036e-08 0)
(0.125941 2.25835e-08 0)
(0.125941 1.21896e-08 0)
(0.125941 1.30038e-08 0)
(0.125941 2.24748e-08 0)
(0.125941 3.20597e-08 0)
(0.125941 3.44643e-08 0)
(0.125941 2.88006e-08 0)
(0.125941 1.98348e-08 0)
(0.125941 1.15135e-08 0)
(0.125941 5.2628e-09 0)
(0.125941 1.18681e-09 0)
(0.125941 -1.64587e-09 0)
(0.125941 -4.62811e-09 0)
(0.125941 -8.11623e-09 0)
(0.125941 -1.09784e-08 0)
(0.125941 -1.14145e-08 0)
(0.125941 -9.93511e-09 0)
(0.125941 -8.13688e-09 0)
(0.125941 -8.02608e-09 0)
(0.125941 -8.64696e-09 0)
(0.125941 -9.64082e-09 0)
(0.125941 -9.32342e-09 0)
(0.125941 -9.93621e-09 0)
(0.125941 -8.60179e-09 0)
(0.125941 -1.16555e-08 0)
(0.125941 -7.9278e-09 0)
(0.125941 -2.09672e-08 0)
(0.125941 -3.07834e-08 0)
(0.127145 5.55332e-09 0)
(0.127145 6.57503e-09 0)
(0.127145 -6.023e-09 0)
(0.127145 -1.47572e-08 0)
(0.127145 -1.77462e-08 0)
(0.127145 -1.69688e-08 0)
(0.127145 -1.35226e-08 0)
(0.127145 -7.19171e-09 0)
(0.127145 3.05059e-09 0)
(0.127145 1.65815e-08 0)
(0.127145 2.80188e-08 0)
(0.127145 2.89696e-08 0)
(0.127145 1.68851e-08 0)
(0.127145 4.35719e-09 0)
(0.127145 3.95507e-09 0)
(0.127145 1.38006e-08 0)
(0.127145 2.52475e-08 0)
(0.127145 3.01773e-08 0)
(0.127145 2.67819e-08 0)
(0.127145 1.92752e-08 0)
(0.127145 1.17462e-08 0)
(0.127145 5.8141e-09 0)
(0.127145 1.71559e-09 0)
(0.127145 -1.26701e-09 0)
(0.127145 -4.44215e-09 0)
(0.127145 -8.02387e-09 0)
(0.127145 -1.07743e-08 0)
(0.127145 -1.12025e-08 0)
(0.127145 -9.65363e-09 0)
(0.127145 -7.78074e-09 0)
(0.127145 -7.62137e-09 0)
(0.127145 -8.4062e-09 0)
(0.127145 -9.47138e-09 0)
(0.127145 -9.49639e-09 0)
(0.127145 -9.90143e-09 0)
(0.127145 -9.26117e-09 0)
(0.127145 -1.14195e-08 0)
(0.127145 -9.16448e-09 0)
(0.127145 -2.23872e-08 0)
(0.127145 -2.20205e-08 0)
(0.128157 1.31391e-08 0)
(0.128157 8.48485e-09 0)
(0.128157 -4.84565e-09 0)
(0.128157 -1.22081e-08 0)
(0.128157 -1.43983e-08 0)
(0.128157 -1.33039e-08 0)
(0.128157 -9.75044e-09 0)
(0.128157 -3.59354e-09 0)
(0.128157 5.93314e-09 0)
(0.128157 1.79345e-08 0)
(0.128157 2.69801e-08 0)
(0.128157 2.53467e-08 0)
(0.128157 1.13239e-08 0)
(0.128157 -2.60232e-09 0)
(0.128157 -3.96879e-09 0)
(0.128157 5.91073e-09 0)
(0.128157 1.85443e-08 0)
(0.128157 2.55023e-08 0)
(0.128157 2.41495e-08 0)
(0.128157 1.82809e-08 0)
(0.128157 1.17559e-08 0)
(0.128157 6.22504e-09 0)
(0.128157 2.30351e-09 0)
(0.128157 -8.41815e-10 0)
(0.128157 -4.10816e-09 0)
(0.128157 -7.56142e-09 0)
(0.128157 -1.03075e-08 0)
(0.128157 -1.08142e-08 0)
(0.128157 -9.13109e-09 0)
(0.128157 -7.19002e-09 0)
(0.128157 -6.9786e-09 0)
(0.128157 -7.85686e-09 0)
(0.128157 -8.9642e-09 0)
(0.128157 -9.32549e-09 0)
(0.128157 -9.58692e-09 0)
(0.128157 -9.49195e-09 0)
(0.128157 -1.08466e-08 0)
(0.128157 -9.89438e-09 0)
(0.128157 -2.12464e-08 0)
(0.128157 -1.29946e-08 0)
(0.129016 1.80143e-08 0)
(0.129016 9.92905e-09 0)
(0.129016 -3.23377e-09 0)
(0.129016 -9.51046e-09 0)
(0.129016 -1.11607e-08 0)
(0.129016 -9.92679e-09 0)
(0.129016 -6.43964e-09 0)
(0.129016 -6.50724e-10 0)
(0.129016 7.99002e-09 0)
(0.129016 1.82796e-08 0)
(0.129016 2.50154e-08 0)
(0.129016 2.12412e-08 0)
(0.129016 5.997e-09 0)
(0.129016 -8.56757e-09 0)
(0.129016 -1.05938e-08 0)
(0.129016 -1.00569e-09 0)
(0.129016 1.22557e-08 0)
(0.129016 2.0686e-08 0)
(0.129016 2.12354e-08 0)
(0.129016 1.69691e-08 0)
(0.129016 1.14808e-08 0)
(0.129016 6.56175e-09 0)
(0.129016 2.80674e-09 0)
(0.129016 -3.58548e-10 0)
(0.129016 -3.57984e-09 0)
(0.129016 -6.9781e-09 0)
(0.129016 -9.62052e-09 0)
(0.129016 -1.00656e-08 0)
(0.129016 -8.45441e-09 0)
(0.129016 -6.45509e-09 0)
(0.129016 -6.08123e-09 0)
(0.129016 -7.00123e-09 0)
(0.129016 -8.16081e-09 0)
(0.129016 -8.79986e-09 0)
(0.129016 -9.06184e-09 0)
(0.129016 -9.36061e-09 0)
(0.129016 -1.00458e-08 0)
(0.129016 -9.9708e-09 0)
(0.129016 -1.8362e-08 0)
(0.129016 -5.00058e-09 0)
(0.12975 2.07042e-08 0)
(0.12975 1.09862e-08 0)
(0.12975 -1.46589e-09 0)
(0.12975 -6.80203e-09 0)
(0.12975 -8.01862e-09 0)
(0.12975 -6.76912e-09 0)
(0.12975 -3.47233e-09 0)
(0.12975 1.80143e-09 0)
(0.12975 9.33015e-09 0)
(0.12975 1.78301e-08 0)
(0.12975 2.23562e-08 0)
(0.12975 1.68452e-08 0)
(0.12975 1.12509e-09 0)
(0.12975 -1.34411e-08 0)
(0.12975 -1.58974e-08 0)
(0.12975 -6.7966e-09 0)
(0.12975 6.56912e-09 0)
(0.12975 1.60046e-08 0)
(0.12975 1.81537e-08 0)
(0.12975 1.54555e-08 0)
(0.12975 1.10316e-08 0)
(0.12975 6.71129e-09 0)
(0.12975 3.21036e-09 0)
(0.12975 1.36144e-10 0)
(0.12975 -3.0063e-09 0)
(0.12975 -6.22983e-09 0)
(0.12975 -8.69215e-09 0)
(0.12975 -9.14517e-09 0)
(0.12975 -7.55159e-09 0)
(0.12975 -5.55781e-09 0)
(0.12975 -5.05951e-09 0)
(0.12975 -5.94988e-09 0)
(0.12975 -7.16157e-09 0)
(0.12975 -8.04559e-09 0)
(0.12975 -8.32252e-09 0)
(0.12975 -8.86561e-09 0)
(0.12975 -9.07719e-09 0)
(0.12975 -9.35058e-09 0)
(0.12975 -1.47544e-08 0)
(0.12975 1.19694e-09 0)
(0.130381 2.15493e-08 0)
(0.130381 1.14189e-08 0)
(0.130381 1.78563e-10 0)
(0.130381 -4.22085e-09 0)
(0.130381 -5.05172e-09 0)
(0.130381 -3.80524e-09 0)
(0.130381 -8.60585e-10 0)
(0.130381 3.77668e-09 0)
(0.130381 1.01568e-08 0)
(0.130381 1.6781e-08 0)
(0.130381 1.92839e-08 0)
(0.130381 1.24921e-08 0)
(0.130381 -3.12938e-09 0)
(0.130381 -1.71589e-08 0)
(0.130381 -1.98273e-08 0)
(0.130381 -1.13933e-08 0)
(0.130381 1.61259e-09 0)
(0.130381 1.15814e-08 0)
(0.130381 1.509e-08 0)
(0.130381 1.37605e-08 0)
(0.130381 1.03652e-08 0)
(0.130381 6.68888e-09 0)
(0.130381 3.53221e-09 0)
(0.130381 6.18184e-10 0)
(0.130381 -2.37118e-09 0)
(0.130381 -5.32193e-09 0)
(0.130381 -7.56974e-09 0)
(0.130381 -8.04603e-09 0)
(0.130381 -6.54886e-09 0)
(0.130381 -4.57476e-09 0)
(0.130381 -4.01512e-09 0)
(0.130381 -4.8168e-09 0)
(0.130381 -6.04014e-09 0)
(0.130381 -7.08404e-09 0)
(0.130381 -7.42444e-09 0)
(0.130381 -8.07604e-09 0)
(0.130381 -7.97065e-09 0)
(0.130381 -8.23393e-09 0)
(0.130381 -1.09609e-08 0)
(0.130381 5.61576e-09 0)
(0.130922 2.10254e-08 0)
(0.130922 1.13532e-08 0)
(0.130922 1.58827e-09 0)
(0.130922 -1.88653e-09 0)
(0.130922 -2.37683e-09 0)
(0.130922 -1.22299e-09 0)
(0.130922 1.39761e-09 0)
(0.130922 5.34345e-09 0)
(0.130922 1.04577e-08 0)
(0.130922 1.53052e-08 0)
(0.130922 1.59917e-08 0)
(0.130922 8.41488e-09 0)
(0.130922 -6.51423e-09 0)
(0.130922 -1.96378e-08 0)
(0.130922 -2.23724e-08 0)
(0.130922 -1.4771e-08 0)
(0.130922 -2.51763e-09 0)
(0.130922 7.59135e-09 0)
(0.130922 1.20852e-08 0)
(0.130922 1.19298e-08 0)
(0.130922 9.50783e-09 0)
(0.130922 6.52714e-09 0)
(0.130922 3.73563e-09 0)
(0.130922 1.06799e-09 0)
(0.130922 -1.64749e-09 0)
(0.130922 -4.31457e-09 0)
(0.130922 -6.38405e-09 0)
(0.130922 -6.83829e-09 0)
(0.130922 -5.46708e-09 0)
(0.130922 -3.64506e-09 0)
(0.130922 -2.9776e-09 0)
(0.130922 -3.66122e-09 0)
(0.130922 -4.84879e-09 0)
(0.130922 -5.95083e-09 0)
(0.130922 -6.38129e-09 0)
(0.130922 -7.0906e-09 0)
(0.130922 -6.7557e-09 0)
(0.130922 -6.82974e-09 0)
(0.130922 -7.54708e-09 0)
(0.130922 8.31468e-09 0)
(0.131383 1.95931e-08 0)
(0.131383 1.08806e-08 0)
(0.131383 2.64306e-09 0)
(0.131383 -5.53348e-12 0)
(0.131383 -1.94193e-10 0)
(0.131383 9.03345e-10 0)
(0.131383 3.1397e-09 0)
(0.131383 6.35955e-09 0)
(0.131383 1.02929e-08 0)
(0.131383 1.34911e-08 0)
(0.131383 1.27654e-08 0)
(0.131383 4.90506e-09 0)
(0.131383 -8.92925e-09 0)
(0.131383 -2.08171e-08 0)
(0.131383 -2.35264e-08 0)
(0.131383 -1.69048e-08 0)
(0.131383 -5.71551e-09 0)
(0.131383 4.11291e-09 0)
(0.131383 9.1752e-09 0)
(0.131383 9.98599e-09 0)
(0.131383 8.50151e-09 0)
(0.131383 6.17909e-09 0)
(0.131383 3.83115e-09 0)
(0.131383 1.48248e-09 0)
(0.131383 -9.56124e-10 0)
(0.131383 -3.33168e-09 0)
(0.131383 -5.16085e-09 0)
(0.131383 -5.58206e-09 0)
(0.131383 -4.37145e-09 0)
(0.131383 -2.68373e-09 0)
(0.131383 -1.97197e-09 0)
(0.131383 -2.50918e-09 0)
(0.131383 -3.59767e-09 0)
(0.131383 -4.72563e-09 0)
(0.131383 -5.24984e-09 0)
(0.131383 -5.94819e-09 0)
(0.131383 -5.51836e-09 0)
(0.131383 -5.33503e-09 0)
(0.131383 -4.75003e-09 0)
(0.131383 9.54251e-09 0)
(0.131771 1.75794e-08 0)
(0.131771 1.00429e-08 0)
(0.131771 3.24371e-09 0)
(0.131771 1.32196e-09 0)
(0.131771 1.3862e-09 0)
(0.131771 2.39959e-09 0)
(0.131771 4.26005e-09 0)
(0.131771 6.7888e-09 0)
(0.131771 9.62269e-09 0)
(0.131771 1.14757e-08 0)
(0.131771 9.76067e-09 0)
(0.131771 2.10663e-09 0)
(0.131771 -1.02193e-08 0)
(0.131771 -2.06993e-08 0)
(0.131771 -2.33236e-08 0)
(0.131771 -1.77825e-08 0)
(0.131771 -7.9505e-09 0)
(0.131771 1.16924e-09 0)
(0.131771 6.46923e-09 0)
(0.131771 8.01966e-09 0)
(0.131771 7.31248e-09 0)
(0.131771 5.63902e-09 0)
(0.131771 3.75101e-09 0)
(0.131771 1.74235e-09 0)
(0.131771 -3.53227e-10 0)
(0.131771 -2.39002e-09 0)
(0.131771 -3.93369e-09 0)
(0.131771 -4.29756e-09 0)
(0.131771 -3.23688e-09 0)
(0.131771 -1.70858e-09 0)
(0.131771 -9.91875e-10 0)
(0.131771 -1.37552e-09 0)
(0.131771 -2.35806e-09 0)
(0.131771 -3.46147e-09 0)
(0.131771 -4.07086e-09 0)
(0.131771 -4.73991e-09 0)
(0.131771 -4.29611e-09 0)
(0.131771 -3.94509e-09 0)
(0.131771 -2.6498e-09 0)
(0.131771 9.69484e-09 0)
(0.132093 1.51733e-08 0)
(0.132093 8.87396e-09 0)
(0.132093 3.39235e-09 0)
(0.132093 2.06629e-09 0)
(0.132093 2.31225e-09 0)
(0.132093 3.20957e-09 0)
(0.132093 4.69189e-09 0)
(0.132093 6.58575e-09 0)
(0.132093 8.49534e-09 0)
(0.132093 9.33837e-09 0)
(0.132093 7.116e-09 0)
(0.132093 1.38224e-10 0)
(0.132093 -1.0409e-08 0)
(0.132093 -1.93432e-08 0)
(0.132093 -2.18266e-08 0)
(0.132093 -1.74489e-08 0)
(0.132093 -9.20312e-09 0)
(0.132093 -1.12742e-09 0)
(0.132093 4.02982e-09 0)
(0.132093 6.02439e-09 0)
(0.132093 5.94836e-09 0)
(0.132093 4.86916e-09 0)
(0.132093 3.43983e-09 0)
(0.132093 1.8372e-09 0)
(0.132093 1.23737e-10 0)
(0.132093 -1.51797e-09 0)
(0.132093 -2.74412e-09 0)
(0.132093 -2.99766e-09 0)
(0.132093 -2.0624e-09 0)
(0.132093 -7.29074e-10 0)
(0.132093 -3.48269e-11 0)
(0.132093 -2.93659e-10 0)
(0.132093 -1.16694e-09 0)
(0.132093 -2.22731e-09 0)
(0.132093 -2.89141e-09 0)
(0.132093 -3.54378e-09 0)
(0.132093 -3.19457e-09 0)
(0.132093 -2.74542e-09 0)
(0.132093 -1.18535e-09 0)
(0.132093 9.03742e-09 0)
(0.13235 1.24467e-08 0)
(0.13235 7.40848e-09 0)
(0.13235 3.13023e-09 0)
(0.13235 2.27378e-09 0)
(0.13235 2.59845e-09 0)
(0.13235 3.33955e-09 0)
(0.13235 4.46091e-09 0)
(0.13235 5.79311e-09 0)
(0.13235 6.98195e-09 0)
(0.13235 7.17413e-09 0)
(0.13235 4.89379e-09 0)
(0.13235 -1.01859e-09 0)
(0.13235 -9.57848e-09 0)
(0.13235 -1.68716e-08 0)
(0.13235 -1.91613e-08 0)
(0.13235 -1.59756e-08 0)
(0.13235 -9.48783e-09 0)
(0.13235 -2.77435e-09 0)
(0.13235 1.8835e-09 0)
(0.13235 4.04732e-09 0)
(0.13235 4.4393e-09 0)
(0.13235 3.87894e-09 0)
(0.13235 2.91683e-09 0)
(0.13235 1.74438e-09 0)
(0.13235 4.7559e-10 0)
(0.13235 -7.42036e-10 0)
(0.13235 -1.60834e-09 0)
(0.13235 -1.71633e-09 0)
(0.13235 -9.03264e-10 0)
(0.13235 2.30592e-10 0)
(0.13235 8.68306e-10 0)
(0.13235 6.88917e-10 0)
(0.13235 -7.34631e-11 0)
(0.13235 -1.04505e-09 0)
(0.13235 -1.7657e-09 0)
(0.13235 -2.40733e-09 0)
(0.13235 -2.19352e-09 0)
(0.13235 -1.78098e-09 0)
(0.13235 -3.12857e-10 0)
(0.13235 7.76175e-09 0)
(0.132544 9.39746e-09 0)
(0.132544 5.65423e-09 0)
(0.132544 2.53316e-09 0)
(0.132544 2.02579e-09 0)
(0.132544 2.33669e-09 0)
(0.132544 2.88443e-09 0)
(0.132544 3.65198e-09 0)
(0.132544 4.50756e-09 0)
(0.132544 5.1737e-09 0)
(0.132544 5.03868e-09 0)
(0.132544 3.08387e-09 0)
(0.132544 -1.46203e-09 0)
(0.132544 -7.88703e-09 0)
(0.132544 -1.34631e-08 0)
(0.132544 -1.55027e-08 0)
(0.132544 -1.35138e-08 0)
(0.132544 -8.89286e-09 0)
(0.132544 -3.78278e-09 0)
(0.132544 6.09362e-11 0)
(0.132544 2.1374e-09 0)
(0.132544 2.83622e-09 0)
(0.132544 2.71196e-09 0)
(0.132544 2.20367e-09 0)
(0.132544 1.49312e-09 0)
(0.132544 6.86913e-10 0)
(0.132544 -7.158e-11 0)
(0.132544 -5.67147e-10 0)
(0.132544 -5.05788e-10 0)
(0.132544 2.1714e-10 0)
(0.132544 1.1488e-09 0)
(0.132544 1.70275e-09 0)
(0.132544 1.58082e-09 0)
(0.132544 9.30409e-10 0)
(0.132544 4.37908e-11 0)
(0.132544 -6.92466e-10 0)
(0.132544 -1.34688e-09 0)
(0.132544 -1.33743e-09 0)
(0.132544 -1.07046e-09 0)
(0.132544 7.54211e-11 0)
(0.132544 5.99571e-09 0)
(0.132677 5.96562e-09 0)
(0.132677 3.65513e-09 0)
(0.132677 1.71691e-09 0)
(0.132677 1.45026e-09 0)
(0.132677 1.64788e-09 0)
(0.132677 1.96497e-09 0)
(0.132677 2.39516e-09 0)
(0.132677 2.8485e-09 0)
(0.132677 3.15285e-09 0)
(0.132677 2.94233e-09 0)
(0.132677 1.60089e-09 0)
(0.132677 -1.34621e-09 0)
(0.132677 -5.51932e-09 0)
(0.132677 -9.32577e-09 0)
(0.132677 -1.10695e-08 0)
(0.132677 -1.02629e-08 0)
(0.132677 -7.57096e-09 0)
(0.132677 -4.24194e-09 0)
(0.132677 -1.43715e-09 0)
(0.132677 3.39289e-10 0)
(0.132677 1.1913e-09 0)
(0.132677 1.43475e-09 0)
(0.132677 1.35329e-09 0)
(0.132677 1.09925e-09 0)
(0.132677 7.73829e-10 0)
(0.132677 4.81807e-10 0)
(0.132677 3.7838e-10 0)
(0.132677 6.45132e-10 0)
(0.132677 1.29626e-09 0)
(0.132677 2.0475e-09 0)
(0.132677 2.48572e-09 0)
(0.132677 2.3991e-09 0)
(0.132677 1.86605e-09 0)
(0.132677 1.07546e-09 0)
(0.132677 3.21406e-10 0)
(0.132677 -3.72328e-10 0)
(0.132677 -5.99717e-10 0)
(0.132677 -5.85072e-10 0)
(0.132677 5.60213e-11 0)
(0.132677 3.75272e-09 0)
(0.132745 2.09231e-09 0)
(0.132745 1.44918e-09 0)
(0.132745 8.15121e-10 0)
(0.132745 6.75525e-10 0)
(0.132745 6.6607e-10 0)
(0.132745 7.24602e-10 0)
(0.132745 8.28147e-10 0)
(0.132745 9.2476e-10 0)
(0.132745 9.68773e-10 0)
(0.132745 8.49263e-10 0)
(0.132745 3.2787e-10 0)
(0.132745 -8.45202e-10 0)
(0.132745 -2.67558e-09 0)
(0.132745 -4.67938e-09 0)
(0.132745 -6.11049e-09 0)
(0.132745 -6.48115e-09 0)
(0.132745 -5.75127e-09 0)
(0.132745 -4.28409e-09 0)
(0.132745 -2.66081e-09 0)
(0.132745 -1.32527e-09 0)
(0.132745 -4.23106e-10 0)
(0.132745 1.0775e-10 0)
(0.132745 4.13664e-10 0)
(0.132745 6.04727e-10 0)
(0.132745 7.59276e-10 0)
(0.132745 9.51941e-10 0)
(0.132745 1.26e-09 0)
(0.132745 1.75223e-09 0)
(0.132745 2.38258e-09 0)
(0.132745 2.95399e-09 0)
(0.132745 3.27354e-09 0)
(0.132745 3.21131e-09 0)
(0.132745 2.76652e-09 0)
(0.132745 2.06181e-09 0)
(0.132745 1.28374e-09 0)
(0.132745 5.31496e-10 0)
(0.132745 2.48643e-11 0)
(0.132745 -2.7752e-10 0)
(0.132745 -2.3222e-10 0)
(0.132745 1.09681e-09 0)
(0.132745 -2.03566e-09 0)
(0.132745 -8.71186e-10 0)
(0.132745 -1.12299e-10 0)
(0.132745 -1.95063e-10 0)
(0.132745 -4.5563e-10 0)
(0.132745 -6.61822e-10 0)
(0.132745 -8.77661e-10 0)
(0.132745 -1.12071e-09 0)
(0.132745 -1.29568e-09 0)
(0.132745 -1.24861e-09 0)
(0.132745 -8.51803e-10 0)
(0.132745 -1.62922e-10 0)
(0.132745 3.81163e-10 0)
(0.132745 1.53395e-10 0)
(0.132745 -1.00059e-09 0)
(0.132745 -2.55747e-09 0)
(0.132745 -3.7612e-09 0)
(0.132745 -4.12041e-09 0)
(0.132745 -3.67236e-09 0)
(0.132745 -2.81632e-09 0)
(0.132745 -1.933e-09 0)
(0.132745 -1.17707e-09 0)
(0.132745 -5.30196e-10 0)
(0.132745 7.15827e-11 0)
(0.132745 6.93951e-10 0)
(0.132745 1.37274e-09 0)
(0.132745 2.10355e-09 0)
(0.132745 2.85462e-09 0)
(0.132745 3.49903e-09 0)
(0.132745 3.91791e-09 0)
(0.132745 4.10131e-09 0)
(0.132745 4.02701e-09 0)
(0.132745 3.64789e-09 0)
(0.132745 3.0044e-09 0)
(0.132745 2.18708e-09 0)
(0.132745 1.36283e-09 0)
(0.132745 5.69998e-10 0)
(0.132745 -6.76079e-11 0)
(0.132745 -6.44303e-10 0)
(0.132745 -1.7657e-09 0)
(0.132677 -5.95491e-09 0)
(0.132677 -3.08477e-09 0)
(0.132677 -1.04639e-09 0)
(0.132677 -1.04573e-09 0)
(0.132677 -1.51241e-09 0)
(0.132677 -1.95399e-09 0)
(0.132677 -2.48033e-09 0)
(0.132677 -3.07278e-09 0)
(0.132677 -3.49156e-09 0)
(0.132677 -3.3145e-09 0)
(0.132677 -2.04094e-09 0)
(0.132677 4.67041e-10 0)
(0.132677 3.31423e-09 0)
(0.132677 4.74895e-09 0)
(0.132677 3.77657e-09 0)
(0.132677 1.02899e-09 0)
(0.132677 -1.99857e-09 0)
(0.132677 -3.99561e-09 0)
(0.132677 -4.55857e-09 0)
(0.132677 -4.10967e-09 0)
(0.132677 -3.2526e-09 0)
(0.132677 -2.32312e-09 0)
(0.132677 -1.3874e-09 0)
(0.132677 -4.20327e-10 0)
(0.132677 6.29424e-10 0)
(0.132677 1.7725e-09 0)
(0.132677 2.92542e-09 0)
(0.132677 3.9588e-09 0)
(0.132677 4.64861e-09 0)
(0.132677 4.9194e-09 0)
(0.132677 4.95217e-09 0)
(0.132677 4.84176e-09 0)
(0.132677 4.49379e-09 0)
(0.132677 3.8833e-09 0)
(0.132677 3.0103e-09 0)
(0.132677 2.11914e-09 0)
(0.132677 1.06056e-09 0)
(0.132677 1.16963e-10 0)
(0.132677 -1.07333e-09 0)
(0.132677 -4.5506e-09 0)
(0.132544 -9.46628e-09 0)
(0.132544 -5.0935e-09 0)
(0.132544 -1.92203e-09 0)
(0.132544 -1.73172e-09 0)
(0.132544 -2.30038e-09 0)
(0.132544 -2.93016e-09 0)
(0.132544 -3.76299e-09 0)
(0.132544 -4.74336e-09 0)
(0.132544 -5.49672e-09 0)
(0.132544 -5.32776e-09 0)
(0.132544 -3.33538e-09 0)
(0.132544 8.5441e-10 0)
(0.132544 5.87252e-09 0)
(0.132544 8.81164e-09 0)
(0.132544 7.89501e-09 0)
(0.132544 3.95242e-09 0)
(0.132544 -7.37692e-10 0)
(0.132544 -4.09082e-09 0)
(0.132544 -5.41257e-09 0)
(0.132544 -5.23474e-09 0)
(0.132544 -4.36801e-09 0)
(0.132544 -3.27867e-09 0)
(0.132544 -2.09764e-09 0)
(0.132544 -8.31522e-10 0)
(0.132544 5.95052e-10 0)
(0.132544 2.16007e-09 0)
(0.132544 3.71999e-09 0)
(0.132544 5.05373e-09 0)
(0.132544 5.80014e-09 0)
(0.132544 5.9424e-09 0)
(0.132544 5.81494e-09 0)
(0.132544 5.62826e-09 0)
(0.132544 5.27907e-09 0)
(0.132544 4.68756e-09 0)
(0.132544 3.7578e-09 0)
(0.132544 2.82281e-09 0)
(0.132544 1.53637e-09 0)
(0.132544 3.63674e-10 0)
(0.132544 -1.35742e-09 0)
(0.132544 -7.04606e-09 0)
(0.13235 -1.26276e-08 0)
(0.13235 -6.93349e-09 0)
(0.13235 -2.60868e-09 0)
(0.13235 -2.1006e-09 0)
(0.13235 -2.64918e-09 0)
(0.13235 -3.4044e-09 0)
(0.13235 -4.54907e-09 0)
(0.13235 -5.99052e-09 0)
(0.13235 -7.22324e-09 0)
(0.13235 -7.27859e-09 0)
(0.13235 -4.80838e-09 0)
(0.13235 8.67974e-10 0)
(0.13235 7.89873e-09 0)
(0.13235 1.21767e-08 0)
(0.13235 1.11909e-08 0)
(0.13235 6.05021e-09 0)
(0.13235 -1.06942e-10 0)
(0.13235 -4.5134e-09 0)
(0.13235 -6.30344e-09 0)
(0.13235 -6.22404e-09 0)
(0.13235 -5.29765e-09 0)
(0.13235 -4.03995e-09 0)
(0.13235 -2.66055e-09 0)
(0.13235 -1.14857e-09 0)
(0.13235 5.88699e-10 0)
(0.13235 2.52808e-09 0)
(0.13235 4.47308e-09 0)
(0.13235 6.11318e-09 0)
(0.13235 6.95491e-09 0)
(0.13235 6.94632e-09 0)
(0.13235 6.6153e-09 0)
(0.13235 6.33886e-09 0)
(0.13235 5.97813e-09 0)
(0.13235 5.39885e-09 0)
(0.13235 4.41417e-09 0)
(0.13235 3.48851e-09 0)
(0.13235 2.03932e-09 0)
(0.13235 7.57996e-10 0)
(0.13235 -1.3409e-09 0)
(0.13235 -9.17195e-09 0)
(0.132093 -1.54606e-08 0)
(0.132093 -8.27453e-09 0)
(0.132093 -2.98087e-09 0)
(0.132093 -1.99067e-09 0)
(0.132093 -2.39606e-09 0)
(0.132093 -3.22942e-09 0)
(0.132093 -4.70682e-09 0)
(0.132093 -6.70046e-09 0)
(0.132093 -8.59563e-09 0)
(0.132093 -9.14126e-09 0)
(0.132093 -6.48859e-09 0)
(0.132093 4.20981e-10 0)
(0.132093 9.28087e-09 0)
(0.132093 1.4736e-08 0)
(0.132093 1.35571e-08 0)
(0.132093 7.24447e-09 0)
(0.132093 -1.83648e-10 0)
(0.132093 -5.29028e-09 0)
(0.132093 -7.26387e-09 0)
(0.132093 -7.14032e-09 0)
(0.132093 -6.05613e-09 0)
(0.132093 -4.62116e-09 0)
(0.132093 -3.0734e-09 0)
(0.132093 -1.37774e-09 0)
(0.132093 6.0316e-10 0)
(0.132093 2.83532e-09 0)
(0.132093 5.1314e-09 0)
(0.132093 7.08991e-09 0)
(0.132093 8.04822e-09 0)
(0.132093 7.88313e-09 0)
(0.132093 7.2987e-09 0)
(0.132093 6.91242e-09 0)
(0.132093 6.54854e-09 0)
(0.132093 5.99343e-09 0)
(0.132093 4.98197e-09 0)
(0.132093 4.11407e-09 0)
(0.132093 2.59283e-09 0)
(0.132093 1.34401e-09 0)
(0.132093 -9.23869e-10 0)
(0.132093 -1.08537e-08 0)
(0.131772 -1.80473e-08 0)
(0.131772 -9.33964e-09 0)
(0.131772 -2.71355e-09 0)
(0.131772 -1.27867e-09 0)
(0.131772 -1.45353e-09 0)
(0.131772 -2.3288e-09 0)
(0.131772 -4.16373e-09 0)
(0.131772 -6.80788e-09 0)
(0.131772 -9.55816e-09 0)
(0.131772 -1.08763e-08 0)
(0.131772 -8.37627e-09 0)
(0.131772 -5.1508e-10 0)
(0.131772 9.97412e-09 0)
(0.131772 1.64311e-08 0)
(0.131772 1.49516e-08 0)
(0.131772 7.50157e-09 0)
(0.131772 -9.34121e-10 0)
(0.131772 -6.42584e-09 0)
(0.131772 -8.3301e-09 0)
(0.131772 -7.97539e-09 0)
(0.131772 -6.66283e-09 0)
(0.131772 -5.0362e-09 0)
(0.131772 -3.3512e-09 0)
(0.131772 -1.54759e-09 0)
(0.131772 5.70817e-10 0)
(0.131772 3.0267e-09 0)
(0.131772 5.64844e-09 0)
(0.131772 7.94584e-09 0)
(0.131772 9.02679e-09 0)
(0.131772 8.65336e-09 0)
(0.131772 7.78645e-09 0)
(0.131772 7.30989e-09 0)
(0.131772 6.93635e-09 0)
(0.131772 6.44094e-09 0)
(0.131772 5.44761e-09 0)
(0.131772 4.73024e-09 0)
(0.131772 3.23037e-09 0)
(0.131772 2.11453e-09 0)
(0.131772 -1.69554e-12 0)
(0.131772 -1.2029e-08 0)
(0.131383 -2.02617e-08 0)
(0.131383 -1.00513e-08 0)
(0.131383 -1.99294e-09 0)
(0.131383 1.16608e-11 0)
(0.131383 1.55832e-10 0)
(0.131383 -7.32569e-10 0)
(0.131383 -2.95063e-09 0)
(0.131383 -6.32521e-09 0)
(0.131383 -1.00913e-08 0)
(0.131383 -1.24487e-08 0)
(0.131383 -1.03865e-08 0)
(0.131383 -1.85202e-09 0)
(0.131383 9.99226e-09 0)
(0.131383 1.72509e-08 0)
(0.131383 1.53699e-08 0)
(0.131383 6.8672e-09 0)
(0.131383 -2.32548e-09 0)
(0.131383 -7.91513e-09 0)
(0.131383 -9.49441e-09 0)
(0.131383 -8.76605e-09 0)
(0.131383 -7.152e-09 0)
(0.131383 -5.30097e-09 0)
(0.131383 -3.53438e-09 0)
(0.131383 -1.68269e-09 0)
(0.131383 4.81384e-10 0)
(0.131383 3.09246e-09 0)
(0.131383 5.9621e-09 0)
(0.131383 8.54422e-09 0)
(0.131383 9.79513e-09 0)
(0.131383 9.18547e-09 0)
(0.131383 8.031e-09 0)
(0.131383 7.48665e-09 0)
(0.131383 7.12399e-09 0)
(0.131383 6.77116e-09 0)
(0.131383 5.84438e-09 0)
(0.131383 5.2911e-09 0)
(0.131383 3.92519e-09 0)
(0.131383 3.08511e-09 0)
(0.131383 1.55059e-09 0)
(0.131383 -1.24779e-08 0)
(0.130922 -2.19026e-08 0)
(0.130922 -1.03657e-08 0)
(0.130922 -1.06382e-09 0)
(0.130922 1.77091e-09 0)
(0.130922 2.31287e-09 0)
(0.130922 1.44232e-09 0)
(0.130922 -1.14785e-09 0)
(0.130922 -5.28335e-09 0)
(0.130922 -1.01762e-08 0)
(0.130922 -1.37158e-08 0)
(0.130922 -1.23755e-08 0)
(0.130922 -3.5297e-09 0)
(0.130922 9.4101e-09 0)
(0.130922 1.72371e-08 0)
(0.130922 1.48333e-08 0)
(0.130922 5.39211e-09 0)
(0.130922 -4.29274e-09 0)
(0.130922 -9.65977e-09 0)
(0.130922 -1.07547e-08 0)
(0.130922 -9.54514e-09 0)
(0.130922 -7.5129e-09 0)
(0.130922 -5.46741e-09 0)
(0.130922 -3.61458e-09 0)
(0.130922 -1.82509e-09 0)
(0.130922 2.84578e-10 0)
(0.130922 2.90817e-09 0)
(0.130922 5.97112e-09 0)
(0.130922 8.91008e-09 0)
(0.130922 1.02825e-08 0)
(0.130922 9.46561e-09 0)
(0.130922 7.97053e-09 0)
(0.130922 7.35383e-09 0)
(0.130922 7.16478e-09 0)
(0.130922 6.91531e-09 0)
(0.130922 6.12114e-09 0)
(0.130922 5.86723e-09 0)
(0.130922 4.6838e-09 0)
(0.130922 4.19603e-09 0)
(0.130922 3.80447e-09 0)
(0.130922 -1.19245e-08 0)
(0.130381 -2.28559e-08 0)
(0.130381 -1.06117e-08 0)
(0.130381 1.54203e-10 0)
(0.130381 3.89812e-09 0)
(0.130381 4.8916e-09 0)
(0.130381 4.07898e-09 0)
(0.130381 1.16324e-09 0)
(0.130381 -3.71487e-09 0)
(0.130381 -9.72894e-09 0)
(0.130381 -1.45696e-08 0)
(0.130381 -1.41642e-08 0)
(0.130381 -5.30203e-09 0)
(0.130381 8.32657e-09 0)
(0.130381 1.64095e-08 0)
(0.130381 1.33917e-08 0)
(0.130381 3.14663e-09 0)
(0.130381 -6.72596e-09 0)
(0.130381 -1.16629e-08 0)
(0.130381 -1.209e-08 0)
(0.130381 -1.02444e-08 0)
(0.130381 -7.78429e-09 0)
(0.130381 -5.48717e-09 0)
(0.130381 -3.67941e-09 0)
(0.130381 -2.03175e-09 0)
(0.130381 -6.24459e-11 0)
(0.130381 2.50689e-09 0)
(0.130381 5.71238e-09 0)
(0.130381 8.90566e-09 0)
(0.130381 1.04495e-08 0)
(0.130381 9.3029e-09 0)
(0.130381 7.55018e-09 0)
(0.130381 7.00265e-09 0)
(0.130381 6.90728e-09 0)
(0.130381 6.95692e-09 0)
(0.130381 6.39893e-09 0)
(0.130381 6.31681e-09 0)
(0.130381 5.49414e-09 0)