/*--------------------------------*- C++ -*----------------------------------*\
  =========                 |
  \\      /  F ield         | OpenFOAM: The Open Source CFD Toolbox
   \\    /   O peration     | Website:  https://openfoam.org
    \\  /    A nd           | Version:  dev
     \\/     M anipulation  |

   OpenFOAM for Windows 20.09 (v1)
   Built by CFD Support, www.cfdsupport.com (based on Symscape).
\*---------------------------------------------------------------------------*/
FoamFile
{
    version     2.0;
    format      ascii;
    class       surfaceScalarField;
    location    "8";
    object      alphaPhi0.water;
}
// * * * * * * * * * * * * * * * * * * * * * * * * * * * * * * * * * * * * * //

dimensions      [0 3 -1 0 0 0 0];

internalField   nonuniform List<scalar> 
217
(
3.83851e-08
-6.09694e-10
3.83984e-08
4.85679e-10
3.84341e-08
6.66875e-10
-5.48545e-10
3.84502e-08
3.90689e-08
-6.18746e-10
3.90812e-08
4.73363e-10
3.91219e-08
6.2617e-10
-5.59158e-10
3.91325e-08
3.98555e-08
-6.23528e-10
3.98692e-08
4.59656e-10
3.99133e-08
5.82039e-10
-5.64043e-10
3.99182e-08
4.07578e-08
-6.24867e-10
4.07726e-08
4.44836e-10
4.08194e-08
5.35284e-10
-5.63552e-10
4.08189e-08
4.17885e-08
-6.23428e-10
4.18056e-08
4.27752e-10
4.18537e-08
4.87212e-10
-5.5757e-10
4.18477e-08
4.29628e-08
-6.20268e-10
4.29813e-08
4.09302e-10
4.30298e-08
4.38637e-10
-5.46376e-10
4.30186e-08
4.42938e-08
-6.16251e-10
4.43142e-08
3.88973e-10
4.43628e-08
3.89973e-10
-5.30311e-10
4.43468e-08
4.57987e-08
-6.12034e-10
4.58201e-08
3.67571e-10
4.58682e-08
3.41947e-10
-5.09755e-10
4.58476e-08
4.74914e-08
-6.08308e-10
4.75145e-08
3.44417e-10
4.75623e-08
2.94209e-10
-4.84889e-10
4.75374e-08
4.93909e-08
-6.06095e-10
4.94154e-08
3.1989e-10
4.94627e-08
2.4692e-10
-4.55511e-10
4.94333e-08
5.15112e-08
-6.0611e-10
5.15389e-08
2.92234e-10
5.15868e-08
1.99039e-10
-4.21856e-10
5.15532e-08
5.38737e-08
-6.09721e-10
5.39046e-08
2.61382e-10
5.3953e-08
1.50651e-10
-3.83711e-10
5.39148e-08
5.6492e-08
-6.17581e-10
5.65287e-08
2.24738e-10
5.65801e-08
9.92091e-11
-3.4117e-10
5.65376e-08
5.9384e-08
-6.29463e-10
5.94277e-08
1.8131e-10
5.94833e-08
4.40906e-11
-2.93534e-10
5.94363e-08
6.01317e-08
6.06078e-08
6.0892e-08
6.07632e-08
3.84244e-08
-6.91977e-10
3.83629e-08
-5.38606e-10
3.83436e-08
1.41656e-09
-1.87893e-10
3.91018e-08
-6.61195e-10
3.90411e-08
-4.77894e-10
3.90253e-08
1.43232e-09
-2.22476e-10
3.9883e-08
-6.25989e-10
3.9822e-08
-4.16864e-10
3.9812e-08
1.44227e-09
-2.61137e-10
4.07806e-08
-5.87679e-10
4.07194e-08
-3.55659e-10
4.07134e-08
1.44821e-09
-3.04143e-10
4.18064e-08
-5.46358e-10
4.17456e-08
-2.94896e-10
4.17439e-08
1.44989e-09
-3.50157e-10
4.29751e-08
-5.02819e-10
4.29147e-08
-2.34523e-10
4.29163e-08
1.44829e-09
-3.99782e-10
4.43007e-08
-4.56794e-10
4.42411e-08
-1.74872e-10
4.42459e-08
1.44343e-09
-4.51677e-10
4.57989e-08
-4.08163e-10
4.57398e-08
-1.15679e-10
4.5748e-08
1.43519e-09
-5.06602e-10
4.74856e-08
-3.56359e-10
4.7427e-08
-5.70958e-11
4.74383e-08
1.42388e-09
-5.63369e-10
4.93776e-08
-3.00619e-10
4.93193e-08
1.22392e-12
4.93336e-08
1.40952e-09
-6.22838e-10
5.14922e-08
-2.39627e-10
5.14339e-08
5.95076e-11
5.14505e-08
1.39293e-09
-6.83608e-10
5.38475e-08
-1.72233e-10
5.37886e-08
1.1838e-10
5.38076e-08
1.37387e-09
-7.46082e-10
5.64625e-08
-9.71323e-11
5.64033e-08
1.77602e-10
5.64225e-08
1.35459e-09
-8.07679e-10
5.93527e-08
-1.29342e-11
5.92927e-08
2.37141e-10
5.93112e-08
1.33483e-09
-8.66646e-10
6.04538e-08
6.01824e-08
6.03601e-08
)
;

boundaryField
{
    topWall
    {
        type            calculated;
        value           nonuniform List<scalar> 0();
    }
    botWall
    {
        type            calculated;
        value           nonuniform List<scalar> 0();
    }
    inlet
    {
        type            cyclic;
        value           nonuniform List<scalar> 
15
(
-6.04241e-08
-5.93703e-08
-5.64841e-08
-5.38701e-08
-5.15112e-08
-4.93931e-08
-4.74951e-08
-4.58029e-08
-4.42978e-08
-4.2966e-08
-4.17899e-08
-4.07565e-08
-3.98507e-08
-3.90599e-08
-3.83726e-08
)
;
    }
    outlet
    {
        type            cyclic;
        value           nonuniform List<scalar> 
15
(
6.04241e-08
5.93703e-08
5.64841e-08
5.38701e-08
5.15112e-08
4.93931e-08
4.74951e-08
4.58029e-08
4.42978e-08
4.2966e-08
4.17899e-08
4.07565e-08
3.98507e-08
3.90599e-08
3.83726e-08
)
;
    }
    fixWall
    {
        type            empty;
        value           nonuniform List<scalar> 0();
    }
    procBoundary3to2
    {
        type            processor;
        value           nonuniform List<scalar> 8(5.96979e-10 -4.99664e-10 -7.03203e-10 5.30994e-10 7.18992e-10 6.00396e-10 -1.39895e-09 1.57579e-10);
    }
    procBoundary3to4
    {
        type            processor;
        value           nonuniform List<scalar> 8(-5.45151e-11 1.2314e-10 -1.05128e-12 -2.31483e-11 6.923e-11 2.68171e-10 1.19967e-09 -7.79577e-11);
    }
}


// ************************************************************************* //
