/*--------------------------------*- C++ -*----------------------------------*\
  =========                 |
  \\      /  F ield         | OpenFOAM: The Open Source CFD Toolbox
   \\    /   O peration     | Website:  https://openfoam.org
    \\  /    A nd           | Version:  dev
     \\/     M anipulation  |

   OpenFOAM for Windows 20.09 (v1)
   Built by CFD Support, www.cfdsupport.com (based on Symscape).
\*---------------------------------------------------------------------------*/
FoamFile
{
    version     2.0;
    format      ascii;
    class       volSymmTensorField;
    location    "8";
    object      devReff;
}
// * * * * * * * * * * * * * * * * * * * * * * * * * * * * * * * * * * * * * //

dimensions      [0 2 -2 0 0 0 0];

internalField   nonuniform List<symmTensor> 
120
(
(-1.06791e-07 -0.000178501 -0 1.07337e-07 -0 -5.45249e-10)
(-1.07152e-07 -0.00017561 -0 1.02835e-07 -0 4.31698e-09)
(-3.55368e-07 -0.000178488 -0 3.41845e-07 -0 1.35232e-08)
(-1.64611e-07 -0.000178725 -0 1.64264e-07 -0 3.46631e-10)
(-5.85109e-08 -0.000205321 -0 5.56774e-08 -0 2.83344e-09)
(-1.11654e-07 -0.000203209 -0 1.05562e-07 -0 6.0921e-09)
(-4.27972e-07 -0.000205516 -0 4.50718e-07 -0 -2.27465e-08)
(-1.18481e-07 -0.000205146 -0 1.1182e-07 -0 6.66184e-09)
(-2.31698e-08 -0.000235234 -0 2.56216e-08 -0 -2.45182e-09)
(-1.15421e-07 -0.000233533 -0 1.1117e-07 -0 4.25129e-09)
(-4.44872e-07 -0.000235679 -0 4.52438e-07 -0 -7.56557e-09)
(-8.26155e-08 -0.000234972 -0 7.96823e-08 -0 2.93322e-09)
(1.47424e-08 -0.000268576 -0 -1.88284e-08 -0 4.08598e-09)
(-1.27511e-07 -0.00026737 -0 1.20698e-07 -0 6.81327e-09)
(-4.5979e-07 -0.000269293 -0 4.62735e-07 -0 -2.94538e-09)
(-3.56051e-08 -0.000268271 -0 3.21881e-08 -0 3.41705e-09)
(3.24894e-08 -0.000305568 -0 -3.10778e-08 -0 -1.41162e-09)
(-1.42323e-07 -0.000304712 -0 1.39305e-07 -0 3.01791e-09)
(-4.8682e-07 -0.000306369 -0 5.02812e-07 -0 -1.59924e-08)
(1.08698e-08 -0.000305275 -0 -1.46182e-08 -0 3.74841e-09)
(5.25288e-08 -0.000346476 -0 -5.41452e-08 -0 1.6164e-09)
(-1.53625e-07 -0.000345996 -0 1.44436e-07 -0 9.18914e-09)
(-4.82824e-07 -0.000347297 -0 4.86754e-07 -0 -3.93024e-09)
(5.3523e-08 -0.000346196 -0 -5.44653e-08 -0 9.42322e-10)
(5.7824e-08 -0.000391441 -0 -5.74409e-08 -0 -3.83062e-10)
(-1.66476e-07 -0.000391277 -0 1.58463e-07 -0 8.01256e-09)
(-4.90136e-07 -0.00039228 -0 4.99669e-07 -0 -9.53382e-09)
(9.8096e-08 -0.000391268 -0 -1.00256e-07 -0 2.16021e-09)
(6.06278e-08 -0.000440694 -0 -6.06136e-08 -0 -1.41823e-11)
(-1.8766e-07 -0.000440839 -0 1.8273e-07 -0 4.92977e-09)
(-4.896e-07 -0.00044159 -0 4.97745e-07 -0 -8.14495e-09)
(1.38202e-07 -0.000440715 -0 -1.39637e-07 -0 1.43475e-09)
(5.57237e-08 -0.000494307 -0 -5.72292e-08 -0 1.50549e-09)
(-1.99477e-07 -0.000494735 -0 1.92806e-07 -0 6.67144e-09)
(-4.87666e-07 -0.000495408 -0 4.96176e-07 -0 -8.51015e-09)
(1.80265e-07 -0.000494703 -0 -1.82945e-07 -0 2.6804e-09)
(4.17413e-08 -0.000552447 -0 -4.23383e-08 -0 5.96996e-10)
(-2.21058e-07 -0.000553219 -0 2.10997e-07 -0 1.0061e-08)
(-4.90369e-07 -0.000553894 -0 4.97892e-07 -0 -7.5222e-09)
(2.16439e-07 -0.000553384 -0 -2.16462e-07 -0 2.29477e-11)
(1.78232e-08 -0.000615273 -0 -1.7036e-08 -0 -7.87212e-10)
(-2.56875e-07 -0.000616344 -0 2.57579e-07 -0 -7.04229e-10)
(-4.94499e-07 -0.000617234 -0 5.02102e-07 -0 -7.60294e-09)
(2.58106e-07 -0.00061691 -0 -2.59817e-07 -0 1.71121e-09)
(-1.45805e-08 -0.000682887 -0 1.75641e-08 -0 -2.98357e-09)
(-3.0099e-07 -0.000684191 -0 3.03709e-07 -0 -2.71879e-09)
(-5.27763e-07 -0.000685479 -0 5.51786e-07 -0 -2.40227e-08)
(2.98248e-07 -0.00068541 -0 -3.01579e-07 -0 3.33097e-09)
(-5.32171e-08 -0.000755136 -0 5.9436e-08 -0 -6.2189e-09)
(-3.28608e-07 -0.000756498 -0 3.12915e-07 -0 1.56929e-08)
(-5.25806e-07 -0.000758238 -0 5.22285e-07 -0 3.52066e-09)
(3.54766e-07 -0.000758651 -0 -3.77928e-07 -0 2.31622e-08)
(-9.96355e-08 -0.000839676 -0 1.15386e-07 -0 -1.57507e-08)
(-3.8601e-07 -0.000840494 -0 3.68665e-07 -0 1.73448e-08)
(-5.692e-07 -0.000841514 -0 5.6141e-07 -0 7.78919e-09)
(3.83488e-07 -0.000842113 -0 -4.11715e-07 -0 2.8227e-08)
(-8.42821e-08 -0.00127952 -0 3.59595e-08 -0 4.83226e-08)
(-3.14964e-07 -0.00127546 -0 2.2277e-07 -0 9.21938e-08)
(-5.34527e-07 -0.00127019 -0 4.8443e-07 -0 5.00969e-08)
(3.0052e-07 -0.00127403 -0 -2.24913e-07 -0 -7.56077e-08)
(2.37329e-07 -0.000176469 -0 -2.29393e-07 -0 -7.93544e-09)
(5.3715e-07 -0.00017563 -0 -5.35217e-07 -0 -1.93291e-09)
(2.14704e-07 -0.000175364 -0 -1.99534e-07 -0 -1.51695e-08)
(-2.58687e-07 -0.000178938 -0 2.54717e-07 -0 3.96993e-09)
(2.96837e-07 -0.000203189 -0 -2.99199e-07 -0 2.36114e-09)
(5.67494e-07 -0.000202723 -0 -5.84571e-07 -0 1.7077e-08)
(1.68403e-07 -0.000202611 -0 -1.64713e-07 -0 -3.69015e-09)
(-3.09818e-07 -0.000205649 -0 3.12108e-07 -0 -2.29029e-09)
(3.2531e-07 -0.000233154 -0 -3.20429e-07 -0 -4.8806e-09)
(5.64587e-07 -0.000232981 -0 -5.71224e-07 -0 6.6371e-09)
(1.20045e-07 -0.000232845 -0 -1.12257e-07 -0 -7.78861e-09)
(-3.48963e-07 -0.000235569 -0 3.45198e-07 -0 3.76539e-09)
(3.64874e-07 -0.000266574 -0 -3.64901e-07 -0 2.78576e-11)
(5.7044e-07 -0.000266568 -0 -5.80804e-07 -0 1.03646e-08)
(7.38068e-08 -0.000266458 -0 -6.62715e-08 -0 -7.53533e-09)
(-3.89972e-07 -0.000268886 -0 3.93215e-07 -0 -3.24319e-09)
(3.90959e-07 -0.000303684 -0 -3.91078e-07 -0 1.1929e-10)
(5.69246e-07 -0.000303798 -0 -5.77522e-07 -0 8.27626e-09)
(4.46318e-08 -0.000303714 -0 -4.31768e-08 -0 -1.45502e-09)
(-4.2233e-07 -0.000305799 -0 4.2191e-07 -0 4.20019e-10)
(4.14079e-07 -0.000344697 -0 -4.10383e-07 -0 -3.69666e-09)
(5.65879e-07 -0.000344784 -0 -5.73769e-07 -0 7.8903e-09)
(-5.79255e-10 -0.000344801 -0 1.13639e-08 -0 -1.07846e-08)
(-4.45404e-07 -0.000346606 -0 4.43052e-07 -0 2.35173e-09)
(4.38251e-07 -0.00038982 -0 -4.35062e-07 -0 -3.18891e-09)
(5.61928e-07 -0.000389796 -0 -5.67644e-07 -0 5.71597e-09)
(-2.75976e-08 -0.000389938 -0 3.61499e-08 -0 -8.55227e-09)
(-4.742e-07 -0.000391454 -0 4.70741e-07 -0 3.45941e-09)
(4.68581e-07 -0.000439206 -0 -4.67018e-07 -0 -1.56265e-09)
(5.62101e-07 -0.000438988 -0 -5.71675e-07 -0 9.57351e-09)
(-5.62906e-08 -0.000439326 -0 6.32513e-08 -0 -6.96063e-09)
(-4.97494e-07 -0.000440606 -0 4.98282e-07 -0 -7.88007e-10)
(5.00088e-07 -0.000493086 -0 -4.98015e-07 -0 -2.07325e-09)
(5.58135e-07 -0.000492632 -0 -5.65766e-07 -0 7.63022e-09)
(-8.54142e-08 -0.000493131 -0 9.3605e-08 -0 -8.19075e-09)
(-5.20272e-07 -0.000494041 -0 5.18603e-07 -0 1.66915e-09)
(5.36136e-07 -0.000551596 -0 -5.3019e-07 -0 -5.94577e-09)
(5.53479e-07 -0.000550808 -0 -5.57884e-07 -0 4.40494e-09)
(-1.09996e-07 -0.00055153 -0 1.19612e-07 -0 -9.61684e-09)
(-5.27994e-07 -0.000552044 -0 5.21617e-07 -0 6.37686e-09)
(5.93955e-07 -0.000614945 -0 -5.97183e-07 -0 3.22866e-09)
(5.68833e-07 -0.000613782 -0 -5.87079e-07 -0 1.82463e-08)
(-1.28654e-07 -0.000614745 -0 1.34867e-07 -0 -6.21361e-09)
(-5.53435e-07 -0.000614658 -0 5.5606e-07 -0 -2.62473e-09)
(6.51817e-07 -0.000683287 -0 -6.54838e-07 -0 3.0206e-09)
(5.6692e-07 -0.000681735 -0 -5.80464e-07 -0 1.35435e-08)
(-1.32801e-07 -0.000683078 -0 1.32143e-07 -0 6.58296e-10)
(-5.58889e-07 -0.000682121 -0 5.67755e-07 -0 -8.86623e-09)
(7.23331e-07 -0.000756491 -0 -7.31253e-07 -0 7.92211e-09)
(5.5542e-07 -0.000754576 -0 -5.55847e-07 -0 4.26158e-10)
(-1.69269e-07 -0.000756572 -0 1.99454e-07 -0 -3.01852e-08)
(-5.32157e-07 -0.000754232 -0 5.22017e-07 -0 1.014e-08)
(7.7707e-07 -0.000840238 -0 -7.67645e-07 -0 -9.4254e-09)
(5.1666e-07 -0.000839039 -0 -4.85395e-07 -0 -3.12644e-08)
(-1.33229e-07 -0.000841298 -0 1.40837e-07 -0 -7.60722e-09)
(-5.05758e-07 -0.00083783 -0 5.11685e-07 -0 -5.92743e-09)
(6.90511e-07 -0.00127672 -0 -5.61578e-07 -0 -1.28933e-07)
(4.7009e-07 -0.00128186 -0 -4.23372e-07 -0 -4.67174e-08)
(-7.8201e-08 -0.00128185 -0 5.41872e-08 -0 2.40138e-08)
(-4.56428e-07 -0.00127447 -0 4.27079e-07 -0 2.93492e-08)
)
;

boundaryField
{
    topWall
    {
        type            calculated;
        value           nonuniform List<symmTensor> 0();
    }
    botWall
    {
        type            calculated;
        value           nonuniform List<symmTensor> 0();
    }
    inlet
    {
        type            cyclic;
    }
    outlet
    {
        type            cyclic;
    }
    fixWall
    {
        type            empty;
    }
    procBoundary3to2
    {
        type            processor;
        value           nonuniform List<symmTensor> 8((-1.58694e-07 -0.000154773 -0 1.40934e-07 -0 1.77606e-08) (-1.22556e-07 -0.000151752 -0 1.28571e-07 -0 -6.01534e-09) (-2.94652e-07 -0.000154929 -0 2.9188e-07 -0 2.7719e-09) (-2.09545e-07 -0.000155192 -0 2.249e-07 -0 -1.53553e-08) (1.9471e-07 -0.00015266 -0 -2.0235e-07 -0 7.64025e-09) (5.11384e-07 -0.000151652 -0 -5.08975e-07 -0 -2.40924e-09) (2.92471e-07 -0.000151149 -0 -2.98132e-07 -0 5.66118e-09) (-2.01768e-07 -0.000154995 -0 2.00472e-07 -0 1.29584e-09));
    }
    procBoundary3to4
    {
        type            processor;
        value           nonuniform List<symmTensor> 8((-2.02565e-08 -0.00465016 -0 -7.32766e-08 -0 9.35331e-08) (6.70747e-08 -0.00459065 -0 -2.28096e-07 -0 1.61021e-07) (-4.89659e-07 -0.00452185 -0 4.49067e-07 -0 4.05912e-08) (-9.22626e-08 -0.00456959 -0 3.24059e-07 -0 -2.31796e-07) (3.14926e-07 -0.00464905 -0 -1.03342e-07 -0 -2.11584e-07) (4.64823e-07 -0.00473736 -0 -5.55788e-07 -0 9.09651e-08) (1.89605e-07 -0.00466866 -0 -2.61681e-07 -0 7.20763e-08) (-3.53085e-07 -0.00464366 -0 2.86725e-07 -0 6.63606e-08));
    }
}


// ************************************************************************* //
