/*--------------------------------*- C++ -*----------------------------------*\
  =========                 |
  \\      /  F ield         | OpenFOAM: The Open Source CFD Toolbox
   \\    /   O peration     | Website:  https://openfoam.org
    \\  /    A nd           | Version:  dev
     \\/     M anipulation  |

   OpenFOAM for Windows 20.09 (v1)
   Built by CFD Support, www.cfdsupport.com (based on Symscape).
\*---------------------------------------------------------------------------*/
FoamFile
{
    version     2.0;
    format      ascii;
    class       volScalarField;
    location    "8";
    object      epsilon;
}
// * * * * * * * * * * * * * * * * * * * * * * * * * * * * * * * * * * * * * //

dimensions      [0 2 -3 0 0 0 0];

internalField   nonuniform List<scalar> 
120
(
3.44543e-15
3.44049e-15
3.43846e-15
3.44804e-15
3.87235e-15
3.867e-15
3.86486e-15
3.87599e-15
4.37575e-15
4.36995e-15
4.3677e-15
4.38075e-15
4.97299e-15
4.96671e-15
4.96434e-15
4.97979e-15
5.68599e-15
5.67915e-15
5.67668e-15
5.69518e-15
6.54255e-15
6.53505e-15
6.53251e-15
6.55489e-15
7.57808e-15
7.56984e-15
7.56721e-15
7.59457e-15
8.83795e-15
8.8288e-15
8.82608e-15
8.8599e-15
1.03806e-14
1.03703e-14
1.03675e-14
1.04097e-14
1.22818e-14
1.22701e-14
1.22671e-14
1.23201e-14
1.46405e-14
1.46269e-14
1.46235e-14
1.46908e-14
1.75869e-14
1.75709e-14
1.75668e-14
1.76526e-14
2.12942e-14
2.12745e-14
2.12693e-14
2.13795e-14
2.59947e-14
2.59697e-14
2.59625e-14
2.61045e-14
3.20022e-14
3.19701e-14
3.19593e-14
3.21433e-14
3.45552e-15
3.45447e-15
3.44987e-15
3.44808e-15
3.88429e-15
3.88307e-15
3.87801e-15
3.87579e-15
4.39001e-15
4.38861e-15
4.383e-15
4.38019e-15
4.99021e-15
4.9886e-15
4.98231e-15
4.97872e-15
5.707e-15
5.70513e-15
5.69803e-15
5.69335e-15
6.56844e-15
6.56626e-15
6.55817e-15
6.552e-15
7.61029e-15
7.60773e-15
7.59842e-15
7.5902e-15
8.87835e-15
8.87544e-15
8.86454e-15
8.85349e-15
1.04317e-14
1.04285e-14
1.04155e-14
1.04005e-14
1.23469e-14
1.23435e-14
1.23278e-14
1.23074e-14
1.47241e-14
1.47208e-14
1.47014e-14
1.46734e-14
1.76946e-14
1.76923e-14
1.76679e-14
1.76295e-14
2.14334e-14
2.14334e-14
2.14023e-14
2.13495e-14
2.61751e-14
2.61799e-14
2.61394e-14
2.60669e-14
3.22371e-14
3.22503e-14
3.21967e-14
3.20976e-14
)
;

boundaryField
{
    topWall
    {
        type            epsilonWallFunction;
        value           nonuniform List<scalar> 0();
    }
    botWall
    {
        type            epsilonWallFunction;
        value           nonuniform List<scalar> 0();
    }
    inlet
    {
        type            cyclic;
    }
    outlet
    {
        type            cyclic;
    }
    fixWall
    {
        type            empty;
    }
    procBoundary3to2
    {
        type            processor;
        value           nonuniform List<scalar> 8(3.07983e-15 3.07528e-15 3.07337e-15 3.08168e-15 3.08847e-15 3.08755e-15 3.08334e-15 3.08187e-15);
    }
    procBoundary3to4
    {
        type            processor;
        value           nonuniform List<scalar> 8(4.01712e-14 4.01311e-14 4.01089e-14 4.03452e-14 4.0476e-14 4.05072e-14 4.04308e-14 4.03039e-14);
    }
}


// ************************************************************************* //
