/*--------------------------------*- C++ -*----------------------------------*\
  =========                 |
  \\      /  F ield         | OpenFOAM: The Open Source CFD Toolbox
   \\    /   O peration     | Website:  https://openfoam.org
    \\  /    A nd           | Version:  dev
     \\/     M anipulation  |

   OpenFOAM for Windows 20.09 (v1)
   Built by CFD Support, www.cfdsupport.com (based on Symscape).
\*---------------------------------------------------------------------------*/
FoamFile
{
    version     2.0;
    format      ascii;
    class       volVectorField;
    location    "8";
    object      gradp_rgh;
}
// * * * * * * * * * * * * * * * * * * * * * * * * * * * * * * * * * * * * * //

dimensions      [1 -2 -2 0 0 0 0];

internalField   nonuniform List<vector> 
120
(
(-1.24818 -0.689447 0)
(-1.23123 -1.70717 0)
(-1.23629 0.326588 0)
(-1.25547 -0.446524 0)
(-1.25163 -0.204298 0)
(-1.23555 -0.532378 0)
(-1.24024 -0.433192 0)
(-1.25802 -0.754547 0)
(-1.2508 -0.0454358 0)
(-1.23504 -0.0108557 0)
(-1.23999 -0.00567579 0)
(-1.25803 0.00640423 0)
(-1.25076 -0.0193182 0)
(-1.23489 -0.000365264 0)
(-1.23996 -0.00535971 0)
(-1.258 0.00634515 0)
(-1.25076 -0.0101097 0)
(-1.23481 0.00239844 0)
(-1.23988 -0.00360131 0)
(-1.25801 0.00663283 0)
(-1.25067 -0.00753724 0)
(-1.23478 0.00745999 0)
(-1.23988 -0.00426502 0)
(-1.258 0.00718552 0)
(-1.25069 -0.00797253 0)
(-1.23475 0.011919 0)
(-1.23988 -0.00354219 0)
(-1.25799 0.00750956 0)
(-1.25049 -0.00881054 0)
(-1.23471 0.00401326 0)
(-1.23996 -0.00314669 0)
(-1.25787 0.00993817 0)
(-1.25055 -0.00911227 0)
(-1.23466 -0.00118318 0)
(-1.23979 0.00528249 0)
(-1.25792 0.00557998 0)
(-1.25053 -0.00928991 0)
(-1.23447 0.0137608 0)
(-1.23985 0.00570387 0)
(-1.25805 0.00358485 0)
(-1.25029 -0.00960115 0)
(-1.23441 0.0138687 0)
(-1.23995 0.0120982 0)
(-1.25804 0.0371072 0)
(-1.25017 -0.00933424 0)
(-1.23411 0.021498 0)
(-1.23946 0.0361237 0)
(-1.25783 0.0433463 0)
(-1.24982 -0.0617878 0)
(-1.23365 -0.0723323 0)
(-1.23959 -0.0573183 0)
(-1.25827 -0.026005 0)
(-1.25011 -103.624 0)
(-1.23403 -92.6531 0)
(-1.23869 -75.7951 0)
(-1.25742 -77.8401 0)
(-1.28499 -2561.84 0)
(-0.769836 -2549.97 0)
(-0.992707 -2535.59 0)
(-1.39965 -2544.02 0)
(-1.26003 -0.0889252 0)
(-1.25148 -0.590938 0)
(-1.2555 0.0311185 0)
(-1.26182 -0.950873 0)
(-1.26059 -0.586951 0)
(-1.24977 -0.796129 0)
(-1.24754 -0.483717 0)
(-1.25665 -0.374857 0)
(-1.26073 -0.00440121 0)
(-1.24976 -0.00947221 0)
(-1.24848 -0.00192796 0)
(-1.25717 -0.0631043 0)
(-1.26085 -0.00380913 0)
(-1.24973 -0.0081408 0)
(-1.24844 -0.00037815 0)
(-1.25738 -0.00314485 0)
(-1.26097 -0.00358213 0)
(-1.2497 -0.00732075 0)
(-1.2484 0.00050651 0)
(-1.25748 -0.00268099 0)
(-1.26108 -0.0030086 0)
(-1.24966 0.00496854 0)
(-1.24836 0.00128795 0)
(-1.25755 0.0034688 0)
(-1.261 0.00437733 0)
(-1.24963 -0.0154879 0)
(-1.24842 -0.00323634 0)
(-1.25763 0.00100887 0)
(-1.26147 0.000801185 0)
(-1.24979 -0.0264541 0)
(-1.24809 -0.0027411 0)
(-1.25763 -0.00442944 0)
(-1.26161 -0.00550542 0)
(-1.24969 -0.00480691 0)
(-1.24805 0.00265304 0)
(-1.25773 0.001125 0)
(-1.26164 -0.001226 0)
(-1.24965 -0.00452616 0)
(-1.24799 0.00305567 0)
(-1.25783 -0.00199797 0)
(-1.26175 0.025328 0)
(-1.24962 0.00627816 0)
(-1.24801 0.0157571 0)
(-1.25794 -0.00766699 0)
(-1.26215 0.0220284 0)
(-1.24981 -0.00898298 0)
(-1.24822 -0.0054092 0)
(-1.25825 -0.00627472 0)
(-1.26262 -0.032563 0)
(-1.25007 -0.0639082 0)
(-1.24797 -0.101341 0)
(-1.258 -0.0760239 0)
(-1.26279 -84.2777 0)
(-1.25096 -97.9633 0)
(-1.24842 -92.1893 0)
(-1.25759 -90.5434 0)
(-1.598 -2560.24 0)
(-1.38193 -2577.08 0)
(-1.1243 -2561.85 0)
(-1.44858 -2561.41 0)
)
;

boundaryField
{
    topWall
    {
        type            extrapolatedCalculated;
        value           nonuniform List<vector> 0();
    }
    botWall
    {
        type            extrapolatedCalculated;
        value           nonuniform List<vector> 0();
    }
    inlet
    {
        type            cyclic;
    }
    outlet
    {
        type            cyclic;
    }
    fixWall
    {
        type            empty;
    }
    procBoundary3to2
    {
        type            processor;
        value           nonuniform List<vector> 8((-1.23902 -0.146299 0) (-1.25249 -0.463348 0) (-1.26125 1.06271 0) (-1.2511 0.331707 0) (-1.25818 0.497429 0) (-1.25177 0.21939 0) (-1.24155 0.516367 0) (-1.24464 -0.262498 0));
    }
    procBoundary3to4
    {
        type            processor;
        value           nonuniform List<vector> 8((-1.05948 -2544.57 0) (-0.796557 -2556.02 0) (-1.13955 -2573.55 0) (-1.66824 -2571.24 0) (-1.81375 -2564.29 0) (-1.27776 -2550.03 0) (-0.987216 -2556.31 0) (-1.25743 -2557.98 0));
    }
}


// ************************************************************************* //
