/*--------------------------------*- C++ -*----------------------------------*\
  =========                 |
  \\      /  F ield         | OpenFOAM: The Open Source CFD Toolbox
   \\    /   O peration     | Website:  https://openfoam.org
    \\  /    A nd           | Version:  dev
     \\/     M anipulation  |

   OpenFOAM for Windows 20.09 (v1)
   Built by CFD Support, www.cfdsupport.com (based on Symscape).
\*---------------------------------------------------------------------------*/
FoamFile
{
    version     2.0;
    format      ascii;
    class       volVectorField;
    location    "8";
    object      gradp;
}
// * * * * * * * * * * * * * * * * * * * * * * * * * * * * * * * * * * * * * //

dimensions      [1 -2 -2 0 0 0 0];

internalField   nonuniform List<vector> 
120
(
(3.75173 -98.8041 0)
(-1.2314 -99.8358 0)
(-1.23646 -97.7863 0)
(-1.25559 -98.5295 0)
(3.74842 -98.2965 0)
(-1.23555 -98.6115 0)
(-1.24026 -98.516 0)
(-1.25804 -98.8253 0)
(3.74921 -98.1446 0)
(-1.23505 -98.1102 0)
(-1.24002 -98.1051 0)
(-1.25805 -98.0933 0)
(3.74924 -98.1198 0)
(-1.2349 -98.1007 0)
(-1.23998 -98.1054 0)
(-1.25801 -98.0931 0)
(3.74923 -98.1102 0)
(-1.23481 -98.0981 0)
(-1.23989 -98.1035 0)
(-1.258 -98.0927 0)
(3.74931 -98.1075 0)
(-1.23478 -98.093 0)
(-1.23989 -98.1042 0)
(-1.25799 -98.0925 0)
(3.74928 -98.1079 0)
(-1.23476 -98.0884 0)
(-1.23988 -98.1035 0)
(-1.25797 -98.0923 0)
(3.74948 -98.1084 0)
(-1.23471 -98.0958 0)
(-1.23995 -98.1031 0)
(-1.25785 -98.0897 0)
(3.74944 -98.1084 0)
(-1.23467 -98.1005 0)
(-1.23978 -98.0942 0)
(-1.2579 -98.0945 0)
(3.74948 -98.1085 0)
(-1.23447 -98.0856 0)
(-1.23985 -98.0938 0)
(-1.25805 -98.0969 0)
(3.74972 -98.1088 0)
(-1.23443 -98.0857 0)
(-1.23997 -98.0886 0)
(-1.25805 -98.0645 0)
(3.74983 -98.109 0)
(-1.23414 -98.0792 0)
(-1.2395 -98.0656 0)
(-1.25785 -98.0583 0)
(3.75015 -98.1086 0)
(-1.2337 -98.0778 0)
(-1.23962 -98.0774 0)
(-1.25828 -98.0851 0)
(3.75023 -97.2267 0)
(-1.23362 -97.3036 0)
(-1.23962 -97.4554 0)
(-1.25832 -97.4335 0)
(3.75064 -74.8952 0)
(-1.23751 -75.2381 0)
(-1.24179 -75.7838 0)
(-1.25721 -75.664 0)
(-1.26008 -98.1857 0)
(-1.25142 -98.669 0)
(-1.25519 -98.07 0)
(3.73841 -99.0658 0)
(-1.26062 -98.6635 0)
(-1.24978 -98.864 0)
(-1.24754 -98.5628 0)
(3.74338 -98.4605 0)
(-1.26073 -98.1027 0)
(-1.24974 -98.1064 0)
(-1.24846 -98.0985 0)
(3.74284 -98.1597 0)
(-1.26084 -98.1027 0)
(-1.24971 -98.1062 0)
(-1.24843 -98.0986 0)
(3.74261 -98.1018 0)
(-1.26095 -98.1024 0)
(-1.24968 -98.1059 0)
(-1.24839 -98.0981 0)
(3.74249 -98.1024 0)
(-1.26106 -98.1022 0)
(-1.24964 -98.0937 0)
(-1.24837 -98.0979 0)
(3.74241 -98.0963 0)
(-1.26097 -98.0951 0)
(-1.2496 -98.1158 0)
(-1.24843 -98.1033 0)
(3.74233 -98.0987 0)
(-1.26145 -98.0989 0)
(-1.24978 -98.128 0)
(-1.24808 -98.1035 0)
(3.74233 -98.1053 0)
(-1.26161 -98.1065 0)
(-1.24968 -98.1063 0)
(-1.24805 -98.0987 0)
(3.74225 -98.1001 0)
(-1.26165 -98.1029 0)
(-1.24965 -98.1064 0)
(-1.24798 -98.0986 0)
(3.74217 -98.1023 0)
(-1.26176 -98.0768 0)
(-1.24961 -98.0952 0)
(-1.24798 -98.0858 0)
(3.74209 -98.1073 0)
(-1.26216 -98.0791 0)
(-1.2498 -98.1088 0)
(-1.24818 -98.105 0)
(3.74179 -98.105 0)
(-1.26261 -98.1055 0)
(-1.25004 -98.1211 0)
(-1.24792 -98.1179 0)
(3.74202 -98.1014 0)
(-1.26276 -97.3912 0)
(-1.25 -97.2783 0)
(-1.24785 -97.3174 0)
(3.74194 -97.3328 0)
(-1.26002 -75.3026 0)
(-1.24881 -74.8588 0)
(-1.24883 -75.1755 0)
(3.74353 -75.2242 0)
)
;

boundaryField
{
    topWall
    {
        type            extrapolatedCalculated;
        value           nonuniform List<vector> 0();
    }
    botWall
    {
        type            extrapolatedCalculated;
        value           nonuniform List<vector> 0();
    }
    inlet
    {
        type            cyclic;
    }
    outlet
    {
        type            cyclic;
    }
    fixWall
    {
        type            empty;
    }
    procBoundary3to2
    {
        type            processor;
        value           nonuniform List<vector> 8((3.76125 -98.2523 0) (-1.25252 -98.5828 0) (-1.26203 -97.0543 0) (-1.25139 -97.7969 0) (-1.25829 -97.6242 0) (-1.25171 -97.9101 0) (-1.24092 -97.6018 0) (3.75561 -98.3741 0));
    }
    procBoundary3to4
    {
        type            processor;
        value           nonuniform List<vector> 8((3.75 -32.3345 0) (-1.24843 -32.6908 0) (-1.24672 -33.2163 0) (-1.2503 -33.0467 0) (-1.24934 -32.5965 0) (-1.24788 -32.1225 0) (-1.25394 -32.5216 0) (3.74661 -32.5603 0));
    }
}


// ************************************************************************* //
