/*--------------------------------*- C++ -*----------------------------------*\
  =========                 |
  \\      /  F ield         | OpenFOAM: The Open Source CFD Toolbox
   \\    /   O peration     | Website:  https://openfoam.org
    \\  /    A nd           | Version:  dev
     \\/     M anipulation  |

   OpenFOAM for Windows 20.09 (v1)
   Built by CFD Support, www.cfdsupport.com (based on Symscape).
\*---------------------------------------------------------------------------*/
FoamFile
{
    version     2.0;
    format      ascii;
    class       volTensorField;
    location    "8";
    object      gradU;
}
// * * * * * * * * * * * * * * * * * * * * * * * * * * * * * * * * * * * * * //

dimensions      [0 0 -1 0 0 0 0];

internalField   nonuniform List<tensor> 
120
(
(0.000281552 6.74523e-05 0 0.945989 -0.000285887 0 0 0 0)
(0.000295392 0.000312965 0 0.93042 -0.000261072 0 0 0 0)
(0.000977561 -0.000196968 0 0.946181 -0.000870052 0 0 0 0)
(0.000437138 -0.000318183 0 0.947561 -0.000434382 0 0 0 0)
(0.000162562 7.16685e-05 0 1.08813 -0.000140037 0 0 0 0)
(0.000312028 0.000307071 0 1.0767 -0.000263595 0 0 0 0)
(0.00107385 -0.000197027 0 1.08943 -0.00125468 0 0 0 0)
(0.00033163 -0.000304488 0 1.08758 -0.000278668 0 0 0 0)
(5.49027e-05 7.6945e-05 0 1.24666 -7.43947e-05 0 0 0 0)
(0.000317132 0.000294388 0 1.23743 -0.000283334 0 0 0 0)
(0.00115886 -0.000197219 0 1.2493 -0.00121901 0 0 0 0)
(0.000226704 -0.000283953 0 1.24564 -0.000203385 0 0 0 0)
(-2.82395e-05 8.20262e-05 0 1.42337 6.07231e-05 0 0 0 0)
(0.000355959 0.000287994 0 1.41677 -0.000301793 0 0 0 0)
(0.00121064 -0.000195694 0 1.42745 -0.00123405 0 0 0 0)
(0.000103409 -0.000270235 0 1.4221 -7.62433e-05 0 0 0 0)
(-8.98377e-05 8.94254e-05 0 1.61942 7.86153e-05 0 0 0 0)
(0.000385154 0.000272808 0 1.6147 -0.000361162 0 0 0 0)
(0.00124769 -0.00019346 0 1.62395 -0.00137483 0 0 0 0)
(-1.88717e-05 -0.000247268 0 1.6182 4.86716e-05 0 0 0 0)
(-0.000134918 9.46227e-05 0 1.83623 0.000147768 0 0 0 0)
(0.000431458 0.00026377 0 1.83351 -0.000358404 0 0 0 0)
(0.00126907 -0.000188864 0 1.84086 -0.00130031 0 0 0 0)
(-0.000139339 -0.000230043 0 1.83507 0.00014683 0 0 0 0)
(-0.000154249 0.000102916 0 2.07454 0.000151203 0 0 0 0)
(0.000462394 0.000248673 0 2.07352 -0.000398694 0 0 0 0)
(0.00127359 -0.00018504 0 2.07927 -0.00134939 0 0 0 0)
(-0.00025423 -0.000207634 0 2.07393 0.000271403 0 0 0 0)
(-0.000160701 0.000108616 0 2.33557 0.000160588 0 0 0 0)
(0.000510362 0.00023876 0 2.33621 -0.00047117 0 0 0 0)
(0.00127586 -0.000177695 0 2.3406 -0.00134061 0 0 0 0)
(-0.000362434 -0.000188479 0 2.33598 0.00037384 0 0 0 0)
(-0.000143678 0.000117106 0 2.61971 0.000155647 0 0 0 0)
(0.000546295 0.000223653 0 2.62187 -0.000493257 0 0 0 0)
(0.00126976 -0.000170956 0 2.62584 -0.00133742 0 0 0 0)
(-0.000470599 -0.000164733 0 2.62209 0.000491909 0 0 0 0)
(-0.000109033 0.000123226 0 2.92785 0.000113779 0 0 0 0)
(0.000612465 0.000213876 0 2.93185 -0.00053248 0 0 0 0)
(0.00127955 -0.000161276 0 2.9358 -0.00133935 0 0 0 0)
(-0.000573502 -0.000144284 0 2.93308 0.000573684 0 0 0 0)
(-4.93176e-05 0.000130987 0 3.26081 4.30593e-05 0 0 0 0)
(0.000678853 0.000199435 0 3.26642 -0.000684452 0 0 0 0)
(0.00129027 -0.00015252 0 3.27149 -0.00135072 0 0 0 0)
(-0.000679446 -0.000119256 0 3.26974 0.000693051 0 0 0 0)
(3.07319e-05 0.000136494 0 3.61916 -5.44512e-05 0 0 0 0)
(0.000790419 0.000190646 0 3.62602 -0.000812033 0 0 0 0)
(0.00133491 -0.000138318 0 3.63318 -0.00152589 0 0 0 0)
(-0.00078153 -9.52543e-05 0 3.63277 0.000808011 0 0 0 0)
(0.000124545 0.000142921 0 4.00208 -0.000173985 0 0 0 0)
(0.000912397 0.000174911 0 4.00927 -0.000787638 0 0 0 0)
(0.00140272 -0.000125519 0 4.01879 -0.00137473 0 0 0 0)
(-0.000878749 -6.47691e-05 0 4.02091 0.00106289 0 0 0 0)
(0.000222294 0.000145975 0 4.45014 -0.000347513 0 0 0 0)
(0.00106889 0.000170634 0 4.45445 -0.000930999 0 0 0 0)
(0.00152902 -0.000107476 0 4.46013 -0.0014671 0 0 0 0)
(-0.000941442 -3.96953e-05 0 4.46324 0.00116585 0 0 0 0)
(0.000351403 0.000150266 0 6.78128 3.27621e-05 0 0 0 0)
(0.00107897 0.000156251 0 6.75978 -0.000346027 0 0 0 0)
(0.00154925 -9.0572e-05 0 6.73209 -0.00115098 0 0 0 0)
(-0.000996739 -6.82946e-06 0 6.75235 0.000395658 0 0 0 0)
(-0.00064995 8.17715e-05 0 0.935202 0.000586863 0 0 0 0)
(-0.00142857 0.00035805 0 0.930483 0.0014132 0 0 0 0)
(-0.000609164 4.77444e-05 0 0.929379 0.000488566 0 0 0 0)
(0.00069604 -0.000352832 0 0.948723 -0.000664479 0 0 0 0)
(-0.000780362 9.59123e-05 0 1.07681 0.000799133 0 0 0 0)
(-0.00145861 0.000356658 0 1.07408 0.00159437 0 0 0 0)
(-0.000456047 2.94459e-05 0 1.07381 0.00042671 0 0 0 0)
(0.000814948 -0.00035924 0 1.0903 -0.000833156 0 0 0 0)
(-0.000875005 0.000112989 0 1.2356 0.000836204 0 0 0 0)
(-0.00147857 0.000351843 0 1.23445 0.00153133 0 0 0 0)
(-0.00033876 7.28566e-06 0 1.23407 0.000276841 0 0 0 0)
(0.000934731 -0.000362278 0 1.24888 -0.000904796 0 0 0 0)
(-0.000966841 0.000124824 0 1.41272 0.000967063 0 0 0 0)
(-0.0014842 0.000347335 0 1.41246 0.0015666 0 0 0 0)
(-0.000215557 -1.11563e-05 0 1.41224 0.000155651 0 0 0 0)
(0.00102483 -0.000365094 0 1.42546 -0.00105061 0 0 0 0)
(-0.00103572 0.000140369 0 1.60939 0.00103667 0 0 0 0)
(-0.00148657 0.000338319 0 1.60979 0.00155237 0 0 0 0)
(-0.00012213 -3.63346e-05 0 1.60972 0.000110563 0 0 0 0)
(0.00112029 -0.00036386 0 1.6211 -0.00111695 0 0 0 0)
(-0.00110711 0.000149886 0 1.82674 0.00107772 0 0 0 0)
(-0.00147867 0.0003319 0 1.82702 0.0015414 0 0 0 0)
(-2.70442e-05 -5.56448e-05 0 1.8275 -5.86934e-05 0 0 0 0)
(0.00118655 -0.000365627 0 1.83738 -0.00116786 0 0 0 0)
(-0.00116982 0.000163612 0 2.06588 0.00114446 0 0 0 0)
(-0.00147396 0.000319379 0 2.0656 0.0015194 0 0 0 0)
(5.04701e-05 -8.14888e-05 0 2.06675 -0.000118461 0 0 0 0)
(0.0012658 -0.000360419 0 2.07507 -0.0012383 0 0 0 0)
(-0.00124588 0.000170686 0 2.32762 0.00123346 0 0 0 0)
(-0.0014642 0.000310851 0 2.32632 0.00154031 0 0 0 0)
(0.000130724 -0.000101606 0 2.32853 -0.000186062 0 0 0 0)
(0.00131627 -0.000361132 0 2.33557 -0.00132254 0 0 0 0)
(-0.00133073 0.000183053 0 2.61317 0.00131424 0 0 0 0)
(-0.00145884 0.00029572 0 2.61065 0.0015195 0 0 0 0)
(0.000204642 -0.000129203 0 2.61372 -0.000269759 0 0 0 0)
(0.00138314 -0.000354641 0 2.61877 -0.00136987 0 0 0 0)
(-0.00143652 0.000187812 0 2.92327 0.00138925 0 0 0 0)
(-0.00145505 0.000284451 0 2.919 0.00149006 0 0 0 0)
(0.000266004 -0.000149763 0 2.92326 -0.000342458 0 0 0 0)
(0.00141608 -0.000354042 0 2.92619 -0.00136539 0 0 0 0)
(-0.00156542 0.000198326 0 3.25901 0.00159109 0 0 0 0)
(-0.00145905 0.000266859 0 3.25278 0.00160411 0 0 0 0)
(0.000324467 -0.000176794 0 3.25833 -0.000373865 0 0 0 0)
(0.00145965 -0.000347037 0 3.25804 -0.00148051 0 0 0 0)
(-0.00171931 0.000202997 0 3.62122 0.00174333 0 0 0 0)
(-0.00146645 0.000251702 0 3.61294 0.00157412 0 0 0 0)
(0.000353668 -0.000201173 0 3.62052 -0.000348434 0 0 0 0)
(0.00145756 -0.000347094 0 3.61559 -0.00152805 0 0 0 0)
(-0.00189583 0.000211095 0 4.00919 0.00195881 0 0 0 0)
(-0.00147073 0.000231996 0 3.99902 0.00147412 0 0 0 0)
(0.000368572 -0.000228496 0 4.01006 -0.000608545 0 0 0 0)
(0.00143709 -0.000342138 0 3.99777 -0.00135647 0 0 0 0)
(-0.00208421 0.000209851 0 4.45305 0.00200928 0 0 0 0)
(-0.001452 0.000208913 0 4.4467 0.00120345 0 0 0 0)
(0.000332899 -0.00024835 0 4.45913 -0.000393376 0 0 0 0)
(0.00132455 -0.000339851 0 4.44084 -0.00137167 0 0 0 0)
(-0.00217153 0.000211722 0 6.76639 0.00114651 0 0 0 0)
(-0.00136954 0.000191952 0 6.79368 0.000998135 0 0 0 0)
(0.000270869 -0.000271415 0 6.79406 -7.99594e-05 0 0 0 0)
(0.00128731 -0.000341373 0 6.75502 -0.00105398 0 0 0 0)
)
;

boundaryField
{
    topWall
    {
        type            extrapolatedCalculated;
        value           nonuniform List<tensor> 0();
    }
    botWall
    {
        type            extrapolatedCalculated;
        value           nonuniform List<tensor> 0();
    }
    inlet
    {
        type            cyclic;
    }
    outlet
    {
        type            cyclic;
    }
    fixWall
    {
        type            empty;
    }
    procBoundary3to2
    {
        type            processor;
        value           nonuniform List<tensor> 8((0.000467606 6.49451e-05 0 0.820234 -0.000326409 0 0 0 0) (0.000308832 0.000316807 0 0.803969 -0.000356654 0 0 0 0) (0.000788173 -0.000194138 0 0.821318 -0.000766136 0 0 0 0) (0.000514603 -0.00032877 0 0.822845 -0.000636677 0 0 0 0) (-0.000495734 6.51192e-05 0 0.809035 0.000556474 0 0 0 0) (-0.00136155 0.000358296 0 0.803395 0.0013424 0 0 0 0) (-0.000760045 6.40739e-05 0 0.801024 0.000805051 0 0 0 0) (0.000538118 -0.000346333 0 0.821819 -0.000527816 0 0 0 0));
    }
    procBoundary3to4
    {
        type            processor;
        value           nonuniform List<tensor> 8((0.000301542 0.000157774 0 24.6457 0.000442046 0 0 0 0) (0.000248957 0.000150905 0 24.3303 0.00103116 0 0 0 0) (0.00140516 -9.51141e-05 0 23.9659 -0.00108246 0 0 0 0) (-0.000369764 -1.40372e-06 0 24.2188 -0.00147302 0 0 0 0) (-0.00139525 0.000219892 0 24.6398 -0.000286842 0 0 0 0) (-0.000990724 0.000188471 0 25.1078 0.0017139 0 0 0 0) (-0.000311451 -0.000282552 0 24.7442 0.000884458 0 0 0 0) (0.00111153 -0.000337972 0 24.6117 -0.000583964 0 0 0 0));
    }
}


// ************************************************************************* //
