/*--------------------------------*- C++ -*----------------------------------*\
  =========                 |
  \\      /  F ield         | OpenFOAM: The Open Source CFD Toolbox
   \\    /   O peration     | Website:  https://openfoam.org
    \\  /    A nd           | Version:  dev
     \\/     M anipulation  |

   OpenFOAM for Windows 20.09 (v1)
   Built by CFD Support, www.cfdsupport.com (based on Symscape).
\*---------------------------------------------------------------------------*/
FoamFile
{
    version     2.0;
    format      ascii;
    class       volScalarField;
    location    "8";
    object      k;
}
// * * * * * * * * * * * * * * * * * * * * * * * * * * * * * * * * * * * * * //

dimensions      [0 2 -2 0 0 0 0];

internalField   nonuniform List<scalar> 
120
(
2.26065e-15
2.25765e-15
2.25655e-15
2.26224e-15
2.51132e-15
2.50806e-15
2.50689e-15
2.51324e-15
2.79002e-15
2.78651e-15
2.78525e-15
2.79234e-15
3.10017e-15
3.09638e-15
3.09503e-15
3.10297e-15
3.44564e-15
3.44157e-15
3.44012e-15
3.44902e-15
3.83088e-15
3.82652e-15
3.82495e-15
3.83495e-15
4.261e-15
4.25634e-15
4.25464e-15
4.26592e-15
4.74191e-15
4.73693e-15
4.73509e-15
4.74786e-15
5.28049e-15
5.27518e-15
5.27318e-15
5.28769e-15
5.88478e-15
5.87912e-15
5.87697e-15
5.89351e-15
6.56432e-15
6.55828e-15
6.55596e-15
6.5749e-15
7.3305e-15
7.32405e-15
7.32152e-15
7.34332e-15
8.19706e-15
8.19013e-15
8.18737e-15
8.21257e-15
9.18077e-15
9.17331e-15
9.17024e-15
9.19954e-15
1.03021e-14
1.0294e-14
1.02906e-14
1.03248e-14
2.26736e-15
2.26671e-15
2.26364e-15
2.26258e-15
2.51889e-15
2.51813e-15
2.51484e-15
2.51361e-15
2.79858e-15
2.79771e-15
2.79419e-15
2.79273e-15
3.10985e-15
3.10886e-15
3.10511e-15
3.10337e-15
3.45663e-15
3.4555e-15
3.4515e-15
3.44942e-15
3.84337e-15
3.84209e-15
3.83783e-15
3.83532e-15
4.27524e-15
4.27378e-15
4.26925e-15
4.26622e-15
4.75818e-15
4.75654e-15
4.75171e-15
4.74804e-15
5.29913e-15
5.29729e-15
5.29213e-15
5.28768e-15
5.90621e-15
5.90416e-15
5.89863e-15
5.89323e-15
6.58904e-15
6.58679e-15
6.58081e-15
6.57425e-15
7.35909e-15
7.35666e-15
7.35014e-15
7.34217e-15
8.23022e-15
8.22765e-15
8.22045e-15
8.21079e-15
9.21934e-15
9.21674e-15
9.20865e-15
9.19696e-15
1.03472e-14
1.03446e-14
1.03353e-14
1.03212e-14
)
;

boundaryField
{
    topWall
    {
        type            kqRWallFunction;
        value           nonuniform List<scalar> 0();
    }
    botWall
    {
        type            kqRWallFunction;
        value           nonuniform List<scalar> 0();
    }
    inlet
    {
        type            cyclic;
    }
    outlet
    {
        type            cyclic;
    }
    fixWall
    {
        type            empty;
    }
    procBoundary3to2
    {
        type            processor;
        value           nonuniform List<scalar> 8(2.03503e-15 2.03229e-15 2.03125e-15 2.03635e-15 2.04099e-15 2.04043e-15 2.03757e-15 2.03665e-15);
    }
    procBoundary3to4
    {
        type            processor;
        value           nonuniform List<scalar> 8(1.1566e-14 1.15577e-14 1.15542e-14 1.15942e-14 1.16192e-14 1.16164e-14 1.16058e-14 1.1589e-14);
    }
}


// ************************************************************************* //
