/*--------------------------------*- C++ -*----------------------------------*\
  =========                 |
  \\      /  F ield         | OpenFOAM: The Open Source CFD Toolbox
   \\    /   O peration     | Website:  https://openfoam.org
    \\  /    A nd           | Version:  dev
     \\/     M anipulation  |

   OpenFOAM for Windows 20.09 (v1)
   Built by CFD Support, www.cfdsupport.com (based on Symscape).
\*---------------------------------------------------------------------------*/
FoamFile
{
    version     2.0;
    format      ascii;
    class       volScalarField;
    location    "8";
    object      nut;
}
// * * * * * * * * * * * * * * * * * * * * * * * * * * * * * * * * * * * * * //

dimensions      [0 2 -1 0 0 0 0];

internalField   nonuniform List<scalar> 
120
(
1.33495e-16
1.33333e-16
1.33281e-16
1.33583e-16
1.46579e-16
1.46402e-16
1.46345e-16
1.46666e-16
1.60105e-16
1.59914e-16
1.59852e-16
1.60189e-16
1.73939e-16
1.73733e-16
1.73665e-16
1.74015e-16
1.87922e-16
1.87704e-16
1.87627e-16
1.87986e-16
2.0188e-16
2.01652e-16
2.01564e-16
2.01929e-16
2.15629e-16
2.15392e-16
2.15294e-16
2.15658e-16
2.2898e-16
2.28737e-16
2.28629e-16
2.28986e-16
2.41751e-16
2.41504e-16
2.41388e-16
2.41734e-16
2.53771e-16
2.53524e-16
2.53401e-16
2.53732e-16
2.64891e-16
2.6465e-16
2.64523e-16
2.64835e-16
2.74992e-16
2.74759e-16
2.74633e-16
2.74927e-16
2.83986e-16
2.83769e-16
2.83647e-16
2.83926e-16
2.91821e-16
2.91627e-16
2.91513e-16
2.91782e-16
2.98477e-16
2.98312e-16
2.98214e-16
2.98482e-16
1.33897e-16
1.33861e-16
1.33676e-16
1.3362e-16
1.47011e-16
1.46969e-16
1.46776e-16
1.46716e-16
1.60565e-16
1.60517e-16
1.60319e-16
1.60254e-16
1.74423e-16
1.74368e-16
1.74167e-16
1.74098e-16
1.88425e-16
1.88364e-16
1.88163e-16
1.8809e-16
2.02397e-16
2.02329e-16
2.02131e-16
2.02057e-16
2.16153e-16
2.16079e-16
2.15885e-16
2.15812e-16
2.29505e-16
2.29422e-16
2.29238e-16
2.2917e-16
2.42269e-16
2.42175e-16
2.42004e-16
2.41946e-16
2.54274e-16
2.54168e-16
2.54014e-16
2.5397e-16
2.65374e-16
2.65253e-16
2.65119e-16
2.65096e-16
2.75454e-16
2.75309e-16
2.75199e-16
2.75202e-16
2.84429e-16
2.84251e-16
2.84167e-16
2.84201e-16
2.92249e-16
2.92031e-16
2.91971e-16
2.9204e-16
2.98902e-16
2.98632e-16
2.98594e-16
2.98699e-16
)
;

boundaryField
{
    topWall
    {
        type            nutkWallFunction;
        Cmu             0.09;
        kappa           0.41;
        E               9.8;
        value           nonuniform List<scalar> 0();
    }
    botWall
    {
        type            nutkWallFunction;
        Cmu             0.09;
        kappa           0.41;
        E               9.8;
        value           nonuniform List<scalar> 0();
    }
    inlet
    {
        type            cyclic;
    }
    outlet
    {
        type            cyclic;
    }
    fixWall
    {
        type            empty;
    }
    procBoundary3to2
    {
        type            processor;
        value           nonuniform List<scalar> 8(1.2102e-16 1.20872e-16 1.20825e-16 1.21105e-16 1.2139e-16 1.2136e-16 1.21184e-16 1.21133e-16);
    }
    procBoundary3to4
    {
        type            processor;
        value           nonuniform List<scalar> 8(1.89439e-16 1.91694e-16 1.94527e-16 1.93698e-16 1.91004e-16 1.87577e-16 1.89978e-16 1.90333e-16);
    }
}


// ************************************************************************* //
