/*--------------------------------*- C++ -*----------------------------------*\
  =========                 |
  \\      /  F ield         | OpenFOAM: The Open Source CFD Toolbox
   \\    /   O peration     | Website:  https://openfoam.org
    \\  /    A nd           | Version:  dev
     \\/     M anipulation  |

   OpenFOAM for Windows 20.09 (v1)
   Built by CFD Support, www.cfdsupport.com (based on Symscape).
\*---------------------------------------------------------------------------*/
FoamFile
{
    version     2.0;
    format      ascii;
    class       volScalarField;
    location    "8";
    object      omega;
}
// * * * * * * * * * * * * * * * * * * * * * * * * * * * * * * * * * * * * * //

dimensions      [0 0 -1 0 0 0 0];

internalField   nonuniform List<scalar> 
120
(
16.9344
16.9325
16.9308
16.9352
17.1329
17.1314
17.13
17.1358
17.4262
17.425
17.4239
17.4316
17.8234
17.8226
17.8219
17.8316
18.3355
18.3351
18.3349
18.3472
18.976
18.9759
18.9763
18.9916
19.7608
19.7609
19.762
19.781
20.7088
20.7091
20.7108
20.7342
21.8427
21.843
21.8453
21.874
23.1894
23.1896
23.1924
23.2273
24.7812
24.781
24.7841
24.8264
26.6571
26.6563
26.6593
26.7101
28.8643
28.8619
28.8647
28.9251
31.4603
31.4556
31.4574
31.5288
34.5154
34.5076
34.5075
34.5911
16.9337
16.9333
16.9338
16.9329
17.134
17.1338
17.1339
17.1325
17.4295
17.4294
17.429
17.4269
17.8294
17.8293
17.8284
17.8255
18.3448
18.3448
18.3432
18.3392
18.9892
18.9893
18.9869
18.9814
19.7787
19.7788
19.7756
19.7682
20.7324
20.7327
20.7283
20.7185
21.873
21.8738
21.8679
21.8548
23.2277
23.2293
23.2216
23.2044
24.8293
24.8321
24.822
24.7995
26.7162
26.7215
26.7084
26.6792
28.936
28.945
28.9283
28.8908
31.5461
31.5608
31.5396
31.4921
34.6172
34.64
34.6134
34.554
)
;

boundaryField
{
    topWall
    {
        beta1           0.075;
        blended         0;
        type            omegaWallFunction;
        value           nonuniform List<scalar> 0();
    }
    botWall
    {
        beta1           0.075;
        blended         0;
        type            omegaWallFunction;
        value           nonuniform List<scalar> 0();
    }
    inlet
    {
        type            cyclic;
    }
    outlet
    {
        type            cyclic;
    }
    fixWall
    {
        type            empty;
    }
    procBoundary3to2
    {
        type            processor;
        value           nonuniform List<scalar> 8(16.8156 16.8135 16.8116 16.8148 16.8135 16.8131 16.8138 16.8134);
    }
    procBoundary3to4
    {
        type            processor;
        value           nonuniform List<scalar> 8(38.5912 38.5805 38.5706 38.664 38.7061 38.7451 38.7076 38.6418);
    }
}


// ************************************************************************* //
