/*--------------------------------*- C++ -*----------------------------------*\
  =========                 |
  \\      /  F ield         | OpenFOAM: The Open Source CFD Toolbox
   \\    /   O peration     | Website:  https://openfoam.org
    \\  /    A nd           | Version:  dev
     \\/     M anipulation  |

   OpenFOAM for Windows 20.09 (v1)
   Built by CFD Support, www.cfdsupport.com (based on Symscape).
\*---------------------------------------------------------------------------*/
FoamFile
{
    version     2.0;
    format      ascii;
    class       volScalarField;
    location    "8";
    object      p;
}
// * * * * * * * * * * * * * * * * * * * * * * * * * * * * * * * * * * * * * //

dimensions      [1 -1 -2 0 0 0 0];

internalField   nonuniform List<scalar> 
120
(
-3.69891
-3.76068
-3.82205
-3.88432
-3.78093
-3.84326
-3.90449
-3.96729
-3.86274
-3.92503
-3.98624
-4.04903
-3.94451
-4.00678
-4.068
-4.13077
-4.02627
-4.08853
-4.14975
-4.21252
-4.10803
-4.17027
-4.2315
-4.29426
-4.18978
-4.25202
-4.31326
-4.37601
-4.27154
-4.33375
-4.39501
-4.45775
-4.3533
-4.41551
-4.47676
-4.53949
-4.43505
-4.49725
-4.5585
-4.62124
-4.51681
-4.57899
-4.64025
-4.70298
-4.59857
-4.66073
-4.72198
-4.78468
-4.68032
-4.74245
-4.80369
-4.86641
-4.76208
-4.82419
-4.88544
-4.94816
-4.84237
-4.90462
-4.96612
-5.0288
-3.94761
-4.01033
-4.07275
-4.13585
-4.03029
-4.09335
-4.15527
-4.2181
-4.11205
-4.1751
-4.23702
-4.29995
-4.1938
-4.25686
-4.31877
-4.3817
-4.27555
-4.33861
-4.40052
-4.46345
-4.3573
-4.42037
-4.48227
-4.5452
-4.43905
-4.5021
-4.56401
-4.62695
-4.52079
-4.58389
-4.64577
-4.7087
-4.60255
-4.66565
-4.72752
-4.79045
-4.6843
-4.7474
-4.80927
-4.8722
-4.76606
-4.82916
-4.89102
-4.95396
-4.84777
-4.9109
-4.97275
-5.03571
-4.92952
-4.99267
-5.05453
-5.11747
-5.01128
-5.07443
-5.13628
-5.19922
-5.09184
-5.15481
-5.21672
-5.27969
)
;

boundaryField
{
    topWall
    {
        type            calculated;
        value           nonuniform List<scalar> 0();
    }
    botWall
    {
        type            calculated;
        value           nonuniform List<scalar> 0();
    }
    inlet
    {
        type            cyclic;
    }
    outlet
    {
        type            cyclic;
    }
    fixWall
    {
        type            empty;
    }
    procBoundary3to2
    {
        type            processor;
        value           nonuniform List<scalar> 8(-3.61626 -3.67687 -3.74151 -3.80307 -3.86665 -3.9289 -3.99182 -4.05299);
    }
    procBoundary3to4
    {
        type            processor;
        value           nonuniform List<scalar> 8(-4.88691 -4.94959 -5.01175 -5.07426 -5.13678 -5.1992 -5.26157 -5.32459);
    }
}


// ************************************************************************* //
