/*--------------------------------*- C++ -*----------------------------------*\
  =========                 |
  \\      /  F ield         | OpenFOAM: The Open Source CFD Toolbox
   \\    /   O peration     | Website:  https://openfoam.org
    \\  /    A nd           | Version:  dev
     \\/     M anipulation  |

   OpenFOAM for Windows 20.09 (v1)
   Built by CFD Support, www.cfdsupport.com (based on Symscape).
\*---------------------------------------------------------------------------*/
FoamFile
{
    version     2.0;
    format      ascii;
    class       volScalarField;
    location    "8";
    object      p_rgh;
}
// * * * * * * * * * * * * * * * * * * * * * * * * * * * * * * * * * * * * * //

dimensions      [1 -1 -2 0 0 0 0];

internalField   nonuniform List<scalar> 
120
(
0.0207263
-0.0410195
-0.102396
-0.164648
0.02044
-0.041887
-0.103115
-0.165911
0.0203858
-0.0419068
-0.103118
-0.165906
0.0203642
-0.0419051
-0.103125
-0.165901
0.0203536
-0.0419074
-0.103127
-0.165895
0.0203474
-0.0419011
-0.103131
-0.16589
0.020341
-0.041895
-0.103134
-0.165883
0.0203341
-0.0418812
-0.103137
-0.165877
0.0203264
-0.0418883
-0.10314
-0.165867
0.0203189
-0.0418832
-0.103128
-0.165868
0.0203109
-0.0418653
-0.10313
-0.165861
0.0203029
-0.0418601
-0.103108
-0.165806
0.0202953
-0.0418295
-0.10307
-0.165789
0.0201999
-0.0419806
-0.103203
-0.165849
-0.152412
-0.196251
-0.229395
-0.295522
-0.227944
-0.290652
-0.353091
-0.416202
-0.228918
-0.29197
-0.353895
-0.416724
-0.228922
-0.291979
-0.353897
-0.416826
-0.228925
-0.291986
-0.353898
-0.41683
-0.228928
-0.291992
-0.353898
-0.416832
-0.228931
-0.291998
-0.353897
-0.416834
-0.228933
-0.291984
-0.353896
-0.416826
-0.228924
-0.292024
-0.353903
-0.416832
-0.228932
-0.292028
-0.353901
-0.416833
-0.228933
-0.292032
-0.353898
-0.416831
-0.228934
-0.292035
-0.353895
-0.416837
-0.228891
-0.292021
-0.353872
-0.416843
-0.228897
-0.29205
-0.353904
-0.416847
-0.228945
-0.292128
-0.354041
-0.41697
-0.36936
-0.455323
-0.507553
-0.567753
)
;

boundaryField
{
    topWall
    {
        type            zeroGradient;
    }
    botWall
    {
        type            zeroGradient;
    }
    inlet
    {
        type            fixedJump;
        patchType       cyclic;
        jump            uniform -0.5;
        value           nonuniform List<scalar> 
15
(
-0.110082
0.051615
0.0517241
0.0517298
0.0517371
0.0517442
0.0517465
0.0517509
0.0517576
0.0517567
0.051761
0.0517673
0.0517797
0.0518578
0.0522623
)
;
    }
    outlet
    {
        type            fixedJump;
        patchType       cyclic;
        value           nonuniform List<scalar> 
15
(
-0.610082
-0.448385
-0.448276
-0.44827
-0.448263
-0.448256
-0.448253
-0.448249
-0.448242
-0.448243
-0.448239
-0.448233
-0.44822
-0.448142
-0.447738
)
;
    }
    fixWall
    {
        type            empty;
    }
    procBoundary3to2
    {
        type            processor;
        value           nonuniform List<scalar> 8(0.021589 -0.0390417 -0.10366 -0.165167 -0.22877 -0.290985 -0.353947 -0.41514);
    }
    procBoundary3to4
    {
        type            processor;
        value           nonuniform List<scalar> 8(-4.24954 -4.29193 -4.32919 -4.40589 -4.49602 -4.58726 -4.62379 -4.68599);
    }
}


// ************************************************************************* //
