/*--------------------------------*- C++ -*----------------------------------*\
  =========                 |
  \\      /  F ield         | OpenFOAM: The Open Source CFD Toolbox
   \\    /   O peration     | Website:  https://openfoam.org
    \\  /    A nd           | Version:  dev
     \\/     M anipulation  |

   OpenFOAM for Windows 20.09 (v1)
   Built by CFD Support, www.cfdsupport.com (based on Symscape).
\*---------------------------------------------------------------------------*/
FoamFile
{
    version     2.0;
    format      ascii;
    class       surfaceScalarField;
    location    "8";
    object      phi;
}
// * * * * * * * * * * * * * * * * * * * * * * * * * * * * * * * * * * * * * //

dimensions      [0 3 -1 0 0 0 0];

internalField   nonuniform List<scalar> 
217
(
3.90643e-08
-5.51586e-10
3.90753e-08
1.68368e-10
3.91199e-08
9.93659e-10
-8.12902e-10
3.91353e-08
3.97646e-08
-5.58504e-10
3.97753e-08
1.57658e-10
3.98229e-08
9.46002e-10
-8.25857e-10
3.98359e-08
4.05687e-08
-5.60952e-10
4.05795e-08
1.46893e-10
4.06308e-08
8.94673e-10
-8.3443e-10
4.06394e-08
4.14898e-08
-5.60052e-10
4.1502e-08
1.34684e-10
4.15555e-08
8.41103e-10
-8.37889e-10
4.1559e-08
4.25409e-08
-5.56294e-10
4.25547e-08
1.20899e-10
4.26096e-08
7.86238e-10
-8.36334e-10
4.2608e-08
4.37355e-08
-5.50568e-10
4.37512e-08
1.05178e-10
4.3807e-08
7.30454e-10
-8.29766e-10
4.38004e-08
4.50893e-08
-5.44072e-10
4.51064e-08
8.81357e-11
4.51623e-08
6.74569e-10
-8.18453e-10
4.5151e-08
4.6616e-08
-5.37216e-10
4.66352e-08
6.89787e-11
4.6691e-08
6.18713e-10
-8.02772e-10
4.66753e-08
4.83336e-08
-5.31049e-10
4.83542e-08
4.83305e-11
4.84098e-08
5.63072e-10
-7.82562e-10
4.83896e-08
5.0256e-08
-5.26298e-10
5.02794e-08
2.49166e-11
5.03355e-08
5.06998e-10
-7.58012e-10
5.03109e-08
5.24027e-08
-5.23971e-10
5.2429e-08
-1.3558e-12
5.24855e-08
4.50534e-10
-7.29078e-10
5.24565e-08
5.47887e-08
-5.24915e-10
5.48197e-08
-3.24031e-11
5.48779e-08
3.92318e-10
-6.95915e-10
5.48448e-08
5.7434e-08
-5.29705e-10
5.74701e-08
-6.85125e-11
5.75312e-08
3.31249e-10
-6.58741e-10
5.7494e-08
6.03521e-08
-5.38517e-10
6.03947e-08
-1.11194e-10
6.0461e-08
2.6494e-10
-6.1899e-10
6.04213e-08
6.3618e-08
6.36607e-08
6.3728e-08
6.36861e-08
3.91111e-08
-5.58514e-10
3.9047e-08
-3.67037e-10
3.9025e-08
1.22874e-09
-1.7951e-10
3.98041e-08
-5.26751e-10
3.97409e-08
-3.03788e-10
3.97242e-08
1.24543e-09
-2.12966e-10
4.06037e-08
-4.91043e-10
4.05395e-08
-2.39616e-10
4.05279e-08
1.25702e-09
-2.51318e-10
4.15195e-08
-4.51493e-10
4.1455e-08
-1.75198e-10
4.14486e-08
1.26344e-09
-2.93365e-10
4.25656e-08
-4.09069e-10
4.25011e-08
-1.10669e-10
4.24985e-08
1.26598e-09
-3.3952e-10
4.3755e-08
-3.63663e-10
4.36908e-08
-4.64528e-11
4.36922e-08
1.26456e-09
-3.88507e-10
4.5103e-08
-3.15682e-10
4.50389e-08
1.75591e-11
4.50435e-08
1.26001e-09
-4.40833e-10
4.66241e-08
-2.64465e-10
4.65604e-08
8.12589e-11
4.65685e-08
1.25195e-09
-4.95217e-10
4.83349e-08
-2.09705e-10
4.82714e-08
1.44736e-10
4.82825e-08
1.2408e-09
-5.52391e-10
5.02518e-08
-1.506e-10
5.01884e-08
2.08098e-10
5.02022e-08
1.22707e-09
-6.10948e-10
5.2392e-08
-8.6111e-11
5.23285e-08
2.71635e-10
5.23447e-08
1.2109e-09
-6.71339e-10
5.47739e-08
-1.52747e-11
5.47099e-08
3.35672e-10
5.47274e-08
1.19336e-09
-7.31622e-10
5.74158e-08
6.29581e-11
5.73517e-08
3.99812e-10
5.73697e-08
1.17529e-09
-7.91119e-10
6.03352e-08
1.49054e-10
6.02718e-08
4.6322e-10
6.02884e-08
1.15868e-09
-8.45958e-10
6.35961e-08
6.3536e-08
6.35507e-08
)
;

boundaryField
{
    topWall
    {
        type            calculated;
        value           nonuniform List<scalar> 0();
    }
    botWall
    {
        type            calculated;
        value           nonuniform List<scalar> 0();
    }
    inlet
    {
        type            cyclic;
        value           nonuniform List<scalar> 
15
(
-6.36032e-08
-6.03432e-08
-5.74292e-08
-5.47877e-08
-5.2405e-08
-5.02607e-08
-4.83397e-08
-4.66229e-08
-4.50958e-08
-4.37412e-08
-4.25447e-08
-4.14907e-08
-4.05663e-08
-3.97577e-08
-3.90543e-08
)
;
    }
    outlet
    {
        type            cyclic;
        value           nonuniform List<scalar> 
15
(
6.36032e-08
6.03432e-08
5.74292e-08
5.47877e-08
5.2405e-08
5.02607e-08
4.83397e-08
4.66229e-08
4.50958e-08
4.37412e-08
4.25447e-08
4.14907e-08
4.05663e-08
3.97577e-08
3.90543e-08
)
;
    }
    fixWall
    {
        type            empty;
        value           nonuniform List<scalar> 0();
    }
    procBoundary3to2
    {
        type            processor;
        value           nonuniform List<scalar> 8(5.43311e-10 -1.79704e-10 -1.03763e-09 7.97831e-10 5.83916e-10 4.31683e-10 -1.20667e-09 1.51153e-10);
    }
    procBoundary3to4
    {
        type            processor;
        value           nonuniform List<scalar> 8(-5.50762e-10 -1.55135e-10 1.98135e-10 -5.78364e-10 2.39511e-10 5.24389e-10 1.14357e-09 -8.98886e-10);
    }
}


// ************************************************************************* //
