/*--------------------------------*- C++ -*----------------------------------*\
  =========                 |
  \\      /  F ield         | OpenFOAM: The Open Source CFD Toolbox
   \\    /   O peration     | Website:  https://openfoam.org
    \\  /    A nd           | Version:  dev
     \\/     M anipulation  |

   OpenFOAM for Windows 20.09 (v1)
   Built by CFD Support, www.cfdsupport.com (based on Symscape).
\*---------------------------------------------------------------------------*/
FoamFile
{
    version     2.0;
    format      ascii;
    class       volSymmTensorField;
    location    "8";
    object      R;
}
// * * * * * * * * * * * * * * * * * * * * * * * * * * * * * * * * * * * * * //

dimensions      [0 2 -2 0 0 0 0];

internalField   nonuniform List<symmTensor> 
120
(
(1.50702e-15 -1.26294e-16 -0 1.50717e-15 -0 1.5071e-15)
(1.50503e-15 -1.24097e-16 -0 1.50517e-15 -0 1.5051e-15)
(1.50412e-15 -1.26082e-16 -0 1.50461e-15 -0 1.50438e-15)
(1.50805e-15 -1.26535e-16 -0 1.50828e-15 -0 1.50816e-15)
(1.67417e-15 -1.59507e-16 -0 1.67425e-15 -0 1.67421e-15)
(1.67196e-15 -1.57676e-16 -0 1.67212e-15 -0 1.67205e-15)
(1.67093e-15 -1.59405e-16 -0 1.67161e-15 -0 1.67124e-15)
(1.6754e-15 -1.59466e-16 -0 1.67558e-15 -0 1.6755e-15)
(1.86e-15 -1.99609e-16 -0 1.86004e-15 -0 1.86001e-15)
(1.85757e-15 -1.97929e-16 -0 1.85777e-15 -0 1.85767e-15)
(1.85646e-15 -1.99671e-16 -0 1.85722e-15 -0 1.85683e-15)
(1.86149e-15 -1.99492e-16 -0 1.86163e-15 -0 1.86157e-15)
(2.06679e-15 -2.47593e-16 -0 2.06676e-15 -0 2.06679e-15)
(2.06414e-15 -2.46191e-16 -0 2.06437e-15 -0 2.06426e-15)
(2.06293e-15 -2.47864e-16 -0 2.06378e-15 -0 2.06335e-15)
(2.06861e-15 -2.4742e-16 -0 2.06868e-15 -0 2.06865e-15)
(2.29713e-15 -3.04341e-16 -0 2.29706e-15 -0 2.29709e-15)
(2.29424e-15 -3.03136e-16 -0 2.29452e-15 -0 2.29438e-15)
(2.29293e-15 -3.0466e-16 -0 2.29391e-15 -0 2.2934e-15)
(2.29936e-15 -3.04154e-16 -0 2.29933e-15 -0 2.29935e-15)
(2.55398e-15 -3.70718e-16 -0 2.55386e-15 -0 2.55392e-15)
(2.55085e-15 -3.69784e-16 -0 2.55117e-15 -0 2.55102e-15)
(2.54945e-15 -3.71015e-16 -0 2.55049e-15 -0 2.54996e-15)
(2.55669e-15 -3.70506e-16 -0 2.55658e-15 -0 2.55664e-15)
(2.84074e-15 -4.47353e-16 -0 2.8406e-15 -0 2.84067e-15)
(2.83737e-15 -4.46672e-16 -0 2.83774e-15 -0 2.83757e-15)
(2.83587e-15 -4.47615e-16 -0 2.837e-15 -0 2.83641e-15)
(2.84406e-15 -4.47214e-16 -0 2.84383e-15 -0 2.84395e-15)
(3.16135e-15 -5.34824e-16 -0 3.1612e-15 -0 3.16128e-15)
(3.15773e-15 -5.34431e-16 -0 3.15818e-15 -0 3.15796e-15)
(3.15614e-15 -5.35089e-16 -0 3.15733e-15 -0 3.15672e-15)
(3.16541e-15 -5.34864e-16 -0 3.16507e-15 -0 3.16524e-15)
(3.52039e-15 -6.33345e-16 -0 3.52025e-15 -0 3.52033e-15)
(3.51653e-15 -6.33246e-16 -0 3.51703e-15 -0 3.51679e-15)
(3.51483e-15 -6.33803e-16 -0 3.51609e-15 -0 3.51545e-15)
(3.52536e-15 -6.33808e-16 -0 3.52489e-15 -0 3.52513e-15)
(3.92324e-15 -7.43033e-16 -0 3.92313e-15 -0 3.92319e-15)
(3.91912e-15 -7.4335e-16 -0 3.9197e-15 -0 3.91943e-15)
(3.91732e-15 -7.43894e-16 -0 3.91865e-15 -0 3.91797e-15)
(3.92929e-15 -7.44178e-16 -0 3.92871e-15 -0 3.929e-15)
(4.37624e-15 -8.63796e-16 -0 4.37619e-15 -0 4.37622e-15)
(4.37183e-15 -8.6451e-16 -0 4.37255e-15 -0 4.37219e-15)
(4.36995e-15 -8.65343e-16 -0 4.37134e-15 -0 4.37063e-15)
(4.38363e-15 -8.65912e-16 -0 4.3829e-15 -0 4.38327e-15)
(4.88698e-15 -9.95279e-16 -0 4.88703e-15 -0 4.887e-15)
(4.88226e-15 -9.96332e-16 -0 4.88314e-15 -0 4.88269e-15)
(4.88025e-15 -9.97753e-16 -0 4.88182e-15 -0 4.88098e-15)
(4.89598e-15 -9.9872e-16 -0 4.89511e-15 -0 4.89555e-15)
(5.46462e-15 -1.13657e-15 -0 5.46479e-15 -0 5.4647e-15)
(5.45959e-15 -1.13776e-15 -0 5.46056e-15 -0 5.46011e-15)
(5.45745e-15 -1.13988e-15 -0 5.45903e-15 -0 5.45825e-15)
(5.47558e-15 -1.14162e-15 -0 5.47448e-15 -0 5.47508e-15)
(6.12036e-15 -1.29869e-15 -0 6.12069e-15 -0 6.12049e-15)
(6.11495e-15 -1.29909e-15 -0 6.11611e-15 -0 6.11557e-15)
(6.11261e-15 -1.30016e-15 -0 6.11436e-15 -0 6.11351e-15)
(6.13362e-15 -1.30228e-15 -0 6.13239e-15 -0 6.13307e-15)
(6.86791e-15 -2.0241e-15 -0 6.8681e-15 -0 6.86812e-15)
(6.86219e-15 -2.01657e-15 -0 6.86304e-15 -0 6.86284e-15)
(6.85956e-15 -2.00757e-15 -0 6.86117e-15 -0 6.86048e-15)
(6.8837e-15 -2.01545e-15 -0 6.88287e-15 -0 6.88311e-15)
(1.51174e-15 -1.25231e-16 -0 1.51141e-15 -0 1.51157e-15)
(1.51152e-15 -1.24603e-16 -0 1.51076e-15 -0 1.51114e-15)
(1.50924e-15 -1.24242e-16 -0 1.50895e-15 -0 1.50908e-15)
(1.5082e-15 -1.26722e-16 -0 1.50857e-15 -0 1.50839e-15)
(1.67949e-15 -1.58316e-16 -0 1.67903e-15 -0 1.67926e-15)
(1.6792e-15 -1.57908e-16 -0 1.6783e-15 -0 1.67877e-15)
(1.67669e-15 -1.57614e-16 -0 1.67643e-15 -0 1.67656e-15)
(1.6755e-15 -1.59912e-16 -0 1.67598e-15 -0 1.67574e-15)
(1.866e-15 -1.98413e-16 -0 1.86545e-15 -0 1.86571e-15)
(1.86562e-15 -1.98206e-16 -0 1.86465e-15 -0 1.86515e-15)
(1.8629e-15 -1.97846e-16 -0 1.8627e-15 -0 1.86279e-15)
(1.86153e-15 -2.00079e-16 -0 1.86212e-15 -0 1.86183e-15)
(2.07357e-15 -2.46432e-16 -0 2.0729e-15 -0 2.07324e-15)
(2.0731e-15 -2.46349e-16 -0 2.07204e-15 -0 2.07258e-15)
(2.07014e-15 -2.45963e-16 -0 2.07001e-15 -0 2.07007e-15)
(2.06856e-15 -2.48106e-16 -0 2.06928e-15 -0 2.06891e-15)
(2.30481e-15 -3.03276e-16 -0 2.30403e-15 -0 2.30442e-15)
(2.30423e-15 -3.0329e-16 -0 2.30309e-15 -0 2.30367e-15)
(2.30104e-15 -3.02882e-16 -0 2.30096e-15 -0 2.301e-15)
(2.29919e-15 -3.04844e-16 -0 2.30003e-15 -0 2.29961e-15)
(2.56269e-15 -3.69758e-16 -0 2.56181e-15 -0 2.56224e-15)
(2.562e-15 -3.69727e-16 -0 2.56078e-15 -0 2.5614e-15)
(2.55855e-15 -3.69382e-16 -0 2.55857e-15 -0 2.55854e-15)
(2.55641e-15 -3.7118e-16 -0 2.55736e-15 -0 2.55689e-15)
(2.85066e-15 -4.46584e-16 -0 2.84966e-15 -0 2.85016e-15)
(2.84983e-15 -4.46402e-16 -0 2.84854e-15 -0 2.84919e-15)
(2.84614e-15 -4.46164e-16 -0 2.84621e-15 -0 2.84616e-15)
(2.84361e-15 -4.47748e-16 -0 2.84469e-15 -0 2.84415e-15)
(3.17269e-15 -5.3424e-16 -0 3.17155e-15 -0 3.17212e-15)
(3.17171e-15 -5.33781e-16 -0 3.17033e-15 -0 3.17104e-15)
(3.16774e-15 -5.33763e-16 -0 3.16788e-15 -0 3.1678e-15)
(3.16476e-15 -5.3516e-16 -0 3.16597e-15 -0 3.16536e-15)
(3.5334e-15 -6.33134e-16 -0 3.53211e-15 -0 3.53275e-15)
(3.53224e-15 -6.32307e-16 -0 3.5308e-15 -0 3.53154e-15)
(3.52798e-15 -6.325e-16 -0 3.52821e-15 -0 3.52808e-15)
(3.52445e-15 -6.33514e-16 -0 3.52579e-15 -0 3.52512e-15)
(3.9382e-15 -7.4336e-16 -0 3.93676e-15 -0 3.93747e-15)
(3.93685e-15 -7.4199e-16 -0 3.93536e-15 -0 3.93612e-15)
(3.93227e-15 -7.42511e-16 -0 3.93258e-15 -0 3.9324e-15)
(3.92811e-15 -7.43075e-16 -0 3.92952e-15 -0 3.92883e-15)
(4.39353e-15 -8.64909e-16 -0 4.39185e-15 -0 4.3927e-15)
(4.39199e-15 -8.62878e-16 -0 4.39037e-15 -0 4.39122e-15)
(4.38702e-15 -8.63798e-16 -0 4.38739e-15 -0 4.38719e-15)
(4.38205e-15 -8.636e-16 -0 4.38361e-15 -0 4.38283e-15)
(4.90701e-15 -9.97535e-16 -0 4.9051e-15 -0 4.90606e-15)
(4.90527e-15 -9.94743e-16 -0 4.90359e-15 -0 4.90446e-15)
(4.8999e-15 -9.96308e-16 -0 4.90028e-15 -0 4.90009e-15)
(4.89396e-15 -9.94922e-16 -0 4.89561e-15 -0 4.89477e-15)
(5.4879e-15 -1.14039e-15 -0 5.48571e-15 -0 5.48682e-15)
(5.48594e-15 -1.13679e-15 -0 5.48427e-15 -0 5.4851e-15)
(5.48005e-15 -1.13946e-15 -0 5.4806e-15 -0 5.48026e-15)
(5.47306e-15 -1.13607e-15 -0 5.47464e-15 -0 5.47387e-15)
(6.14743e-15 -1.30146e-15 -0 6.14504e-15 -0 6.14621e-15)
(6.14529e-15 -1.29864e-15 -0 6.14374e-15 -0 6.14444e-15)
(6.1389e-15 -1.30186e-15 -0 6.13932e-15 -0 6.13909e-15)
(6.13052e-15 -1.2968e-15 -0 6.1321e-15 -0 6.1313e-15)
(6.8992e-15 -2.02255e-15 -0 6.89721e-15 -0 6.8979e-15)
(6.89714e-15 -2.02887e-15 -0 6.89573e-15 -0 6.89632e-15)
(6.89011e-15 -2.02859e-15 -0 6.89032e-15 -0 6.89027e-15)
(6.8801e-15 -2.01762e-15 -0 6.8815e-15 -0 6.88087e-15)
)
;

boundaryField
{
    topWall
    {
        type            kqRWallFunction;
        value           nonuniform List<symmTensor> 0();
    }
    botWall
    {
        type            kqRWallFunction;
        value           nonuniform List<symmTensor> 0();
    }
    inlet
    {
        type            cyclic;
    }
    outlet
    {
        type            cyclic;
    }
    fixWall
    {
        type            empty;
    }
    procBoundary3to2
    {
        type            processor;
        value           nonuniform List<symmTensor> 8((1.35659e-15 -9.92729e-17 -0 1.35678e-15 -0 1.3567e-15) (1.35478e-15 -9.7216e-17 -0 1.35494e-15 -0 1.35485e-15) (1.35398e-15 -9.9212e-17 -0 1.35435e-15 -0 1.35417e-15) (1.35743e-15 -9.96105e-17 -0 1.35771e-15 -0 1.35756e-15) (1.36079e-15 -9.82165e-17 -0 1.36053e-15 -0 1.36067e-15) (1.36062e-15 -9.75431e-17 -0 1.35996e-15 -0 1.36029e-15) (1.35857e-15 -9.70793e-17 -0 1.35819e-15 -0 1.35838e-15) (1.35764e-15 -9.95075e-17 -0 1.3579e-15 -0 1.35777e-15));
    }
    procBoundary3to4
    {
        type            processor;
        value           nonuniform List<symmTensor> 8((7.71066e-15 -4.66888e-15 -0 7.71061e-15 -0 7.71078e-15) (7.70519e-15 -4.66399e-15 -0 7.70489e-15 -0 7.70528e-15) (7.70231e-15 -4.66201e-15 -0 7.70328e-15 -0 7.70286e-15) (7.7294e-15 -4.69114e-15 -0 7.72983e-15 -0 7.72926e-15) (7.74645e-15 -4.70633e-15 -0 7.74603e-15 -0 7.74592e-15) (7.74476e-15 -4.70969e-15 -0 7.74374e-15 -0 7.74439e-15) (7.73737e-15 -4.70079e-15 -0 7.73691e-15 -0 7.73725e-15) (7.72567e-15 -4.68435e-15 -0 7.72632e-15 -0 7.72609e-15));
    }
}


// ************************************************************************* //
