/*--------------------------------*- C++ -*----------------------------------*\
  =========                 |
  \\      /  F ield         | OpenFOAM: The Open Source CFD Toolbox
   \\    /   O peration     | Website:  https://openfoam.org
    \\  /    A nd           | Version:  dev
     \\/     M anipulation  |

   OpenFOAM for Windows 20.09 (v1)
   Built by CFD Support, www.cfdsupport.com (based on Symscape).
\*---------------------------------------------------------------------------*/
FoamFile
{
    version     2.0;
    format      ascii;
    class       volVectorField;
    location    "8";
    object      U;
}
// * * * * * * * * * * * * * * * * * * * * * * * * * * * * * * * * * * * * * //

dimensions      [0 1 -1 0 0 0 0];

internalField   nonuniform List<vector> 
120
(
(0.0468863 -1.09428e-05 0)
(0.0468695 3.52852e-06 0)
(0.0469158 2.03537e-05 0)
(0.0469673 -1.61683e-05 0)
(0.0477299 -1.11935e-05 0)
(0.0477041 3.28464e-06 0)
(0.0477611 1.95136e-05 0)
(0.0478115 -1.6418e-05 0)
(0.0486998 -1.11762e-05 0)
(0.048664 3.08919e-06 0)
(0.0487315 1.82626e-05 0)
(0.0487799 -1.66328e-05 0)
(0.0498077 -1.13175e-05 0)
(0.0497665 2.81241e-06 0)
(0.0498433 1.74819e-05 0)
(0.0498875 -1.6757e-05 0)
(0.0510721 -1.1075e-05 0)
(0.0510253 2.58621e-06 0)
(0.0511106 1.62058e-05 0)
(0.0511501 -1.67598e-05 0)
(0.0525067 -1.11865e-05 0)
(0.0524576 2.21048e-06 0)
(0.0525499 1.51905e-05 0)
(0.0525846 -1.66759e-05 0)
(0.0541325 -1.08287e-05 0)
(0.0540812 1.98887e-06 0)
(0.0541787 1.40386e-05 0)
(0.0542085 -1.65151e-05 0)
(0.0559643 -1.09345e-05 0)
(0.0559135 1.54599e-06 0)
(0.0560153 1.29415e-05 0)
(0.0560411 -1.62236e-05 0)
(0.0580251 -1.05611e-05 0)
(0.0579748 1.20358e-06 0)
(0.0580797 1.18043e-05 0)
(0.0581018 -1.5892e-05 0)
(0.0603305 -1.06751e-05 0)
(0.0602833 7.23892e-07 0)
(0.0603917 1.07125e-05 0)
(0.0604112 -1.54037e-05 0)
(0.0629048 -1.03714e-05 0)
(0.0628613 3.16116e-07 0)
(0.0629727 9.57202e-06 0)
(0.0629903 -1.49359e-05 0)
(0.0657652 -1.06033e-05 0)
(0.0657273 -4.1686e-07 0)
(0.0658442 8.46131e-06 0)
(0.0658608 -1.42486e-05 0)
(0.0689368 -1.04622e-05 0)
(0.0689046 -1.03727e-06 0)
(0.069028 7.02886e-06 0)
(0.0690449 -1.35892e-05 0)
(0.0724353 -1.08933e-05 0)
(0.0724094 -1.72959e-06 0)
(0.0725422 6.1701e-06 0)
(0.0725623 -1.24771e-05 0)
(0.0763537 -1.10414e-05 0)
(0.0763287 -2.58894e-06 0)
(0.0764616 4.5837e-06 0)
(0.0764836 -1.16461e-05 0)
(0.0469595 -1.14646e-05 0)
(0.0469023 -7.99115e-06 0)
(0.0468167 2.43404e-05 0)
(0.0468413 -3.21671e-06 0)
(0.0477943 -1.09353e-05 0)
(0.0477334 -6.82681e-06 0)
(0.0476484 2.47305e-05 0)
(0.0476878 -3.88222e-06 0)
(0.0487542 -1.01327e-05 0)
(0.0486924 -5.33387e-06 0)
(0.0486063 2.50515e-05 0)
(0.0486585 -4.60531e-06 0)
(0.0498536 -9.54158e-06 0)
(0.0497909 -4.27459e-06 0)
(0.0497052 2.51919e-05 0)
(0.0497693 -5.39021e-06 0)
(0.0511087 -8.52096e-06 0)
(0.0510465 -2.72288e-06 0)
(0.0509601 2.5311e-05 0)
(0.0510343 -6.35633e-06 0)
(0.052536 -7.81379e-06 0)
(0.0524738 -1.68731e-06 0)
(0.0523881 2.53762e-05 0)
(0.0524711 -7.25179e-06 0)
(0.0541533 -6.72477e-06 0)
(0.0540915 -1.53878e-07 0)
(0.0540059 2.52131e-05 0)
(0.0540966 -8.30276e-06 0)
(0.0559791 -5.90635e-06 0)
(0.0559165 8.45029e-07 0)
(0.0558327 2.51788e-05 0)
(0.0559296 -9.31562e-06 0)
(0.0580327 -4.669e-06 0)
(0.0579687 2.4133e-06 0)
(0.0578868 2.4903e-05 0)
(0.0579892 -1.0507e-05 0)
(0.0603344 -3.71594e-06 0)
(0.0602676 3.37753e-06 0)
(0.0601889 2.47292e-05 0)
(0.0602942 -1.15987e-05 0)
(0.0629048 -2.35359e-06 0)
(0.0628337 4.89674e-06 0)
(0.0627589 2.43323e-05 0)
(0.0628662 -1.27826e-05 0)
(0.0657661 -1.06412e-06 0)
(0.0656889 6.05105e-06 0)
(0.0656194 2.41061e-05 0)
(0.0657243 -1.40663e-05 0)
(0.0689402 5.51951e-07 0)
(0.0688553 7.52027e-06 0)
(0.0687931 2.37516e-05 0)
(0.0688922 -1.53294e-05 0)
(0.0724481 2.20057e-06 0)
(0.0723539 8.50792e-06 0)
(0.0723029 2.30918e-05 0)
(0.0723872 -1.63271e-05 0)
(0.0763619 3.90075e-06 0)
(0.0762665 9.52602e-06 0)
(0.076225 2.30959e-05 0)
(0.0762936 -1.76155e-05 0)
)
;

boundaryField
{
    topWall
    {
        type            noSlip;
    }
    botWall
    {
        type            noSlip;
    }
    inlet
    {
        type            cyclic;
    }
    outlet
    {
        type            cyclic;
    }
    fixWall
    {
        type            empty;
    }
    procBoundary3to2
    {
        type            processor;
        value           nonuniform List<vector> 8((0.0461533 -1.0717e-05 0) (0.0461534 3.71976e-06 0) (0.0461842 2.09637e-05 0) (0.0462322 -1.56941e-05 0) (0.0462356 -1.19134e-05 0) (0.0461826 -9.18214e-06 0) (0.0460995 2.39163e-05 0) (0.0461066 -2.77475e-06 0));
    }
    procBoundary3to4
    {
        type            processor;
        value           nonuniform List<vector> 8((0.0837374 -1.08387e-05 0) (0.0836757 -2.3063e-06 0) (0.0837623 4.25179e-06 0) (0.0838163 -1.18177e-05 0) (0.0837254 4.11142e-06 0) (0.0836767 1.01715e-05 0) (0.0836263 2.29586e-05 0) (0.0836456 -1.80837e-05 0));
    }
}


// ************************************************************************* //
