/*--------------------------------*- C++ -*----------------------------------*\
  =========                 |
  \\      /  F ield         | OpenFOAM: The Open Source CFD Toolbox
   \\    /   O peration     | Website:  https://openfoam.org
    \\  /    A nd           | Version:  dev
     \\/     M anipulation  |

   OpenFOAM for Windows 20.09 (v1)
   Built by CFD Support, www.cfdsupport.com (based on Symscape).
\*---------------------------------------------------------------------------*/
FoamFile
{
    version     2.0;
    format      ascii;
    class       volVectorField;
    location    "8";
    object      UMean;
}
// * * * * * * * * * * * * * * * * * * * * * * * * * * * * * * * * * * * * * //

dimensions      [0 1 -1 0 0 0 0];

internalField   nonuniform List<vector> 
120
(
(0.0274244 8.1084e-06 0)
(0.0274049 -1.15801e-05 0)
(0.0273856 -2.84238e-06 0)
(0.0274123 -3.09862e-06 0)
(0.0278083 8.38817e-06 0)
(0.0277844 -1.13527e-05 0)
(0.0277636 -2.81422e-06 0)
(0.027786 -3.1196e-06 0)
(0.0282695 8.21349e-06 0)
(0.0282412 -1.07123e-05 0)
(0.0282188 -2.93013e-06 0)
(0.028239 -3.48668e-06 0)
(0.0288209 8.22724e-06 0)
(0.028789 -1.04835e-05 0)
(0.0287653 -2.89736e-06 0)
(0.0287838 -3.73573e-06 0)
(0.0294778 8.03124e-06 0)
(0.0294428 -9.60852e-06 0)
(0.0294182 -2.86862e-06 0)
(0.0294357 -3.64161e-06 0)
(0.0302566 8.18772e-06 0)
(0.0302197 -9.37736e-06 0)
(0.0301942 -2.82307e-06 0)
(0.0302107 -4.24894e-06 0)
(0.0311767 7.78055e-06 0)
(0.0311382 -8.59101e-06 0)
(0.031112 -2.8881e-06 0)
(0.0311277 -4.09842e-06 0)
(0.0322572 8.16977e-06 0)
(0.0322189 -8.22079e-06 0)
(0.0321919 -2.64809e-06 0)
(0.0322064 -4.56994e-06 0)
(0.0335224 7.45985e-06 0)
(0.0334837 -7.43829e-06 0)
(0.0334562 -2.81202e-06 0)
(0.0334697 -4.5263e-06 0)
(0.0349933 8.1438e-06 0)
(0.0349564 -7.08569e-06 0)
(0.034929 -2.45263e-06 0)
(0.0349404 -4.89131e-06 0)
(0.0366993 7.04103e-06 0)
(0.036662 -5.99172e-06 0)
(0.0366353 -2.47965e-06 0)
(0.0366451 -4.87537e-06 0)
(0.0386625 8.16901e-06 0)
(0.0386274 -6.46438e-06 0)
(0.0386025 -2.47668e-06 0)
(0.0386092 -5.23279e-06 0)
(0.0409186 6.86224e-06 0)
(0.0408809 -5.1808e-06 0)
(0.0408577 -2.64593e-06 0)
(0.0408637 -5.45713e-06 0)
(0.0434875 8.05147e-06 0)
(0.0434505 -4.29402e-06 0)
(0.0434288 -1.48929e-06 0)
(0.0434337 -4.78271e-06 0)
(0.0464344 7.96031e-06 0)
(0.0463902 -4.46496e-06 0)
(0.0463649 -2.75731e-06 0)
(0.0463727 -5.28134e-06 0)
(0.0274228 9.00729e-06 0)
(0.0274263 -5.97274e-06 0)
(0.0274124 -9.1763e-06 0)
(0.0274023 1.50074e-05 0)
(0.0277967 9.14804e-06 0)
(0.0278075 -5.7615e-06 0)
(0.0277868 -8.93953e-06 0)
(0.0277783 1.49245e-05 0)
(0.0282495 8.52587e-06 0)
(0.0282653 -5.88848e-06 0)
(0.0282393 -8.8135e-06 0)
(0.0282325 1.45442e-05 0)
(0.0287945 8.57615e-06 0)
(0.0288141 -5.56125e-06 0)
(0.0287844 -8.30648e-06 0)
(0.0287795 1.41984e-05 0)
(0.0294462 8.07116e-06 0)
(0.0294685 -5.72572e-06 0)
(0.0294357 -8.22753e-06 0)
(0.0294321 1.4036e-05 0)
(0.0302215 7.85991e-06 0)
(0.0302458 -5.43244e-06 0)
(0.0302111 -7.75693e-06 0)
(0.030209 1.32489e-05 0)
(0.0311386 7.45263e-06 0)
(0.0311643 -5.47322e-06 0)
(0.0311276 -7.46906e-06 0)
(0.0311263 1.31962e-05 0)
(0.0322179 7.25752e-06 0)
(0.0322448 -5.30446e-06 0)
(0.0322073 -7.08472e-06 0)
(0.0322066 1.23288e-05 0)
(0.0334814 6.73893e-06 0)
(0.033509 -5.13838e-06 0)
(0.03347 -6.75941e-06 0)
(0.0334694 1.22731e-05 0)
(0.0349525 6.57615e-06 0)
(0.034981 -5.31193e-06 0)
(0.0349423 -6.44135e-06 0)
(0.0349418 1.133e-05 0)
(0.0366568 5.92414e-06 0)
(0.0366854 -4.64133e-06 0)
(0.036646 -6.0633e-06 0)
(0.0366453 1.0947e-05 0)
(0.0386203 6.03304e-06 0)
(0.0386495 -5.38889e-06 0)
(0.0386118 -5.56428e-06 0)
(0.0386115 1.10453e-05 0)
(0.0408719 5.31018e-06 0)
(0.0409 -4.4032e-06 0)
(0.0408634 -5.26899e-06 0)
(0.0408645 1.03457e-05 0)
(0.0434387 5.05695e-06 0)
(0.0434655 -5.08044e-06 0)
(0.0434348 -5.00939e-06 0)
(0.0434405 8.95585e-06 0)
(0.0463704 5.09758e-06 0)
(0.046399 -4.57976e-06 0)
(0.0463675 -4.90918e-06 0)
(0.0463754 1.07039e-05 0)
)
;

boundaryField
{
    topWall
    {
        type            calculated;
        value           nonuniform List<vector> 0();
    }
    botWall
    {
        type            calculated;
        value           nonuniform List<vector> 0();
    }
    inlet
    {
        type            cyclic;
    }
    outlet
    {
        type            cyclic;
    }
    fixWall
    {
        type            empty;
    }
    procBoundary3to2
    {
        type            processor;
        value           nonuniform List<vector> 8((0.0271052 8.29645e-06 0) (0.0270884 -1.18401e-05 0) (0.0270685 -2.56659e-06 0) (0.0271035 -2.59808e-06 0) (0.0271174 9.0519e-06 0) (0.027111 -6.25201e-06 0) (0.0271052 -9.57576e-06 0) (0.0270939 1.51004e-05 0));
    }
    procBoundary3to4
    {
        type            processor;
        value           nonuniform List<vector> 8((0.0520876 7.02271e-06 0) (0.0520462 -3.2524e-06 0) (0.0519933 -1.64989e-06 0) (0.0520205 -5.14445e-06 0) (0.0520076 4.49568e-06 0) (0.052045 -4.81978e-06 0) (0.0520182 -4.57334e-06 0) (0.0520214 8.2602e-06 0));
    }
}


// ************************************************************************* //
