/*--------------------------------*- C++ -*----------------------------------*\
  =========                 |
  \\      /  F ield         | OpenFOAM: The Open Source CFD Toolbox
   \\    /   O peration     | Website:  https://openfoam.org
    \\  /    A nd           | Version:  dev
     \\/     M anipulation  |

   OpenFOAM for Windows 20.09 (v1)
   Built by CFD Support, www.cfdsupport.com (based on Symscape).
\*---------------------------------------------------------------------------*/
FoamFile
{
    version     2.0;
    format      ascii;
    class       volSymmTensorField;
    location    "8";
    object      UPrime2Mean;
}
// * * * * * * * * * * * * * * * * * * * * * * * * * * * * * * * * * * * * * //

dimensions      [0 2 -2 0 0 0 0];

internalField   nonuniform List<symmTensor> 
120
(
(8.79267e-05 -5.81421e-08 0 2.72871e-10 0 0)
(8.81376e-05 1.12401e-07 0 2.34244e-10 0 0)
(8.85015e-05 3.33012e-08 0 1.25938e-10 0 0)
(8.85534e-05 -1.32401e-07 0 3.45637e-10 0 0)
(9.20541e-05 -6.17867e-08 0 2.79255e-10 0 0)
(9.22708e-05 1.13237e-07 0 2.25066e-10 0 0)
(9.27767e-05 3.33291e-08 0 1.17698e-10 0 0)
(9.27689e-05 -1.30975e-07 0 3.10386e-10 0 0)
(9.67989e-05 -6.45016e-08 0 2.86065e-10 0 0)
(9.70012e-05 1.11265e-07 0 2.0449e-10 0 0)
(9.76323e-05 3.04762e-08 0 1.13767e-10 0 0)
(9.75601e-05 -1.36548e-07 0 3.28557e-10 0 0)
(0.000102187 -6.78471e-08 0 2.77265e-10 0 0)
(0.000102408 1.11683e-07 0 1.92135e-10 0 0)
(0.000103138 2.96994e-08 0 1.07902e-10 0 0)
(0.000102994 -1.34236e-07 0 2.92827e-10 0 0)
(0.000108308 -6.92812e-08 0 2.82103e-10 0 0)
(0.000108528 1.09421e-07 0 1.73962e-10 0 0)
(0.000109343 2.81167e-08 0 9.95631e-11 0 0)
(0.000109125 -1.37541e-07 0 2.87651e-10 0 0)
(0.000115175 -7.54002e-08 0 2.80558e-10 0 0)
(0.000115425 1.09391e-07 0 1.60084e-10 0 0)
(0.000116303 2.56795e-08 0 9.63008e-11 0 0)
(0.000116012 -1.3711e-07 0 2.71533e-10 0 0)
(0.000122879 -7.54042e-08 0 2.81513e-10 0 0)
(0.000123137 1.06066e-07 0 1.40642e-10 0 0)
(0.000124068 2.44521e-08 0 8.91566e-11 0 0)
(0.000123702 -1.38086e-07 0 2.52446e-10 0 0)
(0.000131402 -8.34081e-08 0 2.8314e-10 0 0)
(0.000131709 1.06406e-07 0 1.30918e-10 0 0)
(0.000132674 2.23029e-08 0 8.40448e-11 0 0)
(0.000132239 -1.37327e-07 0 2.35822e-10 0 0)
(0.000140833 -8.25513e-08 0 2.83497e-10 0 0)
(0.000141165 1.01788e-07 0 1.12514e-10 0 0)
(0.000142156 2.12139e-08 0 7.6952e-11 0 0)
(0.000141652 -1.37273e-07 0 2.16869e-10 0 0)
(0.000151098 -9.41667e-08 0 2.9353e-10 0 0)
(0.000151522 1.03114e-07 0 1.07425e-10 0 0)
(0.000152524 1.94943e-08 0 7.27215e-11 0 0)
(0.000151952 -1.35963e-07 0 1.99059e-10 0 0)
(0.000162278 -9.07117e-08 0 2.88408e-10 0 0)
(0.00016277 9.76455e-08 0 9.53173e-11 0 0)
(0.000163788 1.94669e-08 0 6.04012e-11 0 0)
(0.000163136 -1.3401e-07 0 1.79073e-10 0 0)
(0.000174229 -1.0967e-07 0 3.21923e-10 0 0)
(0.000174886 9.41457e-08 0 7.7452e-11 0 0)
(0.000175913 1.54764e-08 0 6.88919e-11 0 0)
(0.000175183 -1.33481e-07 0 1.66808e-10 0 0)
(0.000187008 -1.01537e-07 0 2.96731e-10 0 0)
(0.000187788 8.60879e-08 0 6.70876e-11 0 0)
(0.000188876 1.50337e-08 0 5.5164e-11 0 0)
(0.000188037 -1.31002e-07 0 1.55973e-10 0 0)
(0.000200396 -1.32955e-07 0 3.87156e-10 0 0)
(0.000201388 8.83335e-08 0 7.72364e-11 0 0)
(0.000202559 1.89261e-08 0 4.63865e-11 0 0)
(0.000201633 -1.20574e-07 0 1.12175e-10 0 0)
(0.000215038 -1.35085e-07 0 4.26212e-10 0 0)
(0.000216008 5.97188e-08 0 4.63517e-11 0 0)
(0.000217328 1.27573e-08 0 5.36711e-11 0 0)
(0.000216304 -1.23929e-07 0 1.24651e-10 0 0)
(8.83815e-05 -4.60991e-08 0 7.08981e-11 0 0)
(8.82026e-05 -1.4593e-08 0 6.06459e-11 0 0)
(8.776e-05 1.27062e-07 0 2.80843e-10 0 0)
(8.76874e-05 -2.99335e-08 0 6.29241e-11 0 0)
(9.24915e-05 -4.44899e-08 0 7.20739e-11 0 0)
(9.22942e-05 -1.17209e-08 0 6.6051e-11 0 0)
(9.18825e-05 1.32646e-07 0 2.918e-10 0 0)
(9.18882e-05 -2.98131e-08 0 6.88797e-11 0 0)
(9.71948e-05 -4.58671e-08 0 6.1106e-11 0 0)
(9.7005e-05 -8.90678e-09 0 6.94147e-11 0 0)
(9.65946e-05 1.36765e-07 0 2.91828e-10 0 0)
(9.66685e-05 -3.42882e-08 0 6.78419e-11 0 0)
(0.000102552 -4.27125e-08 0 6.19612e-11 0 0)
(0.000102366 -7.34414e-09 0 7.01965e-11 0 0)
(0.00010196 1.4147e-07 0 2.93831e-10 0 0)
(0.000102094 -3.29844e-08 0 7.3962e-11 0 0)
(0.000108616 -4.21531e-08 0 5.4608e-11 0 0)
(0.00010845 -2.84555e-09 0 7.77449e-11 0 0)
(0.000108028 1.46608e-07 0 2.96757e-10 0 0)
(0.000108216 -3.74722e-08 0 7.72781e-11 0 0)
(0.00011544 -4.12442e-08 0 5.02794e-11 0 0)
(0.000115289 -3.026e-09 0 7.7631e-11 0 0)
(0.000114857 1.51389e-07 0 2.94247e-10 0 0)
(0.000115096 -3.87244e-08 0 7.79682e-11 0 0)
(0.000123071 -3.85187e-08 0 4.66883e-11 0 0)
(0.000122939 2.39808e-09 0 8.41028e-11 0 0)
(0.00012249 1.56673e-07 0 2.96607e-10 0 0)
(0.000122771 -4.14592e-08 0 8.59095e-11 0 0)
(0.000131546 -3.77594e-08 0 4.24637e-11 0 0)
(0.000131424 2.25347e-09 0 8.77184e-11 0 0)
(0.000130967 1.62189e-07 0 2.93416e-10 0 0)
(0.000131293 -4.33823e-08 0 8.65914e-11 0 0)
(0.000140895 -3.45376e-08 0 4.00066e-11 0 0)
(0.000140776 7.42552e-09 0 8.95128e-11 0 0)
(0.000140316 1.67567e-07 0 2.95293e-10 0 0)
(0.000140674 -4.80035e-08 0 9.48502e-11 0 0)
(0.000151128 -3.33436e-08 0 3.6454e-11 0 0)
(0.000150998 8.25143e-09 0 1.02563e-10 0 0)
(0.000150543 1.74041e-07 0 2.92599e-10 0 0)
(0.000150929 -4.96581e-08 0 9.62612e-11 0 0)
(0.000162249 -3.04676e-08 0 3.43211e-11 0 0)
(0.000162091 1.19127e-08 0 9.12552e-11 0 0)
(0.000161659 1.76897e-07 0 2.83097e-10 0 0)
(0.000162048 -5.91431e-08 0 9.65063e-11 0 0)
(0.000174235 -2.56776e-08 0 3.71931e-11 0 0)
(0.000174027 1.5124e-08 0 1.22599e-10 0 0)
(0.000173627 1.8934e-07 0 3.02452e-10 0 0)
(0.000173993 -5.17157e-08 0 1.24898e-10 0 0)
(0.000187058 -2.32888e-08 0 3.75259e-11 0 0)
(0.000186768 1.83625e-08 0 1.00715e-10 0 0)
(0.000186453 1.92382e-07 0 2.91948e-10 0 0)
(0.000186739 -6.46093e-08 0 1.17845e-10 0 0)
(0.000200622 -1.90367e-08 0 3.54099e-11 0 0)
(0.000200247 2.13707e-08 0 1.32317e-10 0 0)
(0.000200029 1.92053e-07 0 2.62474e-10 0 0)
(0.000200141 -7.37548e-08 0 1.05275e-10 0 0)
(0.000215308 -7.84743e-09 0 5.29309e-11 0 0)
(0.000214823 2.16365e-08 0 1.18843e-10 0 0)
(0.000214784 2.06361e-07 0 2.87237e-10 0 0)
(0.000214767 -7.50469e-08 0 1.43477e-10 0 0)
)
;

boundaryField
{
    topWall
    {
        type            calculated;
        value           nonuniform List<symmTensor> 0();
    }
    botWall
    {
        type            calculated;
        value           nonuniform List<symmTensor> 0();
    }
    inlet
    {
        type            cyclic;
    }
    outlet
    {
        type            cyclic;
    }
    fixWall
    {
        type            empty;
    }
    procBoundary3to2
    {
        type            processor;
        value           nonuniform List<symmTensor> 8((8.43429e-05 -5.60581e-08 0 2.72859e-10 0 0) (8.46007e-05 1.1382e-07 0 2.52224e-10 0 0) (8.47709e-05 3.44308e-08 0 1.26237e-10 0 0) (8.48642e-05 -1.29827e-07 0 3.46371e-10 0 0) (8.48021e-05 -4.66564e-08 0 7.38101e-11 0 0) (8.46518e-05 -1.70504e-08 0 6.09843e-11 0 0) (8.4185e-05 1.23089e-07 0 2.7667e-10 0 0) (8.39975e-05 -3.0772e-08 0 5.90049e-11 0 0));
    }
    procBoundary3to4
    {
        type            processor;
        value           nonuniform List<symmTensor> 8((0.000242211 -1.40075e-07 0 3.69753e-10 0 0) (0.000242385 8.14667e-08 0 6.4214e-11 0 0) (0.000243936 1.684e-08 0 4.1276e-11 0 0) (0.000243407 -1.24241e-07 0 1.01993e-10 0 0) (0.000242404 -1.43363e-08 0 4.13493e-11 0 0) (0.000242211 2.59423e-08 0 1.29798e-10 0 0) (0.000242127 2.11346e-07 0 2.59658e-10 0 0) (0.000241802 -8.59368e-08 0 1.12794e-10 0 0));
    }
}


// ************************************************************************* //
