/*--------------------------------*- C++ -*----------------------------------*\
  =========                 |
  \\      /  F ield         | OpenFOAM: The Open Source CFD Toolbox
   \\    /   O peration     | Website:  https://openfoam.org
    \\  /    A nd           | Version:  dev
     \\/     M anipulation  |

   OpenFOAM for Windows 20.09 (v1)
   Built by CFD Support, www.cfdsupport.com (based on Symscape).
\*---------------------------------------------------------------------------*/
FoamFile
{
    version     2.0;
    format      ascii;
    class       volScalarField;
    location    "10";
    object      alpha.water;
}
// * * * * * * * * * * * * * * * * * * * * * * * * * * * * * * * * * * * * * //

dimensions      [0 0 0 0 0 0 0];

internalField   nonuniform List<scalar> 
960
(
1.00041
1.0001
1.00001
1
1
1
1
1
1
1
1
1
0.999999
0.999999
0.999999
1
1
1
1
1
1
0.999999
0.999999
0.999999
1
1
1
0.999999
0.999999
0.999999
0.999999
0.999999
0.999999
0.999999
0.999999
1
0.999999
0.999999
0.999999
1
0.999999
0.999999
0.999999
1
0.999999
0.999999
0.999999
1
1
1
0.999999
1
1
1
0.999999
0.999999
0.999999
1
1
1
0.999994
0.999996
1.00001
1.00001
1
1
1
1
1
1
1
1
0.999999
1
1
1
0.999999
0.999999
0.999999
0.999999
0.999999
0.999999
0.999999
0.999999
0.999999
0.999999
0.999999
0.999999
0.999999
0.999999
0.999999
0.999999
0.999999
0.999999
0.999999
0.999999
0.999999
0.999999
0.999999
0.999999
0.999999
0.999999
0.999999
0.999999
1
0.999999
0.999999
0.999999
1
1
1
1
1
1
1
1
1
1.00001
1.00004
1.00002
0.999999
1
1.00002
1.00001
1
1
1
1
1
1
1
1
1
1
1
1
1
1
1
1
1
1
1
1
1
1
1
1
1
1
1
1
1
1
1
1
1
1
1
1
1
1
1
1
1
1
1
1
1
1
1
1
1
1
1
1
1
0.999996
1.00001
0.99999
1.00001
1.00001
1.00002
1
1
1
1
1
0.999999
0.999999
0.999999
0.999999
0.999999
0.999999
0.999999
0.999999
0.999998
0.999999
0.999999
0.999999
0.999998
0.999998
0.999999
0.999999
0.999998
0.999998
0.999999
0.999999
0.999998
0.999998
0.999998
0.999999
0.999998
0.999998
0.999998
0.999999
0.999999
0.999999
0.999999
0.999999
0.999999
0.999999
0.999999
0.999999
0.999999
0.999999
0.999999
0.999999
0.999999
0.999999
0.999999
0.999999
0.999932
0.999933
0.99995
0.999965
0.950075
0.954897
0.959725
0.959308
0.999999
1
1
1
1
1
1
1
1
1
1
1
1
1
1
1
1
1
1
1
1
1
1
1
1
1
1
1
1
1
1
1
1
1
0.999999
0.999999
1
1
0.999999
0.999999
1
1
0.999999
0.999999
1
1
0.999999
0.999999
1
1
0.999999
1
1
1
1
1
1
1
1.00001
1
1.00001
1.00001
1.00001
0.999999
1
1
1
1
1
1
1
1
1
1
1
1
1
0.999999
0.999999
0.999999
0.999999
0.999999
0.999999
0.999999
0.999999
0.999999
0.999999
0.999999
0.999999
0.999999
0.999999
0.999999
0.999999
0.999999
0.999999
0.999999
0.999999
0.999999
0.999999
0.999999
0.999999
0.999999
0.999999
1
0.999999
1
1
1
1
1
1
1
1
1
1
1
1.00004
1.00002
1.00002
1
1.00003
1.00001
1.00001
0.999996
1
1
1
1
1
1
1
1
1
1
1
1
1
1
1
1
1
1
1
1
1
1
1
1
1
1
1
1
1
1
1
1
1
1
1
1
1
1
1
1
1
1
1
1
1
1
1
1
1
1
1
1
0.999988
0.999993
1
0.999999
0.999996
1
1.00001
1
1
1
1
1
0.999999
0.999999
1
0.999999
0.999999
0.999999
0.999999
0.999999
0.999999
0.999999
0.999999
0.999999
0.999999
0.999999
0.999999
0.999998
0.999999
0.999999
0.999999
0.999998
0.999999
0.999999
0.999999
0.999998
0.999999
0.999999
0.999999
0.999999
0.999999
0.999999
0.999999
0.999999
0.999999
0.999999
0.999999
0.999999
0.999999
0.999999
1
1
0.999999
0.999999
1
0.999999
0.999962
0.999972
0.999957
0.999931
0.959301
0.953863
0.947856
0.948907
0.0387349
0.0404954
0.0465703
0.0553196
4.05334e-05
3.6949e-05
2.37039e-05
2.88599e-05
1.11924e-07
5.63176e-08
8.10756e-09
2.11045e-09
5.36913e-10
4.12754e-10
2.29922e-10
2.26263e-11
2.08591e-12
1.87265e-12
1.75666e-12
1.10669e-12
9.54183e-15
8.83876e-15
7.64212e-15
8.36109e-15
4.87167e-17
4.32795e-17
3.8637e-17
3.86765e-17
2.56296e-19
2.21656e-19
2.01623e-19
2.02654e-19
1.34245e-21
1.15145e-21
1.05982e-21
1.07139e-21
6.90513e-24
5.99907e-24
5.49553e-24
5.58484e-24
3.45458e-26
3.11027e-26
2.79044e-26
2.83222e-26
1.66769e-28
1.56277e-28
1.37881e-28
1.377e-28
7.73601e-31
7.53755e-31
6.5783e-31
6.3774e-31
3.43446e-33
3.4375e-33
3.02014e-33
2.82471e-33
1.43066e-35
1.47835e-35
1.32761e-35
1.15092e-35
1.89762e-38
2.17346e-38
9.66131e-39
7.17873e-39
4.13756e-41
5.15448e-41
2.79126e-41
1.92213e-41
9.813e-44
1.24799e-43
9.41833e-44
4.58437e-44
2.31801e-46
3.03671e-46
2.41407e-46
1.21821e-46
5.73251e-49
7.57265e-49
6.30199e-49
3.67689e-49
1.45949e-51
1.95196e-51
1.66723e-51
1.11835e-51
3.87068e-54
5.07111e-54
4.45378e-54
3.3063e-54
1.08306e-56
1.35963e-56
1.1893e-56
1.00334e-56
3.22704e-59
3.72162e-59
3.47697e-59
3.2638e-59
1.06952e-61
1.09651e-61
1.13753e-61
1.12123e-61
5.67341e-64
5.63577e-64
5.80855e-64
6.15688e-64
3.69163e-66
3.5259e-66
3.6493e-66
3.8322e-66
1.70397e-68
1.62331e-68
1.71243e-68
1.86544e-68
7.60419e-71
7.23785e-71
7.68782e-71
8.51443e-71
3.29088e-73
3.10797e-73
3.31748e-73
3.6964e-73
9.49363e-76
8.01736e-76
8.90884e-76
8.33845e-76
3.90226e-78
3.63351e-78
3.8691e-78
4.27398e-78
1.83107e-80
1.79631e-80
1.8704e-80
2.06971e-80
7.74538e-83
7.51295e-83
7.75696e-83
8.64279e-83
3.21862e-85
3.14505e-85
3.1808e-85
3.56325e-85
1.31082e-87
1.30519e-87
1.29334e-87
1.44275e-87
5.19227e-90
5.20602e-90
5.15819e-90
5.73075e-90
1.99709e-92
2.01689e-92
2.0134e-92
2.22141e-92
7.42752e-95
7.54181e-95
7.53971e-95
8.29196e-95
2.63548e-97
2.65712e-97
2.65515e-97
2.90028e-97
8.8649e-100
8.87581e-100
8.84912e-100
9.56048e-100
2.79427e-102
2.78767e-102
2.77968e-102
2.95173e-102
8.19106e-105
8.18785e-105
8.16361e-105
8.66807e-105
2.24883e-107
2.25446e-107
2.24935e-107
2.37467e-107
5.6635e-110
5.68003e-110
5.66611e-110
5.85814e-110
9.38073e-113
9.22276e-113
8.95582e-113
6.75213e-113
1.83764e-115
1.82443e-115
1.76658e-115
1.54766e-115
3.18501e-118
3.16647e-118
3.04494e-118
2.57892e-118
4.76448e-121
4.72536e-121
4.49269e-121
3.62146e-121
6.05894e-124
5.98263e-124
5.60234e-124
4.21699e-124
6.41453e-127
6.23693e-127
5.78065e-127
4.01334e-127
5.50767e-130
5.17742e-130
4.78195e-130
3.16983e-130
3.67003e-133
3.3132e-133
3.2411e-133
2.06301e-133
1.84271e-136
1.66805e-136
1.70615e-136
1.00371e-136
6.91738e-140
6.33059e-140
6.70551e-140
3.55055e-140
1.85783e-143
1.80742e-143
1.96917e-143
9.04294e-144
3.51653e-147
3.8703e-147
4.28082e-147
1.91643e-147
1.0058e-149
8.52151e-150
6.31304e-150
6.39268e-150
5.2107e-153
3.50626e-153
2.06174e-153
2.64729e-153
9.75205e-157
3.44707e-157
1.14332e-157
3.30552e-157
0.0558088
0.0477679
0.0418147
0.0388067
6.47467e-05
0.000113434
8.99195e-05
5.35988e-05
3.4897e-08
2.06105e-07
2.3597e-07
1.82018e-07
9.91904e-11
4.3203e-10
5.95306e-10
5.90031e-10
9.66794e-13
1.42562e-12
1.82752e-12
2.09314e-12
8.32376e-15
8.89712e-15
8.93412e-15
9.48068e-15
4.7882e-17
4.98779e-17
4.75047e-17
4.85748e-17
2.56862e-19
2.66097e-19
2.52167e-19
2.55273e-19
1.35448e-21
1.38956e-21
1.32566e-21
1.33334e-21
6.95314e-24
7.06815e-24
6.87629e-24
6.86493e-24
3.45799e-26
3.4855e-26
3.50557e-26
3.46651e-26
1.66806e-28
1.6512e-28
1.72092e-28
1.6892e-28
7.62266e-31
7.45185e-31
8.11648e-31
7.92523e-31
3.31448e-33
3.16956e-33
3.63781e-33
3.544e-33
1.34696e-35
1.26236e-35
1.55022e-35
1.4811e-35
2.76176e-39
1.06174e-38
2.33702e-38
2.34894e-38
1.49314e-41
2.14287e-41
4.81811e-41
4.83256e-41
4.96543e-44
5.64081e-44
1.14164e-43
1.14198e-43
8.78594e-47
1.404e-46
2.79615e-46
2.74849e-46
2.13094e-49
3.48889e-49
6.95695e-49
6.91389e-49
4.96547e-52
8.8676e-52
1.77272e-51
1.7751e-51
1.23687e-54
2.25337e-54
4.5656e-54
4.59021e-54
3.64926e-57
5.97857e-57
1.21944e-56
1.2286e-56
1.1826e-59
1.64919e-59
3.41126e-59
3.44317e-59
4.81071e-62
5.17442e-62
1.0593e-61
1.07658e-61
4.33777e-64
3.66227e-64
5.59063e-64
5.65876e-64
3.0021e-66
2.66595e-66
3.65721e-66
3.66933e-66
1.25659e-68
9.58787e-69
1.63859e-68
1.66948e-68
5.00265e-71
3.53837e-71
7.208e-71
7.42645e-71
1.77927e-73
1.44505e-73
3.08704e-73
3.25065e-73
2.71358e-78
4.01937e-76
9.44325e-76
1.03036e-75
9.80094e-79
1.48086e-78
3.59232e-78
4.05385e-78
9.51958e-81
7.13716e-81
1.67406e-80
1.85728e-80
2.23548e-83
2.88021e-83
7.02324e-83
7.72055e-83
6.62784e-86
1.17537e-85
2.82405e-85
3.14966e-85
2.17602e-88
4.64439e-88
1.11448e-87
1.26036e-87
7.53539e-91
1.83455e-90
4.31088e-90
4.9299e-90
2.46989e-93
7.03318e-93
1.63095e-92
1.88434e-92
6.92743e-96
2.59124e-95
6.00874e-95
7.03829e-95
1.57296e-98
9.03851e-98
2.13735e-97
2.53363e-97
2.77638e-101
2.98658e-100
7.17624e-100
8.62054e-100
3.82437e-104
9.23795e-103
2.23764e-102
2.74207e-102
5.60397e-107
2.65764e-105
6.57173e-105
8.07255e-105
1.48015e-109
7.13364e-108
1.71235e-107
2.1952e-107
1.61961e-112
1.71533e-110
4.03918e-110
5.44656e-110
1.6233e-115
2.8407e-113
6.74992e-113
1.11912e-112
2.69456e-118
4.76165e-116
1.15892e-115
2.08822e-115
3.91415e-121
7.63863e-119
1.84054e-118
3.45127e-118
4.89208e-124
1.05545e-121
2.58408e-121
4.98724e-121
5.10963e-127
1.26355e-124
3.12263e-124
6.20104e-124
4.40051e-130
1.21785e-127
3.18582e-127
6.51934e-127
3.00474e-133
9.89902e-131
2.68653e-130
5.62416e-130
1.59751e-136
6.38516e-134
1.84712e-133
3.87438e-133
6.21978e-140
3.2583e-137
1.00741e-136
2.06937e-136
1.70164e-143
1.21338e-140
4.28814e-140
8.37565e-140
3.59884e-147
3.25091e-144
1.33289e-143
2.47446e-143
3.20645e-148
8.29608e-148
3.14481e-147
5.37041e-147
6.30531e-150
8.5537e-150
8.73714e-150
7.81911e-150
2.14012e-153
3.87962e-153
3.41432e-153
2.53199e-153
1.45292e-157
6.41895e-157
3.90508e-157
1.63319e-157
)
;

boundaryField
{
    topWall
    {
        type            zeroGradient;
    }
    botWall
    {
        type            zeroGradient;
    }
    inlet
    {
        type            cyclic;
    }
    outlet
    {
        type            cyclic;
    }
    fixWall
    {
        type            empty;
    }
}


// ************************************************************************* //
