/*--------------------------------*- C++ -*----------------------------------*\
  =========                 |
  \\      /  F ield         | OpenFOAM: The Open Source CFD Toolbox
   \\    /   O peration     | Website:  https://openfoam.org
    \\  /    A nd           | Version:  dev
     \\/     M anipulation  |

   OpenFOAM for Windows 20.09 (v1)
   Built by CFD Support, www.cfdsupport.com (based on Symscape).
\*---------------------------------------------------------------------------*/
FoamFile
{
    version     2.0;
    format      ascii;
    class       surfaceScalarField;
    location    "10";
    object      alphaPhi0.water;
}
// * * * * * * * * * * * * * * * * * * * * * * * * * * * * * * * * * * * * * //

dimensions      [0 3 -1 0 0 0 0];

internalField   nonuniform List<scalar> 
1792
(
2.33505e-09
2.54256e-11
2.35531e-09
-2.09937e-11
2.35934e-09
-4.24717e-12
-6.54271e-13
2.35998e-09
6.71151e-09
1.84583e-11
6.71636e-09
-2.5855e-11
6.71518e-09
-3.0918e-12
1.06649e-11
6.70387e-09
1.07214e-08
3.51899e-12
1.07255e-08
-2.99412e-11
1.0718e-08
4.34812e-12
3.71554e-11
1.06915e-08
1.4396e-08
-1.73997e-11
1.43985e-08
-3.24724e-11
1.43848e-08
1.80264e-11
7.70221e-11
1.4345e-08
1.77543e-08
-4.27322e-11
1.77549e-08
-3.30332e-11
1.77355e-08
3.73954e-11
1.28007e-10
1.76845e-08
2.08156e-08
-7.09986e-11
2.08135e-08
-3.09906e-11
2.07895e-08
6.1451e-11
1.88021e-10
2.07294e-08
2.35987e-08
-1.00977e-10
2.35941e-08
-2.64237e-11
2.3566e-08
8.95821e-11
2.55324e-10
2.34987e-08
2.61221e-08
-1.3204e-10
2.61152e-08
-1.94947e-11
2.60834e-08
1.21368e-10
3.27942e-10
2.60108e-08
2.84038e-08
-1.63596e-10
2.8395e-08
-1.06275e-11
2.83601e-08
1.56247e-10
4.04645e-10
2.82834e-08
3.04616e-08
-1.95528e-10
3.04508e-08
1.71027e-13
3.04132e-08
1.93799e-10
4.83901e-10
3.0334e-08
3.23117e-08
-2.27044e-10
3.23003e-08
1.16547e-11
3.22601e-08
2.33998e-10
5.64878e-10
3.21791e-08
3.39711e-08
-2.58033e-10
3.39588e-08
2.39647e-11
3.39163e-08
2.76491e-10
6.46307e-10
3.38349e-08
3.54552e-08
-2.88072e-10
3.54423e-08
3.68342e-11
3.53972e-08
3.21598e-10
7.26782e-10
3.53168e-08
3.67791e-08
-3.17055e-10
3.67653e-08
5.06207e-11
3.67178e-08
3.69135e-10
8.0534e-10
3.66393e-08
3.79571e-08
-3.45407e-10
3.79424e-08
6.42643e-11
3.7892e-08
4.16953e-10
8.79828e-10
3.7817e-08
3.90018e-08
-3.71008e-10
3.89871e-08
7.84166e-11
3.8936e-08
4.65717e-10
9.54367e-10
3.88612e-08
3.99273e-08
-3.97543e-10
3.99133e-08
9.24382e-11
3.98592e-08
5.19841e-10
1.02603e-09
3.97875e-08
4.07439e-08
-4.23935e-10
4.07305e-08
1.05777e-10
4.06747e-08
5.75663e-10
1.09468e-09
4.06061e-08
4.14634e-08
-4.49837e-10
4.14508e-08
1.1833e-10
4.13939e-08
6.32634e-10
1.16025e-09
4.13283e-08
4.20963e-08
-4.75187e-10
4.20845e-08
1.30171e-10
4.20268e-08
6.90361e-10
1.2223e-09
4.19647e-08
4.26527e-08
-5.00125e-10
4.26415e-08
1.41314e-10
4.25835e-08
7.48417e-10
1.28069e-09
4.25251e-08
4.31414e-08
-5.24641e-10
4.3131e-08
1.51705e-10
4.3073e-08
8.06421e-10
1.33495e-09
4.30188e-08
4.35713e-08
-5.49015e-10
4.35617e-08
1.61331e-10
4.35041e-08
8.64026e-10
1.38477e-09
4.34543e-08
4.39502e-08
-5.73276e-10
4.39413e-08
1.70213e-10
4.38846e-08
9.20694e-10
1.42967e-09
4.38397e-08
4.42855e-08
-5.97342e-10
4.42773e-08
1.78414e-10
4.4222e-08
9.75959e-10
1.46907e-09
4.41826e-08
4.45842e-08
-6.21013e-10
4.45769e-08
1.85711e-10
4.45235e-08
1.02931e-09
1.5025e-09
4.44901e-08
4.48533e-08
-6.44194e-10
4.48465e-08
1.92469e-10
4.47955e-08
1.08032e-09
1.52934e-09
4.47687e-08
4.50985e-08
-6.66089e-10
4.50925e-08
1.98545e-10
4.50445e-08
1.12829e-09
1.54891e-09
4.50249e-08
4.53268e-08
-6.86008e-10
4.53205e-08
2.04874e-10
4.52759e-08
1.17287e-09
1.56043e-09
4.52644e-08
4.5542e-08
-7.00706e-10
4.55406e-08
2.06162e-10
4.54923e-08
1.22114e-09
1.55162e-09
4.55e-08
4.57493e-08
-7.08152e-10
4.57366e-08
2.18289e-10
4.57121e-08
1.24471e-09
1.55026e-09
4.57125e-08
4.5956e-08
-7.06937e-10
4.59426e-08
2.31744e-10
4.59253e-08
1.26193e-09
1.53921e-09
4.59364e-08
4.61708e-08
-7.0104e-10
4.61571e-08
2.45388e-10
4.61465e-08
1.27252e-09
1.51945e-09
4.61663e-08
4.63979e-08
-6.91959e-10
4.63853e-08
2.58014e-10
4.63807e-08
1.27708e-09
1.49273e-09
4.64074e-08
4.66436e-08
-6.81149e-10
4.66321e-08
2.69511e-10
4.66327e-08
1.27642e-09
1.46037e-09
4.66651e-08
4.69129e-08
-6.69637e-10
4.69033e-08
2.79111e-10
4.69084e-08
1.27127e-09
1.42401e-09
4.69448e-08
4.7212e-08
-6.58358e-10
4.72043e-08
2.8673e-10
4.72136e-08
1.26205e-09
1.38485e-09
4.72527e-08
4.75469e-08
-6.47736e-10
4.75418e-08
2.91778e-10
4.75546e-08
1.2493e-09
1.34416e-09
4.75953e-08
4.79242e-08
-6.38054e-10
4.79218e-08
2.94156e-10
4.7938e-08
1.23309e-09
1.30286e-09
4.79793e-08
4.83508e-08
-6.29547e-10
4.83517e-08
2.93282e-10
4.83709e-08
1.21385e-09
1.26201e-09
4.84118e-08
4.88339e-08
-6.22001e-10
4.8838e-08
2.89222e-10
4.88606e-08
1.19123e-09
1.22206e-09
4.89005e-08
4.93816e-08
-6.15245e-10
4.93891e-08
2.81693e-10
4.94146e-08
1.16571e-09
1.18363e-09
4.94531e-08
5.00022e-08
-6.08816e-10
5.00129e-08
2.70944e-10
5.00417e-08
1.13694e-09
1.1468e-09
5.00785e-08
5.0705e-08
-6.02514e-10
5.0719e-08
2.56876e-10
5.075e-08
1.10589e-09
1.11211e-09
5.07847e-08
5.14991e-08
-5.9515e-10
5.15162e-08
2.41145e-10
5.15507e-08
1.07015e-09
1.08053e-09
5.15822e-08
5.23945e-08
-5.84282e-10
5.24184e-08
2.18561e-10
5.245e-08
1.03767e-09
1.05121e-09
5.24792e-08
5.34029e-08
-5.75452e-10
5.34279e-08
1.93486e-10
5.34618e-08
1.00374e-09
1.02314e-09
5.34899e-08
5.45359e-08
-5.66923e-10
5.45632e-08
1.66194e-10
5.45986e-08
9.68309e-10
9.97696e-10
5.46241e-08
5.58054e-08
-5.58778e-10
5.58344e-08
1.37193e-10
5.58714e-08
9.31326e-10
9.74605e-10
5.58945e-08
5.7224e-08
-5.51515e-10
5.72547e-08
1.06435e-10
5.72927e-08
8.93371e-10
9.53955e-10
5.73134e-08
5.88044e-08
-5.45237e-10
5.88365e-08
7.43266e-11
5.88754e-08
8.54584e-10
9.35635e-10
5.88937e-08
6.05603e-08
-5.40526e-10
6.0594e-08
4.05745e-11
6.06332e-08
8.15472e-10
9.19448e-10
6.06494e-08
6.25058e-08
-5.3766e-10
6.25411e-08
5.26473e-12
6.25806e-08
7.76019e-10
9.05396e-10
6.25946e-08
6.4655e-08
-5.37432e-10
6.46926e-08
-3.23924e-11
6.47322e-08
7.3645e-10
8.93085e-10
6.47446e-08
6.70228e-08
-5.39569e-10
6.70633e-08
-7.28065e-11
6.71044e-08
6.95296e-10
8.82078e-10
6.71154e-08
6.96238e-08
-5.44691e-10
6.96685e-08
-1.17476e-10
6.97123e-08
6.51521e-10
8.71309e-10
6.9723e-08
7.24736e-08
-5.51521e-10
7.25231e-08
-1.66943e-10
7.25727e-08
6.01912e-10
8.59809e-10
7.25842e-08
7.55871e-08
-5.59883e-10
7.56431e-08
-2.22954e-10
7.57019e-08
5.432e-10
8.4441e-10
7.57173e-08
7.89719e-08
-5.65491e-10
7.90351e-08
-2.84187e-10
7.91113e-08
4.6965e-10
8.20927e-10
7.91351e-08
7.86856e-08
-5.97942e-11
7.92713e-08
-3.78966e-11
7.95354e-08
3.39985e-10
7.9541e-08
6.99981e-10
2.34814e-09
1.18648e-11
2.3553e-09
-7.16604e-12
2.35823e-09
-2.97408e-12
-2.04674e-12
6.67884e-09
3.69055e-11
6.69656e-09
-2.48921e-11
6.70696e-09
-1.33517e-11
4.50729e-13
1.06581e-08
7.03366e-11
1.0685e-08
-5.17665e-11
1.0702e-08
-3.02868e-11
-3.97158e-12
1.43052e-08
1.10082e-10
1.43405e-08
-8.70222e-11
1.43636e-08
-5.34021e-11
-1.53786e-11
1.76398e-08
1.54784e-10
1.76825e-08
-1.29709e-10
1.77116e-08
-8.24502e-11
-3.27721e-11
2.0681e-08
2.03214e-10
2.07302e-08
-1.78882e-10
2.07647e-08
-1.1698e-10
-5.53392e-11
2.34476e-08
2.54351e-10
2.35024e-08
-2.33671e-10
2.35418e-08
-1.56445e-10
-8.22564e-11
2.59577e-08
3.07419e-10
2.60173e-08
-2.93217e-10
2.60609e-08
-2.00124e-10
-1.12384e-10
2.82292e-08
3.61661e-10
2.82928e-08
-3.56794e-10
2.834e-08
-2.47428e-10
-1.44657e-10
3.02793e-08
4.16386e-10
3.03461e-08
-4.23582e-10
3.03962e-08
-2.9761e-10
-1.78101e-10
3.21244e-08
4.71109e-10
3.21938e-08
-4.92994e-10
3.22465e-08
-3.50321e-10
-2.11859e-10
3.3781e-08
5.24967e-10
3.38521e-08
-5.64023e-10
3.39068e-08
-4.05028e-10
-2.45235e-10
3.5264e-08
5.77669e-10
3.53361e-08
-6.36049e-10
3.53925e-08
-4.61446e-10
-2.77912e-10
3.6589e-08
6.27874e-10
3.66613e-08
-7.08326e-10
3.67187e-08
-5.18897e-10
-3.09321e-10
3.7769e-08
6.75772e-10
3.78407e-08
-7.79285e-10
3.78993e-08
-5.76624e-10
-3.39809e-10
3.88199e-08
7.16951e-10
3.889e-08
-8.483e-10
3.89472e-08
-6.33742e-10
-3.6911e-10
3.97469e-08
7.57527e-10
3.98177e-08
-9.19077e-10
3.98717e-08
-6.87789e-10
-3.98176e-10
4.05681e-08
7.95512e-10
4.06378e-08
-9.8881e-10
4.06911e-08
-7.41119e-10
-4.24521e-10
4.12923e-08
8.3155e-10
4.13607e-08
-1.05729e-09
4.14135e-08
-7.93922e-10
-4.48447e-10
4.19309e-08
8.65352e-10
4.1998e-08
-1.12442e-09
4.20498e-08
-8.45686e-10
-4.69598e-10
4.24933e-08
8.97194e-10
4.25587e-08
-1.18994e-09
4.26092e-08
-8.96119e-10
-4.88135e-10
4.2989e-08
9.26979e-10
4.30523e-08
-1.25328e-09
4.31008e-08
-9.44593e-10
-5.04221e-10
4.34264e-08
9.54785e-10
4.34872e-08
-1.31402e-09
4.35333e-08
-9.90731e-10
-5.17824e-10
4.38139e-08
9.80596e-10
4.38714e-08
-1.37148e-09
4.39147e-08
-1.03405e-09
-5.29036e-10
4.41586e-08
1.00459e-09
4.42122e-08
-1.42507e-09
4.42524e-08
-1.07419e-09
-5.38081e-10
4.4468e-08
1.02668e-09
4.45171e-08
-1.47417e-09
4.45538e-08
-1.11081e-09
-5.44859e-10
4.47484e-08
1.04701e-09
4.47924e-08
-1.51818e-09
4.48253e-08
-1.14371e-09
-5.49686e-10
4.50064e-08
1.06552e-09
4.50451e-08
-1.55684e-09
4.50743e-08
-1.17296e-09
-5.52036e-10
4.52478e-08
1.08214e-09
4.52808e-08
-1.58994e-09
4.53064e-08
-1.19858e-09
-5.52503e-10
4.54751e-08
1.10808e-09
4.55105e-08
-1.62713e-09
4.55294e-08
-1.21817e-09
-5.48936e-10
4.57154e-08
1.1063e-09
4.5726e-08
-1.63932e-09
4.57509e-08
-1.24406e-09
-5.3996e-10
4.5942e-08
1.10059e-09
4.59467e-08
-1.64408e-09
4.59649e-08
-1.2622e-09
-5.3225e-10
4.61735e-08
1.0934e-09
4.61716e-08
-1.64217e-09
4.6186e-08
-1.2766e-09
-5.22955e-10
4.64151e-08
1.0857e-09
4.6407e-08
-1.63406e-09
4.6418e-08
-1.28752e-09
-5.1204e-10
4.66724e-08
1.07841e-09
4.66584e-08
-1.62014e-09
4.66661e-08
-1.29517e-09
-5.00365e-10
4.69515e-08
1.07168e-09
4.69323e-08
-1.60095e-09
4.69367e-08
-1.29951e-09
-4.8811e-10
4.72586e-08
1.06583e-09
4.72345e-08
-1.5769e-09
4.72354e-08
-1.30045e-09
-4.75945e-10
4.76002e-08
1.06086e-09
4.75721e-08
-1.5488e-09
4.75696e-08
-1.2979e-09
-4.63855e-10
4.7983e-08
1.05712e-09
4.79513e-08
-1.51709e-09
4.79455e-08
-1.29212e-09
-4.52171e-10
4.84143e-08
1.05453e-09
4.83799e-08
-1.48263e-09
4.83709e-08
-1.28319e-09
-4.40513e-10
4.89018e-08
1.05322e-09
4.8865e-08
-1.44583e-09
4.8853e-08
-1.27115e-09
-4.28982e-10
4.94536e-08
1.05264e-09
4.94156e-08
-1.40783e-09
4.94004e-08
-1.25594e-09
-4.16905e-10
5.00785e-08
1.05262e-09
5.00395e-08
-1.36889e-09
5.00213e-08
-1.23766e-09
-4.04188e-10
5.07854e-08
1.05202e-09
5.07468e-08
-1.33025e-09
5.07257e-08
-1.21654e-09
-3.89775e-10
5.15834e-08
1.05068e-09
5.15462e-08
-1.29116e-09
5.1522e-08
-1.19359e-09
-3.72274e-10
5.2485e-08
1.04427e-09
5.24484e-08
-1.25289e-09
5.24218e-08
-1.16858e-09
-3.52551e-10
5.34959e-08
1.03838e-09
5.3461e-08
-1.21797e-09
5.34308e-08
-1.13842e-09
-3.33444e-10
5.46307e-08
1.03175e-09
5.45971e-08
-1.18426e-09
5.45646e-08
-1.10595e-09
-3.13343e-10
5.5901e-08
1.02523e-09
5.58679e-08
-1.15113e-09
5.58336e-08
-1.07163e-09
-2.93365e-10
5.73196e-08
1.01897e-09
5.72872e-08
-1.11876e-09
5.72514e-08
-1.03577e-09
-2.73235e-10
5.88994e-08
1.0132e-09
5.88676e-08
-1.08697e-09
5.88303e-08
-9.98405e-10
-2.53674e-10
6.06543e-08
1.00826e-09
6.0623e-08
-1.05563e-09
6.05847e-08
-9.60103e-10
-2.33997e-10
6.25988e-08
1.0041e-09
6.25676e-08
-1.0244e-09
6.25277e-08
-9.20196e-10
-2.14967e-10
6.47473e-08
1.00139e-09
6.47161e-08
-9.93139e-10
6.46747e-08
-8.78821e-10
-1.95501e-10
6.71164e-08
1.00044e-09
6.70837e-08
-9.60364e-10
6.70402e-08
-8.35379e-10
-1.75965e-10
6.97204e-08
1.00312e-09
6.96852e-08
-9.25109e-10
6.96398e-08
-7.90028e-10
-1.54844e-10
7.25771e-08
1.01029e-09
7.25373e-08
-8.85275e-10
7.24891e-08
-7.41803e-10
-1.32595e-10
7.57028e-08
1.02475e-09
7.56557e-08
-8.38147e-10
7.56041e-08
-6.90164e-10
-1.07272e-10
7.91126e-08
1.04691e-09
7.90522e-08
-7.78057e-10
7.89933e-08
-6.31124e-10
-7.91759e-11
7.95141e-08
9.55693e-10
7.87579e-08
-9.34266e-11
7.84712e-08
-6.5758e-11
-4.61121e-12
3.48328e-09
-6.98133e-14
3.77559e-09
-4.22781e-14
4.52452e-09
6.82056e-13
2.33035e-12
5.00758e-09
4.61713e-12
-1.19106e-16
4.26724e-12
9.75441e-19
4.83381e-12
2.20235e-15
9.33694e-15
9.67469e-12
1.23558e-14
-3.01647e-19
6.66362e-15
2.84805e-20
8.70325e-15
9.16578e-20
1.26237e-18
1.87752e-14
9.20488e-17
-2.50523e-22
6.72161e-17
1.76086e-21
4.81277e-17
5.58994e-20
1.15156e-21
4.15783e-17
4.42641e-19
1.41463e-24
4.27482e-19
1.28308e-23
4.43643e-19
3.46033e-23
3.65471e-22
3.12859e-19
2.35478e-21
1.64661e-26
2.37451e-21
7.29933e-26
2.61731e-21
1.55526e-25
1.1101e-25
2.46902e-21
1.28932e-23
1.2216e-28
1.323e-23
4.05437e-28
1.48214e-23
7.94046e-28
4.7778e-28
1.51179e-23
7.23525e-26
7.74519e-31
7.44104e-26
2.17649e-30
8.31581e-26
4.00733e-30
2.18984e-30
8.60582e-26
4.05941e-28
4.41466e-33
4.14475e-28
1.10289e-32
4.59964e-28
1.98017e-32
9.94169e-33
4.76375e-28
2.24731e-30
2.2765e-35
2.25239e-30
5.20993e-35
2.4823e-30
9.487e-35
4.5147e-35
2.56118e-30
1.21464e-32
1.04812e-37
1.18484e-32
2.27163e-37
1.29807e-32
4.39238e-37
2.0433e-37
1.33567e-32
6.2496e-35
4.33653e-40
5.97517e-35
8.84847e-40
6.53501e-35
1.95196e-39
9.34696e-40
6.77094e-35
3.03296e-37
1.56422e-42
2.87462e-37
3.08528e-42
3.14016e-37
8.30625e-42
4.12508e-42
3.27775e-37
1.38127e-39
4.79917e-45
1.31086e-39
8.91172e-45
1.43633e-39
3.35114e-44
1.80035e-44
1.51449e-39
6.00294e-42
8.49247e-48
5.68244e-42
1.44941e-47
6.11353e-42
6.40232e-46
5.07999e-47
6.53446e-42
9.48308e-45
3.49659e-51
7.33447e-45
3.02571e-51
1.07379e-44
7.48001e-49
5.62986e-50
9.67653e-45
2.10299e-47
-5.85746e-55
1.71617e-47
-1.57589e-53
2.24015e-47
1.90765e-52
1.42837e-52
2.26704e-47
5.04438e-50
-2.24581e-56
4.44076e-50
-1.10002e-55
4.68253e-50
9.33553e-55
3.51394e-55
5.58885e-50
1.24512e-52
-7.08785e-59
1.12998e-52
-4.05039e-58
1.12072e-52
1.06482e-57
8.03497e-58
1.31519e-52
3.15293e-55
-1.86889e-61
2.96486e-55
-1.36572e-60
2.8621e-55
2.45016e-60
2.13869e-60
3.25619e-55
8.21243e-58
-3.61892e-64
7.70984e-58
-3.99184e-63
7.56116e-58
5.42504e-63
5.30917e-63
8.34011e-58
2.15266e-60
-8.40612e-68
2.01363e-60
-1.12223e-65
2.02572e-60
1.09672e-65
1.46831e-65
2.23367e-60
5.82011e-63
2.63565e-69
5.30602e-63
-3.08092e-68
5.49353e-63
2.12578e-68
3.97081e-68
6.25093e-63
1.63291e-65
1.83748e-71
1.50728e-65
-9.28862e-71
1.59269e-65
3.74661e-71
1.20831e-70
1.81635e-65
5.098e-68
1.18035e-73
4.95153e-68
-4.2382e-73
4.99671e-68
3.0198e-74
4.31586e-73
5.59697e-68
2.58919e-70
1.11705e-75
2.52166e-70
-2.35028e-75
2.53203e-70
-8.1711e-76
2.87221e-75
2.59208e-70
1.63528e-72
8.12995e-78
1.60344e-72
-9.11278e-78
1.61123e-72
-8.68879e-78
1.65559e-77
1.59879e-72
7.62334e-75
3.56424e-80
7.49978e-75
-3.35096e-80
7.57674e-75
-6.011e-80
7.21233e-80
7.68771e-75
3.42518e-77
1.63664e-82
3.36712e-77
-1.12856e-82
3.40639e-77
-3.47085e-82
2.95648e-82
3.4782e-77
1.48531e-79
5.7209e-85
1.45539e-79
-2.5175e-85
1.47037e-79
-1.14665e-84
1.02832e-84
1.51047e-79
4.23206e-82
1.46275e-87
3.93362e-82
-9.04124e-88
3.9442e-82
-5.8027e-87
2.5298e-87
3.4572e-82
1.75279e-84
6.33461e-90
1.69876e-84
-4.78602e-90
1.71088e-84
-3.13944e-89
1.92831e-89
1.72877e-84
8.29682e-87
2.06301e-92
8.18188e-87
-2.15959e-92
8.25424e-87
-1.41792e-91
8.10295e-92
8.45347e-87
3.46934e-89
3.7669e-95
3.38923e-89
-1.07801e-94
3.41223e-89
-6.08441e-94
3.24773e-94
3.4504e-89
1.42308e-91
-7.34035e-98
1.38872e-91
-4.5817e-97
1.39455e-91
-2.53264e-96
1.26124e-96
1.39322e-91
5.72371e-94
-1.26149e-99
5.64347e-94
-1.95323e-99
5.62998e-94
-9.95493e-99
4.9508e-99
5.56192e-94
2.252e-96
-8.5951e-102
2.24146e-96
-7.68099e-102
2.22121e-96
-3.82238e-101
1.85578e-101
2.19958e-96
8.64551e-99
-4.51096e-104
8.6577e-99
-3.08705e-104
8.56993e-99
-1.37202e-103
6.99866e-104
8.45873e-99
3.19812e-101
-1.96162e-106
3.2092e-101
-1.09758e-106
3.18286e-101
-4.60817e-106
2.42893e-106
3.09949e-101
1.11796e-103
-7.57359e-109
1.12022e-103
-3.81781e-109
1.11223e-103
-1.44068e-108
7.83769e-109
1.0514e-103
3.6991e-106
-2.47448e-111
3.70042e-106
-1.19928e-111
3.66179e-106
-4.24292e-111
2.3669e-111
3.37639e-106
1.14824e-108
-7.43288e-114
1.14621e-108
-3.55548e-114
1.12749e-108
-1.16051e-113
6.68056e-114
1.02335e-108
3.31409e-111
-1.86936e-116
3.3073e-111
-9.47319e-117
3.26524e-111
-2.9875e-116
1.76754e-116
2.96205e-111
8.92604e-114
-4.52435e-119
8.93195e-114
-2.24015e-119
8.85796e-114
-6.73753e-119
4.19822e-119
7.94707e-114
2.19499e-116
-6.24941e-122
2.1972e-116
-3.37851e-122
2.17674e-116
-9.58748e-122
7.073e-122
1.91441e-116
3.47309e-119
-1.09515e-124
3.42925e-119
-6.01658e-125
3.25965e-119
-1.62353e-124
7.93707e-125
2.69855e-119
6.65855e-122
-1.41501e-127
6.61284e-122
-9.40709e-128
6.20514e-122
-2.49398e-127
1.75796e-127
5.09119e-122
1.11455e-124
-1.68977e-130
1.10766e-124
-1.23311e-130
1.02415e-124
-3.15273e-130
2.2003e-130
8.24528e-125
1.59494e-127
-1.29284e-133
1.5783e-127
-1.33307e-133
1.43415e-127
-3.44676e-133
2.44134e-133
1.13428e-127
1.93473e-130
-8.35071e-137
1.8859e-130
-1.1608e-136
1.67054e-130
-3.01705e-136
2.21834e-136
1.32247e-130
1.94185e-133
-1.36225e-140
1.8458e-133
-7.9676e-140
1.57695e-133
-2.20467e-139
1.62415e-139
1.26637e-133
1.55321e-136
1.53801e-143
1.39253e-136
-4.41472e-143
1.22613e-136
-1.30448e-142
9.5041e-143
1.00053e-136
9.47979e-140
1.99287e-146
8.5238e-140
-1.92846e-146
7.82632e-140
-5.82553e-146
4.3009e-146
6.20155e-140
4.58673e-143
9.81195e-150
4.07333e-143
-6.27894e-150
3.72305e-143
-1.89893e-149
1.40602e-149
3.00755e-143
1.5974e-146
3.44058e-153
1.40791e-146
-1.49037e-153
1.31699e-146
-4.36877e-153
3.64706e-153
1.05108e-146
3.94349e-150
7.50875e-157
3.52274e-150
-2.45652e-157
3.34839e-150
-6.87635e-157
6.89587e-157
2.57443e-150
6.54845e-154
2.02662e-157
6.1674e-154
-1.74521e-160
6.05276e-154
-3.29805e-160
2.11521e-157
4.46036e-154
1.07635e-156
1.99177e-160
9.06596e-157
-4.20695e-164
6.74628e-157
-5.30067e-164
1.50738e-160
6.84085e-157
3.48803e-160
3.45163e-164
2.34683e-160
-1.74066e-168
1.37961e-160
-8.9261e-169
2.11962e-164
1.77184e-160
2.29611e-164
8.11435e-165
2.69046e-165
7.78119e-165
5.01092e-09
3.47311e-12
3.97177e-09
-2.73691e-13
3.59328e-09
-1.42983e-13
1.7867e-15
1.71671e-11
2.47562e-16
1.39172e-11
-9.09141e-16
8.32782e-12
-5.83439e-16
-3.31032e-17
2.89147e-14
1.08378e-19
3.78218e-14
-2.26034e-18
3.4255e-14
-1.83668e-18
-1.59588e-19
6.4914e-17
1.86032e-22
1.01315e-16
-8.0733e-21
1.09661e-16
-6.50386e-21
-5.76373e-22
2.63259e-19
2.05326e-24
3.6501e-19
-3.42886e-23
4.21519e-19
-2.40413e-23
-1.53736e-24
2.19409e-21
1.28571e-26
2.1712e-21
-1.88634e-25
2.16478e-21
-1.32294e-25
-5.16341e-27
1.37101e-23
6.25854e-29
1.29627e-23
-1.00123e-27
1.26869e-23
-7.32905e-28
-9.22327e-30
7.91859e-26
4.29761e-31
7.48193e-26
-5.14997e-30
7.27577e-26
-3.97557e-30
6.8825e-32
4.44145e-28
3.10233e-33
4.20829e-28
-2.56461e-32
4.07869e-28
-2.10579e-32
1.00757e-33
2.41598e-30
2.1858e-35
2.30408e-30
-1.23645e-34
2.22908e-30
-1.08613e-34
8.61442e-36
1.27609e-32
1.4256e-37
1.22106e-32
-5.68918e-37
1.17584e-32
-5.38016e-37
5.65552e-38
6.48077e-35
8.48846e-40
6.18726e-35
-2.52713e-39
5.97432e-35
-2.55909e-39
3.48924e-40
3.13377e-37
4.55492e-42
3.00172e-37
-1.05226e-41
2.90852e-37
-1.14974e-41
1.82485e-42
1.44111e-39
2.21847e-44
1.38077e-39
-4.2271e-44
1.34057e-39
-4.85113e-44
9.39373e-45
6.27505e-42
6.50263e-47
6.00215e-42
-5.41495e-47
5.78755e-42
-7.3368e-47
2.85333e-47
8.52048e-45
5.89953e-50
8.81945e-45
-1.07532e-49
9.27603e-45
-1.5092e-49
3.44125e-50
1.82857e-47
1.97363e-52
1.87404e-47
-2.45108e-52
1.95496e-47
-3.58868e-52
8.6367e-53
4.89019e-50
5.0686e-55
4.65593e-50
-5.80793e-55
4.69575e-50
-8.59337e-55
2.45535e-55
1.21661e-52
1.15741e-57
1.1626e-52
-1.32075e-57
1.14825e-52
-2.09281e-57
6.41385e-58
3.03104e-55
3.02719e-60
2.93357e-55
-3.20712e-60
2.91666e-55
-5.20206e-60
1.75059e-60
7.76523e-58
7.80788e-63
7.54777e-58
-7.2139e-63
7.55434e-58
-1.26788e-62
4.38013e-63
1.96319e-60
2.10536e-65
1.93463e-60
-1.73205e-65
1.96575e-60
-3.30153e-65
1.0549e-65
5.23847e-63
5.93721e-68
5.17328e-63
-3.94713e-68
5.28716e-63
-8.72781e-68
2.33268e-68
1.43932e-65
1.95981e-70
1.4389e-65
-1.03702e-70
1.48636e-65
-2.68467e-70
4.76941e-71
4.5404e-68
1.10697e-72
4.52015e-68
-4.04459e-73
4.63807e-68
-1.35229e-72
8.43495e-74
2.52312e-70
1.13666e-74
2.4477e-70
-1.92301e-75
2.45798e-70
-8.83132e-75
-4.03915e-76
1.63681e-72
5.53172e-77
1.61682e-72
-3.89313e-78
1.61322e-72
-3.71378e-77
-7.10582e-78
7.35419e-75
2.14591e-79
7.12321e-75
-3.96535e-81
7.2647e-75
-1.63273e-79
-5.55092e-80
3.12103e-77
8.81224e-82
3.11745e-77
6.52249e-83
3.20193e-77
-6.61281e-82
-3.42189e-82
1.33895e-79
5.92199e-83
1.35228e-79
4.30853e-85
1.40077e-79
-2.03148e-84
-1.37611e-84
4.05966e-82
7.66374e-87
4.12616e-82
1.94751e-87
4.41474e-82
-7.08545e-87
-6.36959e-87
1.53994e-84
7.30825e-89
1.57668e-84
1.13183e-89
1.71058e-84
-3.20732e-89
-3.23823e-89
7.49356e-87
2.93356e-91
7.47487e-87
7.19114e-92
7.83681e-87
-1.18643e-91
-1.46079e-91
3.12601e-89
8.17027e-94
3.15993e-89
3.10514e-94
3.2942e-89
-4.60517e-94
-6.23947e-94
1.28458e-91
3.24414e-96
1.28873e-91
1.41339e-96
1.3451e-91
-1.59071e-96
-2.59916e-96
5.09866e-94
1.2763e-98
5.1458e-94
6.12493e-99
5.38578e-94
-5.79717e-99
-1.0489e-98
2.01242e-96
4.93116e-101
2.0201e-96
2.60673e-101
2.10369e-96
-1.93257e-101
-4.12017e-101
7.7258e-99
7.52875e-103
7.75826e-99
1.04331e-103
8.03171e-99
-6.62866e-104
-1.56758e-103
2.88121e-101
4.33508e-105
2.89018e-101
3.92955e-106
2.98326e-101
-2.12177e-106
-5.70509e-106
1.02774e-103
2.14055e-107
1.03235e-103
1.38207e-108
1.06672e-103
-6.5865e-109
-1.94031e-108
3.47605e-106
8.88927e-110
3.48802e-106
4.48161e-111
3.59975e-106
-1.91091e-111
-6.08393e-111
1.0979e-108
3.00241e-112
1.09982e-108
1.35057e-113
1.12951e-108
-5.11852e-114
-1.7527e-113
3.24471e-111
9.03065e-115
3.24774e-111
3.65502e-116
3.28707e-111
-1.31059e-116
-4.5907e-116
8.80279e-114
2.55187e-117
8.74955e-114
9.00159e-119
8.743e-114
-2.90851e-119
-1.09794e-118
2.16518e-116
1.51018e-119
2.14706e-116
1.79549e-121
2.11191e-116
-5.50201e-122
-2.06058e-121
4.20794e-119
2.36542e-122
4.12446e-119
2.81469e-124
3.98546e-119
-9.25704e-125
-3.5646e-124
7.454e-122
3.66072e-125
7.2822e-122
4.15803e-127
7.03236e-122
-1.49184e-127
-5.33919e-127
1.19023e-124
5.09304e-128
1.14026e-124
5.392e-130
1.09557e-124
-1.9308e-130
-7.02081e-130
1.6431e-127
6.29162e-131
1.56349e-127
5.8091e-133
1.49687e-127
-2.28782e-133
-7.74478e-133
1.95113e-130
6.37852e-134
1.80924e-130
5.20606e-136
1.73125e-130
-2.03454e-136
-7.20569e-136
1.9038e-133
5.21027e-137
1.7478e-133
3.68399e-139
1.68752e-133
-1.55113e-139
-5.32393e-139
1.52132e-136
3.18845e-140
1.36482e-136
2.02341e-142
1.32398e-136
-8.23366e-143
-3.05867e-142
9.389e-140
1.44671e-143
8.45223e-140
8.25795e-146
8.25519e-140
-3.5021e-146
-1.31187e-145
4.454e-143
4.52438e-147
3.95422e-143
2.34973e-149
3.90857e-143
-9.64004e-150
-4.06861e-149
1.50347e-146
8.89754e-151
1.32511e-146
5.02372e-153
1.38194e-146
-1.87624e-153
-8.65408e-153
3.46417e-150
7.68113e-155
2.95002e-150
6.95059e-157
3.39915e-150
-2.15463e-157
-1.2442e-156
5.21818e-154
2.72409e-157
4.39794e-154
1.29387e-157
5.93705e-154
-1.27058e-160
-5.5971e-160
6.75311e-157
1.19042e-160
9.15755e-157
9.48765e-161
9.33094e-157
-1.11096e-164
-8.1646e-164
1.43268e-160
1.11913e-164
2.59753e-160
7.66109e-165
2.28588e-160
-7.64027e-170
-1.43735e-168
3.42092e-165
1.51148e-164
9.19529e-165
)
;

boundaryField
{
    topWall
    {
        type            calculated;
        value           uniform 0;
    }
    botWall
    {
        type            calculated;
        value           uniform 0;
    }
    inlet
    {
        type            cyclic;
        value           nonuniform List<scalar> 
120
(
-5.51091e-12
-3.48551e-09
-7.85626e-08
-7.89661e-08
-7.55788e-08
-7.24668e-08
-6.96187e-08
-6.70207e-08
-6.46552e-08
-6.25086e-08
-6.0565e-08
-5.88107e-08
-5.72312e-08
-5.58136e-08
-5.45445e-08
-5.34118e-08
-5.24037e-08
-5.15061e-08
-5.07113e-08
-5.00086e-08
-4.93883e-08
-4.88414e-08
-4.83593e-08
-4.79338e-08
-4.75575e-08
-4.72233e-08
-4.69244e-08
-4.66544e-08
-4.6407e-08
-4.61767e-08
-4.59572e-08
-4.57425e-08
-4.55265e-08
-4.53069e-08
-4.50766e-08
-4.48301e-08
-4.45605e-08
-4.42614e-08
-4.39259e-08
-4.35469e-08
-4.31169e-08
-4.26277e-08
-4.20709e-08
-4.14375e-08
-4.07175e-08
-3.99008e-08
-3.89759e-08
-3.79291e-08
-3.67502e-08
-3.54252e-08
-3.39402e-08
-3.22803e-08
-3.04297e-08
-2.83723e-08
-2.60911e-08
-2.35687e-08
-2.07873e-08
-1.77289e-08
-1.4375e-08
-1.07063e-08
-6.70443e-09
-2.36026e-09
-2.33463e-14
-1.0971e-16
-4.47458e-19
-2.30865e-21
-1.29707e-23
-7.36041e-26
-4.12193e-28
-2.25655e-30
-1.19493e-32
-6.10418e-35
-2.98654e-37
-1.3725e-39
-5.90908e-42
-9.88846e-45
-2.05682e-47
-4.81484e-50
-1.1744e-52
-2.96995e-55
-7.68237e-58
-2.0224e-60
-5.46637e-63
-1.54984e-65
-4.83434e-68
-2.50747e-70
-1.6225e-72
-7.45002e-75
-3.33131e-77
-1.44553e-79
-4.55376e-82
-1.78621e-84
-8.17224e-87
-3.41598e-89
-1.40304e-91
-5.64024e-94
-2.21238e-96
-8.44456e-99
-3.12609e-101
-1.10441e-103
-3.68243e-106
-1.14707e-108
-3.31719e-111
-8.89315e-114
-2.17493e-116
-4.22103e-119
-7.57754e-122
-1.20512e-124
-1.66493e-127
-1.96701e-130
-1.94392e-133
-1.56027e-136
-9.86819e-140
-4.82538e-143
-1.73798e-146
-4.43567e-150
-7.82536e-154
-8.34901e-157
-1.69457e-160
-3.84424e-165
)
;
    }
    outlet
    {
        type            cyclic;
        value           nonuniform List<scalar> 
120
(
5.51091e-12
3.48551e-09
7.85626e-08
7.89661e-08
7.55788e-08
7.24668e-08
6.96187e-08
6.70207e-08
6.46552e-08
6.25086e-08
6.0565e-08
5.88107e-08
5.72312e-08
5.58136e-08
5.45445e-08
5.34118e-08
5.24037e-08
5.15061e-08
5.07113e-08
5.00086e-08
4.93883e-08
4.88414e-08
4.83593e-08
4.79338e-08
4.75575e-08
4.72233e-08
4.69244e-08
4.66544e-08
4.6407e-08
4.61767e-08
4.59572e-08
4.57425e-08
4.55265e-08
4.53069e-08
4.50766e-08
4.48301e-08
4.45605e-08
4.42614e-08
4.39259e-08
4.35469e-08
4.31169e-08
4.26277e-08
4.20709e-08
4.14375e-08
4.07175e-08
3.99008e-08
3.89759e-08
3.79291e-08
3.67502e-08
3.54252e-08
3.39402e-08
3.22803e-08
3.04297e-08
2.83723e-08
2.60911e-08
2.35687e-08
2.07873e-08
1.77289e-08
1.4375e-08
1.07063e-08
6.70443e-09
2.36026e-09
2.33463e-14
1.0971e-16
4.47458e-19
2.30865e-21
1.29707e-23
7.36041e-26
4.12193e-28
2.25655e-30
1.19493e-32
6.10418e-35
2.98654e-37
1.3725e-39
5.90908e-42
9.88846e-45
2.05682e-47
4.81484e-50
1.1744e-52
2.96995e-55
7.68237e-58
2.0224e-60
5.46637e-63
1.54984e-65
4.83434e-68
2.50747e-70
1.6225e-72
7.45002e-75
3.33131e-77
1.44553e-79
4.55376e-82
1.78621e-84
8.17224e-87
3.41598e-89
1.40304e-91
5.64024e-94
2.21238e-96
8.44456e-99
3.12609e-101
1.10441e-103
3.68243e-106
1.14707e-108
3.31719e-111
8.89315e-114
2.17493e-116
4.22103e-119
7.57754e-122
1.20512e-124
1.66493e-127
1.96701e-130
1.94392e-133
1.56027e-136
9.86819e-140
4.82538e-143
1.73798e-146
4.43567e-150
7.82536e-154
8.34901e-157
1.69457e-160
3.84424e-165
)
;
    }
    fixWall
    {
        type            empty;
        value           nonuniform List<scalar> 0();
    }
}


// ************************************************************************* //
