/*--------------------------------*- C++ -*----------------------------------*\
  =========                 |
  \\      /  F ield         | OpenFOAM: The Open Source CFD Toolbox
   \\    /   O peration     | Website:  https://openfoam.org
    \\  /    A nd           | Version:  dev
     \\/     M anipulation  |

   OpenFOAM for Windows 20.09 (v1)
   Built by CFD Support, www.cfdsupport.com (based on Symscape).
\*---------------------------------------------------------------------------*/
FoamFile
{
    version     2.0;
    format      ascii;
    class       volScalarField;
    location    "10";
    object      epsilon;
}
// * * * * * * * * * * * * * * * * * * * * * * * * * * * * * * * * * * * * * //

dimensions      [0 2 -3 0 0 0 0];

internalField   nonuniform List<scalar> 
960
(
1.73748e-12
1.73748e-12
1.73748e-12
1.73748e-12
2.99638e-13
2.99637e-13
2.99637e-13
2.99637e-13
1.01969e-13
1.01968e-13
1.01968e-13
1.01968e-13
4.79202e-14
4.79194e-14
4.79195e-14
4.79196e-14
2.70293e-14
2.70287e-14
2.70288e-14
2.70289e-14
1.71889e-14
1.71885e-14
1.71886e-14
1.71887e-14
1.1888e-14
1.18459e-14
1.1846e-14
1.18461e-14
1.40363e-14
1.39633e-14
1.38738e-14
1.38301e-14
1.64067e-14
1.63197e-14
1.62133e-14
1.61614e-14
1.89439e-14
1.88428e-14
1.87188e-14
1.86586e-14
2.16339e-14
2.15181e-14
2.13759e-14
2.1307e-14
2.44786e-14
2.43475e-14
2.41862e-14
2.41083e-14
2.74878e-14
2.73406e-14
2.71593e-14
2.7072e-14
3.06756e-14
3.05114e-14
3.0309e-14
3.02118e-14
3.40591e-14
3.3877e-14
3.36522e-14
3.35448e-14
3.76753e-14
3.7474e-14
3.7225e-14
3.71066e-14
4.15455e-14
4.13235e-14
4.10485e-14
4.09185e-14
4.56909e-14
4.54468e-14
4.51441e-14
4.50018e-14
5.01399e-14
4.98725e-14
4.95404e-14
4.93851e-14
5.49226e-14
5.46305e-14
5.42673e-14
5.40984e-14
6.00709e-14
5.97529e-14
5.93569e-14
5.91736e-14
6.56222e-14
6.52766e-14
6.48461e-14
6.46477e-14
7.16225e-14
7.12475e-14
7.07802e-14
7.05655e-14
7.81284e-14
7.77217e-14
7.72147e-14
7.69826e-14
8.52072e-14
8.4766e-14
8.42162e-14
8.39651e-14
9.29369e-14
9.24583e-14
9.1862e-14
9.15902e-14
1.01409e-13
1.00889e-13
1.00242e-13
9.99477e-14
1.10728e-13
1.10164e-13
1.09462e-13
1.09143e-13
1.21022e-13
1.20408e-13
1.19645e-13
1.19298e-13
1.32437e-13
1.31768e-13
1.30938e-13
1.30562e-13
1.45261e-13
1.44531e-13
1.43628e-13
1.43217e-13
1.59708e-13
1.58911e-13
1.57925e-13
1.57476e-13
1.75994e-13
1.75122e-13
1.74043e-13
1.73551e-13
1.94449e-13
1.93493e-13
1.9231e-13
1.91769e-13
2.15476e-13
2.14424e-13
2.13124e-13
2.12528e-13
2.39568e-13
2.38409e-13
2.36974e-13
2.36315e-13
2.6733e-13
2.66048e-13
2.64459e-13
2.63728e-13
2.99509e-13
2.98086e-13
2.96319e-13
2.95506e-13
3.37026e-13
3.35441e-13
3.33468e-13
3.32559e-13
3.81027e-13
3.79252e-13
3.77039e-13
3.7602e-13
4.32933e-13
4.30939e-13
4.28443e-13
4.27294e-13
4.94525e-13
4.92274e-13
4.89442e-13
4.88142e-13
5.6803e-13
5.65475e-13
5.62246e-13
5.60766e-13
6.56253e-13
6.5334e-13
6.49634e-13
6.47939e-13
7.63048e-13
7.59708e-13
7.55426e-13
7.53474e-13
8.95717e-13
8.91847e-13
8.86845e-13
8.84569e-13
1.05964e-12
1.05513e-12
1.04924e-12
1.04656e-12
1.26182e-12
1.25652e-12
1.24953e-12
1.24637e-12
1.51243e-12
1.50617e-12
1.49782e-12
1.49404e-12
1.82465e-12
1.81721e-12
1.80716e-12
1.80262e-12
2.21561e-12
2.20672e-12
2.19451e-12
2.18901e-12
2.70771e-12
2.69699e-12
2.68204e-12
2.67534e-12
3.33039e-12
3.31737e-12
3.29893e-12
3.29068e-12
4.1227e-12
4.10677e-12
4.08381e-12
4.07357e-12
5.13677e-12
5.11713e-12
5.08828e-12
5.07545e-12
6.44292e-12
6.4185e-12
6.38191e-12
6.36565e-12
8.13686e-12
8.10628e-12
8.05939e-12
8.03852e-12
1.03505e-11
1.03119e-11
1.02511e-11
1.0224e-11
1.32678e-11
1.32186e-11
1.31391e-11
1.31031e-11
1.7148e-11
1.70849e-11
1.69797e-11
1.69312e-11
1.73748e-12
1.73748e-12
1.73748e-12
1.73748e-12
2.99637e-13
2.99637e-13
2.99637e-13
2.99637e-13
1.01968e-13
1.01968e-13
1.01968e-13
1.01968e-13
4.79197e-14
4.79194e-14
4.79194e-14
4.79194e-14
2.70289e-14
2.70287e-14
2.70287e-14
2.70286e-14
1.71888e-14
1.71884e-14
1.71885e-14
1.71885e-14
1.18461e-14
1.18458e-14
1.18895e-14
1.1911e-14
1.38547e-14
1.39561e-14
1.40383e-14
1.40647e-14
1.61907e-14
1.6311e-14
1.64089e-14
1.64405e-14
1.86927e-14
1.88321e-14
1.89462e-14
1.89834e-14
2.13461e-14
2.15051e-14
2.16361e-14
2.16791e-14
2.41526e-14
2.43318e-14
2.44805e-14
2.45299e-14
2.71216e-14
2.73218e-14
2.74892e-14
2.75455e-14
3.02671e-14
3.04891e-14
3.06763e-14
3.074e-14
3.36059e-14
3.38506e-14
3.40588e-14
3.41306e-14
3.71741e-14
3.7443e-14
3.76738e-14
3.77544e-14
4.09928e-14
4.12873e-14
4.15424e-14
4.1633e-14
4.50833e-14
4.54047e-14
4.56858e-14
4.57872e-14
4.94742e-14
4.98237e-14
5.01324e-14
5.02458e-14
5.41954e-14
5.45742e-14
5.49121e-14
5.50385e-14
5.9279e-14
5.96881e-14
6.00569e-14
6.01975e-14
6.47617e-14
6.52026e-14
6.5604e-14
6.576e-14
7.06887e-14
7.11631e-14
7.15995e-14
7.17725e-14
7.71157e-14
7.76258e-14
7.80999e-14
7.82917e-14
8.41089e-14
8.46575e-14
8.51724e-14
8.53849e-14
9.17457e-14
9.23359e-14
9.28951e-14
9.31306e-14
1.00116e-13
1.00751e-13
1.01359e-13
1.0162e-13
1.09325e-13
1.1001e-13
1.1067e-13
1.10959e-13
1.19496e-13
1.20235e-13
1.20954e-13
1.21275e-13
1.30776e-13
1.31576e-13
1.32358e-13
1.32714e-13
1.43451e-13
1.44317e-13
1.45171e-13
1.45568e-13
1.57733e-13
1.58673e-13
1.59607e-13
1.60049e-13
1.73835e-13
1.74858e-13
1.75881e-13
1.76375e-13
1.92083e-13
1.932e-13
1.94324e-13
1.94877e-13
2.12877e-13
2.14101e-13
2.1534e-13
2.1596e-13
2.36705e-13
2.38052e-13
2.39422e-13
2.40118e-13
2.64167e-13
2.65656e-13
2.67176e-13
2.6796e-13
2.96004e-13
2.97656e-13
2.99348e-13
3.00236e-13
3.33127e-13
3.34971e-13
3.36863e-13
3.37871e-13
3.76672e-13
3.7874e-13
3.80866e-13
3.82017e-13
4.2805e-13
4.30383e-13
4.32781e-13
4.34103e-13
4.89025e-13
4.9167e-13
4.94391e-13
4.95917e-13
5.61806e-13
5.64822e-13
5.67928e-13
5.69698e-13
6.49174e-13
6.52631e-13
6.562e-13
6.58264e-13
7.54952e-13
7.58939e-13
7.63068e-13
7.65492e-13
8.8636e-13
8.91007e-13
8.95838e-13
8.98718e-13
1.04875e-12
1.0542e-12
1.05991e-12
1.06336e-12
1.24905e-12
1.25548e-12
1.26227e-12
1.26643e-12
1.49736e-12
1.50499e-12
1.51314e-12
1.51818e-12
1.80674e-12
1.81584e-12
1.82569e-12
1.83186e-12
2.19416e-12
2.20507e-12
2.21709e-12
2.2247e-12
2.6818e-12
2.69497e-12
2.70972e-12
2.7192e-12
3.29885e-12
3.31482e-12
3.33307e-12
3.345e-12
4.08394e-12
4.10342e-12
4.12622e-12
4.14136e-12
5.0887e-12
5.11262e-12
5.14134e-12
5.16066e-12
6.38268e-12
6.41225e-12
6.44877e-12
6.47364e-12
8.06056e-12
8.0974e-12
8.14428e-12
8.17659e-12
1.02527e-11
1.0299e-11
1.03598e-11
1.04022e-11
1.31408e-11
1.31997e-11
1.32795e-11
1.33355e-11
1.69814e-11
1.70569e-11
1.71628e-11
1.72375e-11
2.24034e-11
2.2322e-11
2.21808e-11
2.21136e-11
2.82095e-11
2.8125e-11
2.79867e-11
2.79501e-11
3.19126e-11
3.18489e-11
3.17727e-11
3.18262e-11
3.29756e-11
3.29377e-11
3.29068e-11
3.30003e-11
3.1967e-11
3.1953e-11
3.19513e-11
3.20487e-11
2.95622e-11
2.95681e-11
2.95852e-11
2.96672e-11
2.64139e-11
2.64353e-11
2.64645e-11
2.65259e-11
2.2971e-11
2.30029e-11
2.30375e-11
2.30777e-11
1.9592e-11
1.96313e-11
1.96671e-11
1.96899e-11
1.64793e-11
1.65248e-11
1.65595e-11
1.65697e-11
1.37242e-11
1.37758e-11
1.38083e-11
1.38104e-11
1.13466e-11
1.14072e-11
1.14365e-11
1.14342e-11
9.32861e-12
9.40185e-12
9.42749e-12
9.4233e-12
7.63478e-12
7.72395e-12
7.74617e-12
7.7415e-12
6.22392e-12
6.33184e-12
6.35107e-12
6.34681e-12
5.08528e-12
5.21422e-12
5.23115e-12
5.22752e-12
4.16514e-12
4.3116e-12
4.32627e-12
4.32306e-12
3.4141e-12
3.57195e-12
3.58441e-12
3.58144e-12
2.80481e-12
2.96718e-12
2.97747e-12
2.97435e-12
2.31407e-12
2.4742e-12
2.48258e-12
2.47909e-12
1.92031e-12
2.07337e-12
2.08023e-12
2.07617e-12
1.60499e-12
1.7478e-12
1.7535e-12
1.74878e-12
1.35254e-12
1.48326e-12
1.48818e-12
1.48273e-12
1.15014e-12
1.26785e-12
1.27236e-12
1.26622e-12
9.86821e-13
1.0911e-12
1.09548e-12
1.08878e-12
8.54771e-13
9.45606e-13
9.50022e-13
9.4293e-13
7.47678e-13
8.25294e-13
8.29887e-13
8.22578e-13
6.60406e-13
7.25254e-13
7.30116e-13
7.22754e-13
5.88686e-13
6.41537e-13
6.46721e-13
6.39445e-13
5.28762e-13
5.70994e-13
5.76506e-13
5.69429e-13
4.78716e-13
5.12509e-13
5.18333e-13
5.11522e-13
4.35777e-13
4.62979e-13
4.69005e-13
4.62506e-13
3.97887e-13
4.20086e-13
4.26159e-13
4.20017e-13
3.64039e-13
3.82684e-13
3.88613e-13
3.82857e-13
3.34012e-13
3.49789e-13
3.55419e-13
3.50066e-13
3.07132e-13
3.2057e-13
3.25809e-13
3.20876e-13
2.8286e-13
2.94364e-13
2.99168e-13
2.9467e-13
2.60752e-13
2.70647e-13
2.75003e-13
2.70943e-13
2.4045e-13
2.48993e-13
2.52924e-13
2.49276e-13
2.21659e-13
2.2906e-13
2.32637e-13
2.29326e-13
2.04141e-13
2.10567e-13
2.13788e-13
2.10826e-13
1.877e-13
1.93288e-13
1.96169e-13
1.93543e-13
1.72176e-13
1.77045e-13
1.79605e-13
1.77291e-13
1.5744e-13
1.61688e-13
1.6395e-13
1.61923e-13
1.43392e-13
1.47108e-13
1.49085e-13
1.4732e-13
1.30329e-13
1.3358e-13
1.3532e-13
1.33772e-13
1.17782e-13
1.20626e-13
1.2215e-13
1.20796e-13
1.05587e-13
1.08067e-13
1.09389e-13
1.08209e-13
9.37801e-14
9.59313e-14
9.70678e-14
9.6047e-14
8.23922e-14
8.42458e-14
8.52119e-14
8.43363e-14
7.14511e-14
7.30331e-14
7.38445e-14
7.31026e-14
6.1006e-14
6.2332e-14
6.30042e-14
6.2387e-14
5.11604e-14
5.22367e-14
5.2786e-14
5.22894e-14
4.20031e-14
4.28506e-14
4.32917e-14
4.29042e-14
3.35486e-14
3.41983e-14
3.45436e-14
3.42492e-14
2.71466e-14
2.71503e-14
2.71507e-14
2.71483e-14
4.79979e-14
4.79993e-14
4.79995e-14
4.79984e-14
1.02015e-13
1.02015e-13
1.02015e-13
1.02015e-13
2.99656e-13
2.99656e-13
2.99656e-13
2.99656e-13
1.73748e-12
1.73748e-12
1.73748e-12
1.73748e-12
2.21803e-11
2.22784e-11
2.24206e-11
2.25219e-11
2.80372e-11
2.81072e-11
2.82499e-11
2.83604e-11
3.19251e-11
3.19035e-11
3.19903e-11
3.20753e-11
3.30932e-11
3.30179e-11
3.30699e-11
3.31363e-11
3.21259e-11
3.20306e-11
3.20648e-11
3.21183e-11
2.97257e-11
2.96326e-11
2.9658e-11
2.97021e-11
2.65674e-11
2.64881e-11
2.65076e-11
2.65437e-11
2.31056e-11
2.30444e-11
2.30594e-11
2.30882e-11
1.97078e-11
1.9664e-11
1.96749e-11
1.9697e-11
1.65808e-11
1.65518e-11
1.65592e-11
1.65747e-11
1.38174e-11
1.37996e-11
1.38038e-11
1.38132e-11
1.14382e-11
1.14288e-11
1.14304e-11
1.14341e-11
9.42522e-12
9.42129e-12
9.42065e-12
9.41962e-12
7.74109e-12
7.74155e-12
7.73872e-12
7.73333e-12
6.34421e-12
6.34765e-12
6.34272e-12
6.33376e-12
5.22142e-12
5.22867e-12
5.22208e-12
5.20972e-12
4.31635e-12
4.32426e-12
4.31773e-12
4.30091e-12
3.5756e-12
3.58239e-12
3.57801e-12
3.55563e-12
2.96872e-12
2.97573e-12
2.97229e-12
2.94647e-12
2.47336e-12
2.48095e-12
2.47824e-12
2.45056e-12
2.07e-12
2.07861e-12
2.07659e-12
2.0482e-12
1.74179e-12
1.75183e-12
1.75054e-12
1.72242e-12
1.47447e-12
1.48643e-12
1.48586e-12
1.45866e-12
1.25602e-12
1.27045e-12
1.27057e-12
1.2448e-12
1.07583e-12
1.09342e-12
1.09416e-12
1.07014e-12
9.26157e-13
9.47893e-13
9.49175e-13
9.27056e-13
8.01843e-13
8.28262e-13
8.29451e-13
8.0934e-13
6.98854e-13
7.28915e-13
7.301e-13
7.11934e-13
6.13407e-13
6.4593e-13
6.47129e-13
6.30769e-13
5.42204e-13
5.7612e-13
5.77318e-13
5.6255e-13
4.838e-13
5.18327e-13
5.19467e-13
5.06e-13
4.34903e-13
4.69349e-13
4.7041e-13
4.57901e-13
3.93192e-13
4.26791e-13
4.27785e-13
4.15846e-13
3.57203e-13
3.89489e-13
3.90428e-13
3.78545e-13
3.25855e-13
3.56497e-13
3.57405e-13
3.46863e-13
2.98315e-13
3.27045e-13
3.27948e-13
3.19102e-13
2.73922e-13
3.0053e-13
3.01433e-13
2.94208e-13
2.52117e-13
2.76443e-13
2.77353e-13
2.71491e-13
2.32444e-13
2.54393e-13
2.55295e-13
2.50527e-13
2.14518e-13
2.34048e-13
2.34918e-13
2.31051e-13
1.98001e-13
2.15147e-13
2.15971e-13
2.12841e-13
1.82592e-13
1.97498e-13
1.98239e-13
1.95718e-13
1.68005e-13
1.80885e-13
1.81552e-13
1.79519e-13
1.54061e-13
1.65167e-13
1.65771e-13
1.64124e-13
1.40677e-13
1.5023e-13
1.50775e-13
1.49436e-13
1.28165e-13
1.36383e-13
1.36888e-13
1.35772e-13
1.16077e-13
1.23126e-13
1.23589e-13
1.2265e-13
1.04264e-13
1.10274e-13
1.10695e-13
1.09899e-13
9.27702e-14
9.78612e-14
9.82391e-14
9.7557e-14
8.1635e-14
8.59108e-14
8.62463e-14
8.56613e-14
7.08932e-14
7.44506e-14
7.47423e-14
7.42421e-14
6.05945e-14
6.35186e-14
6.37656e-14
6.33483e-14
5.0843e-14
5.321e-14
5.3414e-14
5.30868e-14
4.17492e-14
4.36307e-14
4.37948e-14
4.35521e-14
3.3347e-14
3.48061e-14
3.49343e-14
3.47589e-14
2.71504e-14
2.71513e-14
2.71519e-14
2.71485e-14
4.79993e-14
4.79997e-14
4.80002e-14
4.7999e-14
1.02015e-13
1.02015e-13
1.02016e-13
1.02015e-13
2.99656e-13
2.99656e-13
2.99656e-13
2.99656e-13
1.73748e-12
1.73748e-12
1.73748e-12
1.73748e-12
)
;

boundaryField
{
    topWall
    {
        type            epsilonWallFunction;
        value           uniform 1.73748e-12;
    }
    botWall
    {
        type            epsilonWallFunction;
        value           uniform 1.73748e-12;
    }
    inlet
    {
        type            cyclic;
    }
    outlet
    {
        type            cyclic;
    }
    fixWall
    {
        type            empty;
    }
}


// ************************************************************************* //
