/*--------------------------------*- C++ -*----------------------------------*\
  =========                 |
  \\      /  F ield         | OpenFOAM: The Open Source CFD Toolbox
   \\    /   O peration     | Website:  https://openfoam.org
    \\  /    A nd           | Version:  dev
     \\/     M anipulation  |

   OpenFOAM for Windows 20.09 (v1)
   Built by CFD Support, www.cfdsupport.com (based on Symscape).
\*---------------------------------------------------------------------------*/
FoamFile
{
    version     2.0;
    format      ascii;
    class       volTensorField;
    location    "10";
    object      gradU;
}
// * * * * * * * * * * * * * * * * * * * * * * * * * * * * * * * * * * * * * //

dimensions      [0 0 -1 0 0 0 0];

internalField   nonuniform List<tensor> 
960
(
(-0.000222747 -1.32268e-06 0 6.56156 0.00108229 0 0 0 0)
(9.58077e-05 -1.19298e-05 0 6.55807 -0.000377098 0 0 0 0)
(0.000233235 1.18129e-06 0 6.57149 -0.000117741 0 0 0 0)
(-5.60177e-05 1.06098e-06 0 6.57789 -3.14097e-05 0 0 0 0)
(2.41135e-05 -3.91076e-06 0 6.06601 -9.2535e-05 0 0 0 0)
(6.97602e-05 -8.0708e-06 0 6.07312 -0.000184457 0 0 0 0)
(9.7038e-05 4.58019e-06 0 6.06301 -6.20562e-05 0 0 0 0)
(-0.000359308 6.02221e-06 0 6.05647 0.000200603 0 0 0 0)
(0.00023525 -3.70557e-06 0 5.57093 -0.000314718 0 0 0 0)
(4.57354e-05 -1.14218e-05 0 5.57482 -2.20499e-05 0 0 0 0)
(-4.42608e-05 7.59895e-06 0 5.56736 0.000110504 0 0 0 0)
(-0.00067744 1.15229e-05 0 5.55811 0.000498706 0 0 0 0)
(0.000392193 -1.92994e-06 0 5.10279 -0.000542085 0 0 0 0)
(1.02533e-05 -9.83768e-07 0 5.10404 1.59351e-05 0 0 0 0)
(-0.000181516 1.32594e-05 0 5.098 0.000251817 0 0 0 0)
(-0.000980613 1.75306e-05 0 5.0882 0.000804154 0 0 0 0)
(0.000509264 1.35427e-06 0 4.66162 -0.000563804 0 0 0 0)
(-3.41032e-05 1.80988e-06 0 4.66118 4.64574e-05 0 0 0 0)
(-0.000308265 2.07359e-05 0 4.65582 0.000374105 0 0 0 0)
(-0.00124624 2.35669e-05 0 4.64678 0.00107398 0 0 0 0)
(0.000592158 6.00478e-06 0 4.24745 -0.00060082 0 0 0 0)
(-8.63687e-05 1.4648e-05 0 4.24594 9.76473e-05 0 0 0 0)
(-0.00042164 3.03849e-05 0 4.24088 0.000488956 0 0 0 0)
(-0.00146861 2.96501e-05 0 4.23306 0.00129698 0 0 0 0)
(0.000648355 1.20758e-05 0 3.85953 -0.000598938 0 0 0 0)
(-0.000143482 1.99728e-05 0 3.85769 0.000154942 0 0 0 0)
(-0.000522903 4.07248e-05 0 3.85297 0.000584698 0 0 0 0)
(-0.00164598 3.54119e-05 0 3.84639 0.001475 0 0 0 0)
(0.000683012 1.93254e-05 0 3.49739 -0.000765292 0 0 0 0)
(-0.000195767 3.43753e-05 0 3.49581 0.000214053 0 0 0 0)
(-0.000610014 5.23858e-05 0 3.49134 0.000675974 0 0 0 0)
(-0.00178475 4.10562e-05 0 3.48591 0.00161338 0 0 0 0)
(0.000703889 2.75407e-05 0 3.16059 -0.000657694 0 0 0 0)
(-0.000244338 4.39939e-05 0 3.15956 0.000262208 0 0 0 0)
(-0.000687892 6.40468e-05 0 3.15529 0.000746565 0 0 0 0)
(-0.00188434 4.61649e-05 0 3.15083 0.00171088 0 0 0 0)
(0.000711288 3.65572e-05 0 2.84829 -0.000800835 0 0 0 0)
(-0.000284098 5.77796e-05 0 2.84805 0.000302716 0 0 0 0)
(-0.000755428 7.65303e-05 0 2.84412 0.000818276 0 0 0 0)
(-0.0019539 5.11306e-05 0 2.84027 0.0017889 0 0 0 0)
(0.000709704 4.58172e-05 0 2.55989 -0.000671572 0 0 0 0)
(-0.000313947 7.09791e-05 0 2.56039 0.00034429 0 0 0 0)
(-0.000817465 8.88166e-05 0 2.55667 0.000874918 0 0 0 0)
(-0.00199267 5.53429e-05 0 2.5533 0.00181937 0 0 0 0)
(0.000699362 5.56854e-05 0 2.29456 -0.000831163 0 0 0 0)
(-0.000337744 8.35544e-05 0 2.29564 0.000295711 0 0 0 0)
(-0.000873554 0.000101115 0 2.29174 0.000935438 0 0 0 0)
(-0.00200677 5.93352e-05 0 2.28874 0.00183289 0 0 0 0)
(0.000686642 6.39616e-05 0 2.05121 -0.000716719 0 0 0 0)
(-0.000360996 0.000100422 0 2.05284 0.000353252 0 0 0 0)
(-0.000932503 0.000114436 0 2.0489 0.000986753 0 0 0 0)
(-0.00198917 6.29184e-05 0 2.04618 0.00183284 0 0 0 0)
(0.000673668 7.427e-05 0 1.82874 -0.000623756 0 0 0 0)
(-0.000376152 0.000111946 0 1.83104 0.000432075 0 0 0 0)
(-0.000984498 0.000125775 0 1.82762 0.00105807 0 0 0 0)
(-0.00195963 6.60533e-05 0 1.82462 0.00177571 0 0 0 0)
(0.000668446 8.40894e-05 0 1.62611 -0.000694282 0 0 0 0)
(-0.000379609 0.000128453 0 1.62896 0.00044907 0 0 0 0)
(-0.00103943 0.00013683 0 1.62654 0.00111001 0 0 0 0)
(-0.00191893 6.595e-05 0 1.62292 0.0017688 0 0 0 0)
(0.000649818 9.4454e-05 0 1.44215 -0.00059019 0 0 0 0)
(-0.00036903 0.000142017 0 1.44601 0.000458783 0 0 0 0)
(-0.0010852 0.00014777 0 1.44302 0.00112133 0 0 0 0)
(-0.00188566 6.65952e-05 0 1.43978 0.00176146 0 0 0 0)
(0.000652055 0.000104126 0 1.27585 -0.000645132 0 0 0 0)
(-0.00036518 0.000156978 0 1.28064 0.000419998 0 0 0 0)
(-0.00114334 0.000158541 0 1.27674 0.00119434 0 0 0 0)
(-0.00182053 6.53652e-05 0 1.27475 0.0016736 0 0 0 0)
(0.000653417 0.000112629 0 1.12639 -0.000746385 0 0 0 0)
(-0.000354159 0.000172675 0 1.13109 0.000347065 0 0 0 0)
(-0.0011833 0.000168663 0 1.12781 0.00122214 0 0 0 0)
(-0.00175369 6.28101e-05 0 1.12693 0.00161103 0 0 0 0)
(0.000645361 0.000120155 0 0.992825 -0.000689871 0 0 0 0)
(-0.00034156 0.000189787 0 0.9973 0.000309863 0 0 0 0)
(-0.00121272 0.000179607 0 0.994479 0.00126408 0 0 0 0)
(-0.00167415 6.14729e-05 0 0.994534 0.00154112 0 0 0 0)
(0.00063956 0.000126697 0 0.874011 -0.000656913 0 0 0 0)
(-0.000326589 0.000205241 0 0.878271 0.000350002 0 0 0 0)
(-0.00122939 0.000189184 0 0.875846 0.00128446 0 0 0 0)
(-0.00159312 5.83625e-05 0 0.876828 0.00143948 0 0 0 0)
(0.000631208 0.000134027 0 0.768994 -0.000675952 0 0 0 0)
(-0.000310976 0.000222143 0 0.77297 0.000338454 0 0 0 0)
(-0.00123678 0.000197765 0 0.770855 0.00128467 0 0 0 0)
(-0.00150097 5.43384e-05 0 0.772691 0.00136113 0 0 0 0)
(0.000625153 0.000139711 0 0.676804 -0.000642606 0 0 0 0)
(-0.000295572 0.000237918 0 0.680567 0.000324501 0 0 0 0)
(-0.00123403 0.000206229 0 0.67878 0.00128633 0 0 0 0)
(-0.00140331 5.03175e-05 0 0.681483 0.00125549 0 0 0 0)
(0.000620032 0.000145427 0 0.59665 -0.00065904 0 0 0 0)
(-0.00027805 0.000254292 0 0.600123 0.000306802 0 0 0 0)
(-0.00122153 0.000213282 0 0.598628 0.00127687 0 0 0 0)
(-0.00129409 4.56983e-05 0 0.602251 0.0011438 0 0 0 0)
(0.000615438 0.000150091 0 0.527698 -0.000639462 0 0 0 0)
(-0.000262618 0.000270183 0 0.530801 0.000293529 0 0 0 0)
(-0.00119856 0.000220179 0 0.529733 0.00124558 0 0 0 0)
(-0.00117525 4.07017e-05 0 0.534348 0.00103193 0 0 0 0)
(0.000606593 0.000154383 0 0.469415 -0.000656984 0 0 0 0)
(-0.000244136 0.000285709 0 0.472008 0.000257775 0 0 0 0)
(-0.00116241 0.000225588 0 0.47131 0.00119025 0 0 0 0)
(-0.0010426 3.62072e-05 0 0.477005 0.0008906 0 0 0 0)
(0.000595372 0.000157601 0 0.421119 -0.000639977 0 0 0 0)
(-0.000231035 0.00030097 0 0.42308 0.000265515 0 0 0 0)
(-0.00111527 0.000230726 0 0.422862 0.00122054 0 0 0 0)
(-0.000896505 3.17166e-05 0 0.429648 0.000741928 0 0 0 0)
(0.000571003 0.000161304 0 0.382747 -0.000567018 0 0 0 0)
(-0.000215093 0.000316718 0 0.38357 0.000274953 0 0 0 0)
(-0.00105295 0.000233529 0 0.383677 0.00108343 0 0 0 0)
(-0.00073492 2.38771e-05 0 0.391512 0.000580773 0 0 0 0)
(0.000535532 0.000163021 0 0.353507 -0.000617753 0 0 0 0)
(-0.000215536 0.000328478 0 0.352713 0.000200469 0 0 0 0)
(-0.000982916 0.000235823 0 0.353283 0.00105128 0 0 0 0)
(-0.000555461 2.2842e-05 0 0.362336 0.000388985 0 0 0 0)
(0.000463148 0.000165047 0 0.33359 -0.000496872 0 0 0 0)
(-0.00021882 0.000344535 0 0.330317 0.000268575 0 0 0 0)
(-0.000892571 0.000236671 0 0.33137 0.0010464 0 0 0 0)
(-0.000358865 1.49291e-05 0 0.341299 0.000150175 0 0 0 0)
(0.000353544 0.000167738 0 0.320543 -0.000334796 0 0 0 0)
(-0.000252538 0.000354199 0 0.309608 0.000289948 0 0 0 0)
(-0.00079989 0.00023385 0 0.315631 0.000794437 0 0 0 0)
(-0.000147096 1.22497e-05 0 0.328084 -7.49622e-05 0 0 0 0)
(7.9939e-05 0.000167586 0 0.315462 -0.000277139 0 0 0 0)
(-0.000300684 0.000363356 0 0.300593 0.000320393 0 0 0 0)
(-0.000584626 0.000230589 0 0.310449 0.000634423 0 0 0 0)
(0.000135796 1.10528e-05 0 0.324529 -0.000213555 0 0 0 0)
(-8.85399e-05 0.00017014 0 0.320087 7.18042e-05 0 0 0 0)
(-0.000336092 0.000369392 0 0.309614 0.000531033 0 0 0 0)
(-0.000400956 0.000224951 0 0.317745 0.000303775 0 0 0 0)
(0.000381959 3.70415e-06 0 0.33065 -0.000352771 0 0 0 0)
(-0.000213815 0.000171788 0 0.332909 0.000144004 0 0 0 0)
(-0.000339725 0.000367222 0 0.326065 0.000469895 0 0 0 0)
(-0.000234035 0.000215859 0 0.333042 0.000109677 0 0 0 0)
(0.00059374 3.80496e-06 0 0.344747 -0.000573995 0 0 0 0)
(-0.000294763 0.000172043 0 0.354251 0.000189709 0 0 0 0)
(-0.000333882 0.00036882 0 0.349996 0.000436669 0 0 0 0)
(-8.95772e-05 0.000207553 0 0.35635 3.39279e-05 0 0 0 0)
(0.000767319 -5.58232e-07 0 0.366447 -0.000747773 0 0 0 0)
(-0.000346558 0.000173675 0 0.383857 0.000311097 0 0 0 0)
(-0.000304747 0.000364626 0 0.381505 0.000483863 0 0 0 0)
(4.01418e-05 0.000196118 0 0.387671 -0.000164452 0 0 0 0)
(0.000904731 -1.18944e-06 0 0.396186 -0.000888811 0 0 0 0)
(-0.0003694 0.00017367 0 0.42231 0.000272751 0 0 0 0)
(-0.000270311 0.000360894 0 0.421308 0.000382037 0 0 0 0)
(0.000155095 0.000184675 0 0.427459 -0.000261271 0 0 0 0)
(0.00100873 -7.90247e-07 0 0.434216 -0.000986278 0 0 0 0)
(-0.000371865 0.000173865 0 0.469703 0.000289497 0 0 0 0)
(-0.000218928 0.000355725 0 0.469596 0.000347878 0 0 0 0)
(0.000255276 0.000173313 0 0.47605 -0.000352332 0 0 0 0)
(0.00107889 2.16361e-07 0 0.481209 -0.00106045 0 0 0 0)
(-0.000361855 0.000173193 0 0.526545 0.000281757 0 0 0 0)
(-0.000164534 0.000350197 0 0.527107 0.000307723 0 0 0 0)
(0.000348633 0.000161202 0 0.533914 -0.000450955 0 0 0 0)
(0.00112306 1.8437e-06 0 0.537593 -0.00110788 0 0 0 0)
(-0.00034254 0.000172384 0 0.593217 0.000268302 0 0 0 0)
(-9.61056e-05 0.000343513 0 0.594273 0.000233812 0 0 0 0)
(0.000430045 0.000149719 0 0.601655 -0.000527852 0 0 0 0)
(0.00113899 5.10712e-06 0 0.604038 -0.00111882 0 0 0 0)
(-0.000320422 0.000170764 0 0.670397 0.000247399 0 0 0 0)
(-2.3892e-05 0.000336927 0 0.67159 0.000186082 0 0 0 0)
(0.000511384 0.000138659 0 0.679528 -0.000595006 0 0 0 0)
(0.00113547 8.17263e-06 0 0.680899 -0.0011308 0 0 0 0)
(-0.000300798 0.000168916 0 0.758731 0.000204766 0 0 0 0)
(5.60771e-05 0.000329473 0 0.759626 6.00585e-05 0 0 0 0)
(0.000585191 0.000127771 0 0.768163 -0.000709804 0 0 0 0)
(0.00111313 1.25072e-05 0 0.768924 -0.00108786 0 0 0 0)
(-0.000292457 0.00016537 0 0.858956 0.000215545 0 0 0 0)
(0.000133301 0.000321685 0 0.859678 -1.86788e-05 0 0 0 0)
(0.000666356 0.000119527 0 0.868635 -0.000753145 0 0 0 0)
(0.00108443 1.88307e-05 0 0.868422 -0.00107313 0 0 0 0)
(-0.000287048 0.000161374 0 0.971796 0.000214172 0 0 0 0)
(0.000217393 0.000313328 0 0.972636 -6.66727e-05 0 0 0 0)
(0.000730921 0.000110197 0 0.981978 -0.000842516 0 0 0 0)
(0.00103693 2.45797e-05 0 0.980352 -0.00103828 0 0 0 0)
(-0.00028462 0.000156656 0 1.09759 0.000159786 0 0 0 0)
(0.000302999 0.000304073 0 1.09926 -0.000209105 0 0 0 0)
(0.000794964 0.000103333 0 1.10933 -0.000913909 0 0 0 0)
(0.000983319 3.11921e-05 0 1.10535 -0.000935725 0 0 0 0)
(-0.000282449 0.000150644 0 1.23822 0.00025962 0 0 0 0)
(0.000413134 0.000295434 0 1.24088 -0.000244055 0 0 0 0)
(0.000832343 9.80867e-05 0 1.2499 -0.00081469 0 0 0 0)
(0.000897561 3.9411e-05 0 1.24274 -0.000907646 0 0 0 0)
(-0.000263996 0.000144726 0 1.39389 0.000275353 0 0 0 0)
(0.000497745 0.000286168 0 1.39538 -0.000420012 0 0 0 0)
(0.000825951 9.22733e-05 0 1.40273 -0.000811684 0 0 0 0)
(0.000834176 4.33181e-05 0 1.39667 -0.000865137 0 0 0 0)
(-0.000277583 0.000136538 0 1.56575 0.000260799 0 0 0 0)
(0.00056031 0.000277316 0 1.56546 -0.000588535 0 0 0 0)
(0.000853781 9.06679e-05 0 1.57246 -0.000843168 0 0 0 0)
(0.000789784 4.87563e-05 0 1.56955 -0.000772932 0 0 0 0)
(-0.000278775 0.000126788 0 1.75513 0.000319043 0 0 0 0)
(0.00060958 0.000267768 0 1.75475 -0.000597351 0 0 0 0)
(0.000894109 8.92e-05 0 1.76095 -0.000862878 0 0 0 0)
(0.000740931 5.45652e-05 0 1.75882 -0.000749331 0 0 0 0)
(-0.000270278 0.000117158 0 1.96178 0.000263615 0 0 0 0)
(0.000657322 0.000257618 0 1.96153 -0.000674807 0 0 0 0)
(0.000921553 8.81349e-05 0 1.96696 -0.000952851 0 0 0 0)
(0.000686618 5.84569e-05 0 1.96506 -0.000692791 0 0 0 0)
(-0.000254882 0.000106191 0 2.18647 0.000250747 0 0 0 0)
(0.000695928 0.000247494 0 2.1868 -0.000719001 0 0 0 0)
(0.000952956 8.89003e-05 0 2.19137 -0.00094899 0 0 0 0)
(0.000631884 6.57262e-05 0 2.18973 -0.00061309 0 0 0 0)
(-0.000226198 9.56533e-05 0 2.43012 0.000244992 0 0 0 0)
(0.000739074 0.000237622 0 2.43105 -0.000697743 0 0 0 0)
(0.000970377 8.99001e-05 0 2.43501 -0.000969266 0 0 0 0)
(0.000579372 7.04107e-05 0 2.43343 -0.000582499 0 0 0 0)
(-0.000195814 8.51853e-05 0 2.69318 0.000197989 0 0 0 0)
(0.000777454 0.000227256 0 2.69523 -0.000760169 0 0 0 0)
(0.000992681 9.0821e-05 0 2.69866 -0.00098795 0 0 0 0)
(0.000528845 7.69596e-05 0 2.69745 -0.000534963 0 0 0 0)
(-0.00014564 7.36823e-05 0 2.97671 0.000147162 0 0 0 0)
(0.000830375 0.000217856 0 2.97966 -0.000826363 0 0 0 0)
(0.00100734 9.36536e-05 0 2.98335 -0.00100766 0 0 0 0)
(0.000485818 8.26121e-05 0 2.98275 -0.000481071 0 0 0 0)
(-9.91574e-05 6.20009e-05 0 3.28074 9.2618e-05 0 0 0 0)
(0.000888086 0.000208009 0 3.28483 -0.0008879 0 0 0 0)
(0.00104416 9.65759e-05 0 3.28923 -0.00104589 0 0 0 0)
(0.000449321 9.04269e-05 0 3.29018 -0.000448301 0 0 0 0)
(-4.0577e-05 4.95427e-05 0 3.60638 8.01436e-05 0 0 0 0)
(0.000971846 0.000198881 0 3.61072 -0.000888584 0 0 0 0)
(0.00109644 0.00010098 0 3.61689 -0.00106438 0 0 0 0)
(0.000434493 9.72251e-05 0 3.62032 -0.000452307 0 0 0 0)
(-2.7516e-06 3.73016e-05 0 3.95355 -2.08592e-05 0 0 0 0)
(0.00106325 0.000188934 0 3.95804 -0.00110996 0 0 0 0)
(0.00120418 0.000103847 0 3.96655 -0.00121713 0 0 0 0)
(0.000445112 0.00010586 0 3.97374 -0.000407197 0 0 0 0)
(3.35805e-05 2.08628e-05 0 4.32368 -7.50252e-05 0 0 0 0)
(0.00118851 0.000178943 0 4.32668 -0.00128237 0 0 0 0)
(0.00135817 0.000112693 0 4.338 -0.00146475 0 0 0 0)
(0.00049921 0.000117733 0 4.35174 -0.000528457 0 0 0 0)
(1.92748e-05 4.65102e-06 0 4.71541 0.000193708 0 0 0 0)
(0.00130194 0.000165772 0 4.71645 -0.00115872 0 0 0 0)
(0.00162197 0.000116412 0 4.72953 -0.00162855 0 0 0 0)
(0.000641533 0.000133433 0 4.75194 -0.000712029 0 0 0 0)
(-1.34268e-05 -1.15202e-05 0 5.18783 0.000140358 0 0 0 0)
(0.00142375 0.000148572 0 5.18078 -0.00125816 0 0 0 0)
(0.00194966 0.000120138 0 5.18955 -0.00183779 0 0 0 0)
(0.000905827 0.00014532 0 5.22049 -0.0008053 0 0 0 0)
(-0.000209446 -2.7979e-05 0 7.83014 0.000212118 0 0 0 0)
(0.00133063 0.000132803 0 7.79504 -0.000579318 0 0 0 0)
(0.00228383 0.00012396 0 7.76586 -0.00108153 0 0 0 0)
(0.00122882 0.000165868 0 7.7856 -0.000595574 0 0 0 0)
(-0.000139794 7.22097e-08 0 6.54657 0.00030725 0 0 0 0)
(0.000104922 -7.92658e-07 0 6.54558 -0.000211275 0 0 0 0)
(0.000129305 6.91802e-08 0 6.57037 -8.95114e-05 0 0 0 0)
(-0.000144712 1.16615e-05 0 6.56999 -6.30922e-05 0 0 0 0)
(-0.000398689 -3.06996e-06 0 6.02572 0.000565657 0 0 0 0)
(0.000291723 -5.82003e-06 0 6.02826 -0.000408881 0 0 0 0)
(0.000277538 2.40053e-06 0 6.04824 -0.000237685 0 0 0 0)
(-2.1761e-06 7.86863e-06 0 6.04564 -4.14833e-05 0 0 0 0)
(-0.000609979 -1.00858e-05 0 5.53008 0.000801007 0 0 0 0)
(0.000480232 -1.41817e-05 0 5.53552 -0.000607033 0 0 0 0)
(0.000418991 6.19248e-06 0 5.5528 -0.00038362 0 0 0 0)
(0.000151473 1.40806e-05 0 5.55274 -0.000140899 0 0 0 0)
(-0.000775178 -2.14989e-05 0 5.06388 0.00097446 0 0 0 0)
(0.000670366 -2.55638e-05 0 5.07061 -0.000804512 0 0 0 0)
(0.000564502 1.01694e-05 0 5.08581 -0.00052997 0 0 0 0)
(0.000299994 9.017e-06 0 5.0876 -0.000287656 0 0 0 0)
(-0.000903084 -3.68969e-05 0 4.62654 0.00110127 0 0 0 0)
(0.000845766 -3.92555e-05 0 4.63323 -0.000979653 0 0 0 0)
(0.000702085 1.48067e-05 0 4.64649 -0.000669581 0 0 0 0)
(0.000434581 1.38787e-05 0 4.64918 -0.000429626 0 0 0 0)
(-0.00100093 -5.57262e-05 0 4.2169 0.00119965 0 0 0 0)
(0.00100272 -5.50781e-05 0 4.22294 -0.0011367 0 0 0 0)
(0.000830411 1.93365e-05 0 4.23448 -0.000796707 0 0 0 0)
(0.000552253 1.07799e-05 0 4.23759 -0.000545643 0 0 0 0)
(-0.00107183 -7.74583e-05 0 3.834 0.00126906 0 0 0 0)
(0.00113871 -7.25282e-05 0 3.83907 -0.00127051 0 0 0 0)
(0.000946379 2.46577e-05 0 3.84914 -0.000914437 0 0 0 0)
(0.000650749 1.71435e-05 0 3.85224 -0.000644297 0 0 0 0)
(-0.00112292 -0.000101485 0 3.47703 0.00132116 0 0 0 0)
(0.00125512 -9.14698e-05 0 3.48105 -0.00138949 0 0 0 0)
(0.00104992 2.97735e-05 0 3.48978 -0.00101363 0 0 0 0)
(0.000725401 1.60383e-05 0 3.49248 -0.000713842 0 0 0 0)
(-0.00115292 -0.000127506 0 3.14514 0.00135103 0 0 0 0)
(0.00135115 -0.000111441 0 3.14808 -0.00148352 0 0 0 0)
(0.00113692 3.59184e-05 0 3.15562 -0.001107 0 0 0 0)
(0.000777529 2.12825e-05 0 3.15786 -0.000771696 0 0 0 0)
(-0.00116875 -0.000154725 0 2.83762 0.00136895 0 0 0 0)
(0.00142977 -0.000132437 0 2.83954 -0.00156087 0 0 0 0)
(0.00121289 4.16372e-05 0 2.8459 -0.00117601 0 0 0 0)
(0.000808228 2.35268e-05 0 2.8477 -0.000793874 0 0 0 0)
(-0.00116509 -0.000183336 0 2.5535 0.00136719 0 0 0 0)
(0.00148917 -0.000153857 0 2.5544 -0.00161827 0 0 0 0)
(0.00127285 4.87017e-05 0 2.55954 -0.00124582 0 0 0 0)
(0.000817452 2.75354e-05 0 2.5611 -0.000803405 0 0 0 0)
(-0.00115042 -0.000212019 0 2.29195 0.00138997 0 0 0 0)
(0.00153046 -0.000175987 0 2.29212 -0.00160674 0 0 0 0)
(0.00132462 5.52183e-05 0 2.29572 -0.00124857 0 0 0 0)
(0.000814055 3.30975e-05 0 2.29703 -0.000792952 0 0 0 0)
(-0.00110875 -0.000240663 0 2.05173 0.00138983 0 0 0 0)
(0.001552 -0.000197833 0 2.05131 -0.00152764 0 0 0 0)
(0.00135461 6.22649e-05 0 2.05333 -0.00125255 0 0 0 0)
(0.000798169 3.44922e-05 0 2.05438 -0.000761822 0 0 0 0)
(-0.00106492 -0.000268027 0 1.83183 0.00123996 0 0 0 0)
(0.00155715 -0.000220027 0 1.83163 -0.00176795 0 0 0 0)
(0.00137575 6.7982e-05 0 1.8317 -0.00139769 0 0 0 0)
(0.000778633 4.2028e-05 0 1.83213 -0.000775595 0 0 0 0)
(-0.000991876 -0.000299724 0 1.63097 0.00114252 0 0 0 0)
(0.00154974 -0.000241794 0 1.63176 -0.00185189 0 0 0 0)
(0.00136286 7.88042e-05 0 1.63088 -0.00140195 0 0 0 0)
(0.000748793 4.73911e-05 0 1.63039 -0.000761974 0 0 0 0)
(-0.000917506 -0.000328371 0 1.44892 0.00108625 0 0 0 0)
(0.00155555 -0.000262435 0 1.44903 -0.00172763 0 0 0 0)
(0.00135288 8.61472e-05 0 1.44818 -0.00135918 0 0 0 0)
(0.000699144 5.38226e-05 0 1.447 -0.00074342 0 0 0 0)
(-0.000837615 -0.000357875 0 1.28466 0.000967236 0 0 0 0)
(0.0015374 -0.000282551 0 1.28291 -0.00186823 0 0 0 0)
(0.0013289 9.52077e-05 0 1.28189 -0.00132462 0 0 0 0)
(0.000648308 6.02076e-05 0 1.28042 -0.000670492 0 0 0 0)
(-0.000781643 -0.000387402 0 1.13659 0.000988603 0 0 0 0)
(0.00150941 -0.000300633 0 1.13398 -0.00159779 0 0 0 0)
(0.00131152 0.000106109 0 1.13306 -0.00117935 0 0 0 0)
(0.000598439 6.51474e-05 0 1.1315 -0.00061464 0 0 0 0)
(-0.000720119 -0.000411355 0 1.00411 0.000997223 0 0 0 0)
(0.00147852 -0.000318684 0 1.00113 -0.00148587 0 0 0 0)
(0.00128748 0.000111593 0 0.999973 -0.00113321 0 0 0 0)
(0.000537189 6.74236e-05 0 0.998131 -0.000534208 0 0 0 0)
(-0.000671774 -0.000437852 0 0.886237 0.000856387 0 0 0 0)
(0.00144041 -0.00033614 0 0.882879 -0.00162797 0 0 0 0)
(0.0012616 0.000121971 0 0.881251 -0.00117774 0 0 0 0)
(0.000479305 7.25364e-05 0 0.87912 -0.000482314 0 0 0 0)
(-0.000619258 -0.00046248 0 0.782243 0.000801971 0 0 0 0)
(0.00139544 -0.000352586 0 0.778699 -0.00154786 0 0 0 0)
(0.00122483 0.000130688 0 0.776296 -0.00114042 0 0 0 0)
(0.000416508 7.61041e-05 0 0.773834 -0.000442422 0 0 0 0)
(-0.00057165 -0.000486335 0 0.691192 0.000767923 0 0 0 0)
(0.00134129 -0.000368513 0 0.687297 -0.00150299 0 0 0 0)
(0.00118052 0.000140395 0 0.683948 -0.00108977 0 0 0 0)
(0.000357593 8.02774e-05 0 0.681238 -0.000359547 0 0 0 0)
(-0.000522346 -0.000508454 0 0.612311 0.000699917 0 0 0 0)
(0.00127469 -0.000383547 0 0.608035 -0.00144333 0 0 0 0)
(0.00112384 0.000149745 0 0.603605 -0.00104131 0 0 0 0)
(0.000297451 8.35568e-05 0 0.600706 -0.000315971 0 0 0 0)
(-0.000475252 -0.000529454 0 0.544822 0.000676111 0 0 0 0)
(0.00119619 -0.000397533 0 0.539996 -0.00135376 0 0 0 0)
(0.00105837 0.000159184 0 0.534525 -0.000964597 0 0 0 0)
(0.000241676 8.66486e-05 0 0.531608 -0.000243816 0 0 0 0)
(-0.000428211 -0.000548216 0 0.488035 0.000651151 0 0 0 0)
(0.00110308 -0.000410892 0 0.482577 -0.00123661 0 0 0 0)
(0.000984032 0.000168244 0 0.476011 -0.000899516 0 0 0 0)
(0.000183657 8.89758e-05 0 0.473212 -0.000192844 0 0 0 0)
(-0.000382387 -0.000564907 0 0.441323 0.000480731 0 0 0 0)
(0.00099579 -0.000423378 0 0.435248 -0.00124422 0 0 0 0)
(0.000902285 0.00017658 0 0.427794 -0.000838548 0 0 0 0)
(0.000131749 9.06908e-05 0 0.425216 -0.000149763 0 0 0 0)
(-0.000334884 -0.000581318 0 0.404139 0.000550949 0 0 0 0)
(0.000877605 -0.00043288 0 0.397624 -0.000961962 0 0 0 0)
(0.000816829 0.000186485 0 0.389155 -0.000676395 0 0 0 0)
(7.24084e-05 9.22853e-05 0 0.387161 -5.02405e-05 0 0 0 0)
(-0.000280512 -0.00059062 0 0.375847 0.000514404 0 0 0 0)
(0.000746054 -0.000443833 0 0.369044 -0.000900877 0 0 0 0)
(0.000727897 0.000191775 0 0.360457 -0.000616365 0 0 0 0)
(2.49438e-05 9.25137e-05 0 0.359185 -2.40605e-05 0 0 0 0)
(-0.000223088 -0.000602816 0 0.355872 0.000410862 0 0 0 0)
(0.000621105 -0.000451726 0 0.34944 -0.000902055 0 0 0 0)
(0.000652512 0.000201099 0 0.341217 -0.000588 0 0 0 0)
(-4.34194e-05 9.22621e-05 0 0.341236 -1.44603e-05 0 0 0 0)
(-0.000144819 -0.000608157 0 0.34531 0.000561857 0 0 0 0)
(0.000501797 -0.000460481 0 0.341561 -0.000588882 0 0 0 0)
(0.000591165 0.000206569 0 0.330056 -0.000529237 0 0 0 0)
(-0.000102163 9.40325e-05 0 0.3326 0.000137563 0 0 0 0)
(1.52918e-06 -0.000611381 0 0.342192 0.000121691 0 0 0 0)
(0.000366859 -0.000469911 0 0.339526 -0.000594628 0 0 0 0)
(0.000503158 0.000213206 0 0.323354 -0.0006209 0 0 0 0)
(-0.00020197 9.55028e-05 0 0.327118 0.000176296 0 0 0 0)
(0.000105128 -0.000614508 0 0.345221 -0.000131096 0 0 0 0)
(0.000187836 -0.000472858 0 0.34044 -0.000216704 0 0 0 0)
(0.000384368 0.000219417 0 0.324665 -0.000452828 0 0 0 0)
(-0.000233703 9.97619e-05 0 0.32724 0.000278908 0 0 0 0)
(0.000164708 -0.000609113 0 0.356163 -0.000146065 0 0 0 0)
(2.42597e-05 -0.000475274 0 0.350011 3.1072e-05 0 0 0 0)
(0.000283141 0.000221466 0 0.337018 -0.000269526 0 0 0 0)
(-0.000278275 0.000104247 0 0.338438 0.000355686 0 0 0 0)
(0.000192854 -0.000604424 0 0.375009 -0.000265736 0 0 0 0)
(-0.000131246 -0.000474915 0 0.368626 0.000107636 0 0 0 0)
(0.000191486 0.000224828 0 0.357303 -0.000204243 0 0 0 0)
(-0.000302191 0.000106654 0 0.357961 0.000323492 0 0 0 0)
(0.000201022 -0.000594857 0 0.402156 -0.000178373 0 0 0 0)
(-0.000270852 -0.000474249 0 0.396212 0.000339107 0 0 0 0)
(0.000105394 0.000225064 0 0.386032 -9.24673e-05 0 0 0 0)
(-0.000329132 0.000110813 0 0.385983 0.000386276 0 0 0 0)
(0.000193288 -0.000583958 0 0.437908 -0.000176923 0 0 0 0)
(-0.00039997 -0.000473484 0 0.433155 0.000386461 0 0 0 0)
(2.10178e-05 0.000225614 0 0.423527 -3.81225e-05 0 0 0 0)
(-0.000338446 0.00011338 0 0.422827 0.000370605 0 0 0 0)
(0.000183336 -0.000571978 0 0.48291 -0.000194295 0 0 0 0)
(-0.000510548 -0.000471935 0 0.47935 0.000508662 0 0 0 0)
(-6.67475e-05 0.0002248 0 0.47018 4.57489e-05 0 0 0 0)
(-0.000349409 0.000115994 0 0.469144 0.00037649 0 0 0 0)
(0.000162313 -0.000557806 0 0.537521 -0.000157509 0 0 0 0)
(-0.000612125 -0.000469483 0 0.535096 0.000613491 0 0 0 0)
(-0.000149091 0.000223411 0 0.526541 0.000134317 0 0 0 0)
(-0.000346403 0.000117443 0 0.525347 0.000396593 0 0 0 0)
(0.000141726 -0.000543288 0 0.6024 -0.000148116 0 0 0 0)
(-0.000693537 -0.000467072 0 0.601193 0.000698201 0 0 0 0)
(-0.00022923 0.000221185 0 0.593253 0.000213918 0 0 0 0)
(-0.000349347 0.000118451 0 0.591787 0.000379537 0 0 0 0)
(0.000114889 -0.000527523 0 0.677976 -0.000150999 0 0 0 0)
(-0.000764574 -0.000463449 0 0.678145 0.000727317 0 0 0 0)
(-0.000305851 0.0002181 0 0.670922 0.000281955 0 0 0 0)
(-0.000347002 0.000118349 0 0.669085 0.000394135 0 0 0 0)
(9.58355e-05 -0.000512319 0 0.765101 -7.03217e-05 0 0 0 0)
(-0.000811099 -0.000459856 0 0.76662 0.00082611 0 0 0 0)
(-0.000380228 0.000215632 0 0.760176 0.000369948 0 0 0 0)
(-0.000358109 0.000117875 0 0.757948 0.00038374 0 0 0 0)
(7.64899e-05 -0.000495623 0 0.864063 -2.87945e-05 0 0 0 0)
(-0.000846645 -0.000456111 0 0.867066 0.000917999 0 0 0 0)
(-0.000450389 0.000210727 0 0.861414 0.000461125 0 0 0 0)
(-0.000371085 0.000115596 0 0.858853 0.000433882 0 0 0 0)
(7.32248e-05 -0.000479134 0 0.975911 -0.00010083 0 0 0 0)
(-0.000855264 -0.00045169 0 0.980232 0.000788906 0 0 0 0)
(-0.000517098 0.000207563 0 0.974829 0.000495293 0 0 0 0)
(-0.000399062 0.000113782 0 0.972166 0.000456116 0 0 0 0)
(7.4488e-05 -0.00046517 0 1.10097 -2.40326e-05 0 0 0 0)
(-0.000864679 -0.000446176 0 1.10661 0.000913185 0 0 0 0)
(-0.000584832 0.00020518 0 1.10156 0.000582825 0 0 0 0)
(-0.00042164 0.000110911 0 1.09899 0.000434668 0 0 0 0)
(9.42237e-05 -0.000448319 0 1.24095 -8.71299e-05 0 0 0 0)
(-0.000845508 -0.000441576 0 1.2486 0.000850983 0 0 0 0)
(-0.000644117 0.000199588 0 1.24221 0.000643782 0 0 0 0)
(-0.000465187 0.000106732 0 1.23964 0.000471794 0 0 0 0)
(0.000172247 -0.00043586 0 1.39626 -0.000250967 0 0 0 0)
(-0.000843671 -0.000433994 0 1.40458 0.00069158 0 0 0 0)
(-0.000734203 0.000198861 0 1.39844 0.000711804 0 0 0 0)
(-0.000488249 0.000104508 0 1.39509 0.000426343 0 0 0 0)
(0.000226158 -0.000422373 0 1.56686 -0.00016834 0 0 0 0)
(-0.000809131 -0.00042553 0 1.57364 0.00094735 0 0 0 0)
(-0.000802356 0.000195167 0 1.56976 0.000839356 0 0 0 0)
(-0.000540963 9.94574e-05 0 1.56635 0.000487712 0 0 0 0)
(0.000240418 -0.000407188 0 1.75476 -0.000280841 0 0 0 0)
(-0.000795331 -0.000417199 0 1.7601 0.000798695 0 0 0 0)
(-0.000855752 0.0001912 0 1.75712 0.000874642 0 0 0 0)
(-0.00055518 9.48653e-05 0 1.75431 0.000565441 0 0 0 0)
(0.000247606 -0.000396573 0 1.96041 -0.000283191 0 0 0 0)
(-0.000769843 -0.000406272 0 1.96494 0.000766359 0 0 0 0)
(-0.000898881 0.00019128 0 1.96264 0.000919105 0 0 0 0)
(-0.000574097 9.01974e-05 0 1.96009 0.000561001 0 0 0 0)
(0.000238482 -0.000382869 0 2.18494 -0.000231762 0 0 0 0)
(-0.000758236 -0.000397161 0 2.18838 0.0008452 0 0 0 0)
(-0.000936556 0.000187777 0 2.18655 0.000965903 0 0 0 0)
(-0.000569576 8.39405e-05 0 2.18416 0.000571308 0 0 0 0)
(0.000225107 -0.000372268 0 2.42883 -0.000295263 0 0 0 0)
(-0.000743067 -0.000386311 0 2.43148 0.00071353 0 0 0 0)
(-0.000969285 0.000186715 0 2.42998 0.000972317 0 0 0 0)
(-0.000575379 7.82781e-05 0 2.42751 0.00056262 0 0 0 0)
(0.000205928 -0.000361269 0 2.69305 -0.000255867 0 0 0 0)
(-0.000739121 -0.000376034 0 2.69438 0.000745457 0 0 0 0)
(-0.00100279 0.000185262 0 2.69313 0.00101271 0 0 0 0)
(-0.000567178 7.18184e-05 0 2.6904 0.000558092 0 0 0 0)
(0.000173931 -0.000350928 0 2.97858 -0.000199623 0 0 0 0)
(-0.000741716 -0.000365168 0 2.9785 0.000764823 0 0 0 0)
(-0.00103564 0.000183592 0 2.97705 0.00105653 0 0 0 0)
(-0.000574477 6.46994e-05 0 2.97386 0.0005647 0 0 0 0)
(0.000135084 -0.000340504 0 3.28615 -0.000169108 0 0 0 0)
(-0.000764596 -0.000355098 0 3.28388 0.000782483 0 0 0 0)
(-0.00108009 0.000181927 0 3.28231 0.00108787 0 0 0 0)
(-0.000572812 5.66622e-05 0 3.27853 0.000560474 0 0 0 0)
(6.8882e-05 -0.000330415 0 3.61664 -0.000138405 0 0 0 0)
(-0.000805705 -0.000344218 0 3.61178 0.000778604 0 0 0 0)
(-0.00112474 0.000179892 0 3.60928 0.00114553 0 0 0 0)
(-0.000600635 4.81119e-05 0 3.60494 0.000593373 0 0 0 0)
(-7.31652e-06 -0.000319988 0 3.97043 1.3324e-05 0 0 0 0)
(-0.000887257 -0.0003337 0 3.96229 0.000953306 0 0 0 0)
(-0.00119412 0.00017884 0 3.95851 0.00122652 0 0 0 0)
(-0.000621101 3.89058e-05 0 3.95359 0.000610835 0 0 0 0)
(-0.000122069 -0.00030774 0 4.34979 0.000189652 0 0 0 0)
(-0.00100439 -0.000323998 0 4.33748 0.00115546 0 0 0 0)
(-0.00126968 0.000174184 0 4.33079 0.0013112 0 0 0 0)
(-0.000683335 2.73222e-05 0 4.32536 0.00067667 0 0 0 0)
(-0.000244978 -0.000291923 0 4.75392 2.66635e-05 0 0 0 0)
(-0.00120387 -0.000315007 0 4.73675 0.00100329 0 0 0 0)
(-0.00139627 0.00017086 0 4.72566 0.00131477 0 0 0 0)
(-0.000739603 1.5802e-05 0 4.71927 0.00078426 0 0 0 0)
(-0.000375251 -0.000279151 0 5.22479 0.000108268 0 0 0 0)
(-0.00147541 -0.00030253 0 5.20962 0.00110799 0 0 0 0)
(-0.00156099 0.000170533 0 5.20237 0.00111658 0 0 0 0)
(-0.000854167 8.6378e-06 0 5.1945 0.000699642 0 0 0 0)
(-0.000426071 -0.000260035 0 7.79859 -6.52806e-05 0 0 0 0)
(-0.00157764 -0.000298202 0 7.82222 0.000553433 0 0 0 0)
(-0.00164832 0.000164054 0 7.84806 0.000831042 0 0 0 0)
(-0.000981823 -4.6835e-07 0 7.84369 0.000595221 0 0 0 0)
(-0.000824354 -3.10958e-05 0 27.847 0.000576819 0 0 0 0)
(0.000352276 0.000127012 0 27.6787 0.00041628 0 0 0 0)
(0.00179243 0.000119867 0 27.2228 0.000472047 0 0 0 0)
(0.00145135 0.000162257 0 26.682 -0.000186958 0 0 0 0)
(-0.00332274 -3.97743e-05 0 47.3698 0.00214496 0 0 0 0)
(-0.00907286 0.000131056 0 47.2452 0.00507597 0 0 0 0)
(-0.0143281 0.000113906 0 46.9167 0.00740525 0 0 0 0)
(-0.00781024 0.00013972 0 46.5602 0.00370251 0 0 0 0)
(-0.00336651 6.91511e-05 0 47.2309 0.00406924 0 0 0 0)
(-0.00719801 0.000214683 0 47.2736 0.00910204 0 0 0 0)
(-0.00962406 9.69758e-05 0 47.4527 0.0123511 0 0 0 0)
(-0.00399257 -3.97668e-05 0 47.7767 0.00562086 0 0 0 0)
(-0.0031085 0.000146071 0 43.3044 0.00323248 0 0 0 0)
(-0.00537628 0.000269088 0 43.3631 0.00613151 0 0 0 0)
(-0.0059421 5.58862e-05 0 43.5063 0.00723512 0 0 0 0)
(-0.00147984 -0.000203273 0 43.743 0.00195839 0 0 0 0)
(-0.00269837 0.000181082 0 39.5935 0.00240185 0 0 0 0)
(-0.0038325 0.000281394 0 39.6594 0.00354026 0 0 0 0)
(-0.0032926 2.74239e-05 0 39.7673 0.00298347 0 0 0 0)
(0.000375016 -0.000247861 0 39.9296 -0.000431547 0 0 0 0)
(-0.00218809 0.000206865 0 36.1018 0.00221787 0 0 0 0)
(-0.00247917 0.000278782 0 36.1716 0.00275863 0 0 0 0)
(-0.00143945 -1.03105e-05 0 36.256 0.00158811 0 0 0 0)
(0.00136704 -0.000294328 0 36.3535 -0.00142742 0 0 0 0)
(-0.00161815 0.000217673 0 32.8232 0.00154869 0 0 0 0)
(-0.00126221 0.000270898 0 32.8877 0.00127157 0 0 0 0)
(-0.000261328 -4.23435e-05 0 32.9576 0.000231721 0 0 0 0)
(0.00174946 -0.000304402 0 33.0106 -0.00194631 0 0 0 0)
(-0.00120783 0.000216511 0 29.7619 0.00105405 0 0 0 0)
(-0.000239771 0.000256832 0 29.8253 0.000205696 0 0 0 0)
(0.00060895 -6.39419e-05 0 29.8858 -0.000598982 0 0 0 0)
(0.00190751 -0.000299048 0 29.9044 -0.00178154 0 0 0 0)
(-0.000648707 0.00020425 0 26.9146 0.000610504 0 0 0 0)
(0.00080333 0.000243347 0 26.9757 -0.000680303 0 0 0 0)
(0.00105812 -7.54642e-05 0 27.0284 -0.000954002 0 0 0 0)