/*--------------------------------*- C++ -*----------------------------------*\
  =========                 |
  \\      /  F ield         | OpenFOAM: The Open Source CFD Toolbox
   \\    /   O peration     | Website:  https://openfoam.org
    \\  /    A nd           | Version:  dev
     \\/     M anipulation  |

   OpenFOAM for Windows 20.09 (v1)
   Built by CFD Support, www.cfdsupport.com (based on Symscape).
\*---------------------------------------------------------------------------*/
FoamFile
{
    version     2.0;
    format      ascii;
    class       volVectorField;
    location    "10";
    object      gradp_rgh;
}
// * * * * * * * * * * * * * * * * * * * * * * * * * * * * * * * * * * * * * //

dimensions      [1 -2 -2 0 0 0 0];

internalField   nonuniform List<vector> 
960
(
(-1.21728 -10.2227 0)
(-1.40939 -2.44905 0)
(-1.2682 -0.320834 0)
(-1.25294 -0.0212879 0)
(-1.25801 -10.2105 0)
(-1.24436 -2.44889 0)
(-1.22773 -0.320549 0)
(-1.24803 -0.0210126 0)
(-1.25792 0.0428264 0)
(-1.24456 0.0220315 0)
(-1.22773 0.00140483 0)
(-1.24783 0.000684348 0)
(-1.25756 0.0116253 0)
(-1.24505 0.0209898 0)
(-1.22809 -0.0110625 0)
(-1.24817 0.000792766 0)
(-1.25758 -0.0172355 0)
(-1.24494 -0.0247375 0)
(-1.22807 -0.0117987 0)
(-1.24796 0.000871488 0)
(-1.25798 0.0161642 0)
(-1.24496 -0.0240703 0)
(-1.22766 0.00408328 0)
(-1.24797 0.00226867 0)
(-1.25799 0.0257052 0)
(-1.24514 -0.000722708 0)
(-1.22763 0.00402393 0)
(-1.24802 0.00057895 0)
(-1.25801 0.0222713 0)
(-1.24532 -0.000925459 0)
(-1.22764 0.000966254 0)
(-1.24803 -0.00089871 0)
(-1.25803 0.030253 0)
(-1.24549 0.00795057 0)
(-1.22763 0.00531962 0)
(-1.248 0.000751933 0)
(-1.25792 0.0223157 0)
(-1.24574 -0.000801747 0)
(-1.22776 0.00486973 0)
(-1.24814 0.000896923 0)
(-1.25809 0.013315 0)
(-1.24578 -0.00975404 0)
(-1.2276 0.0132955 0)
(-1.24814 0.0101458 0)
(-1.258 0.0393146 0)
(-1.24574 -0.00112393 0)
(-1.22743 0.0140431 0)
(-1.24828 0.0100602 0)
(-1.25804 0.0479426 0)
(-1.2462 -0.000180518 0)
(-1.22741 0.0217678 0)
(-1.2483 0.0199503 0)
(-1.25808 0.0293961 0)
(-1.24617 0.00513821 0)
(-1.22709 0.0237194 0)
(-1.2486 0.0227208 0)
(-1.25883 0.274242 0)
(-1.2463 0.205079 0)
(-1.22712 0.229192 0)
(-1.24868 0.371723 0)
(-1.25463 -0.0207846 0)
(-1.24692 0.00348796 0)
(-1.22432 -0.0989197 0)
(-1.24514 -0.226037 0)
(-1.257 -0.268402 0)
(-1.2476 -0.185519 0)
(-1.23095 -0.323344 0)
(-1.2474 -0.595422 0)
(-1.25671 0.0207222 0)
(-1.24784 0.00959737 0)
(-1.23115 0.00378661 0)
(-1.24758 -0.00167215 0)
(-1.25656 0.0197155 0)
(-1.24788 0.00406902 0)
(-1.23113 0.00367227 0)
(-1.24778 -0.00199208 0)
(-1.25647 0.0302514 0)
(-1.24811 0.0115161 0)
(-1.23125 0.00368204 0)
(-1.24797 -0.00231733 0)
(-1.25638 0.0356404 0)
(-1.24833 0.0115689 0)
(-1.23137 0.00398547 0)
(-1.24817 -0.00234541 0)
(-1.25641 0.0343392 0)
(-1.24863 0.0161476 0)
(-1.23148 0.00451303 0)
(-1.24837 -0.00225523 0)
(-1.25619 0.0282261 0)
(-1.24882 0.0114711 0)
(-1.23167 0.0069858 0)
(-1.24857 0.00162852 0)
(-1.25618 0.0290753 0)
(-1.24899 0.00672407 0)
(-1.23165 -0.000777903 0)
(-1.24873 -0.000256387 0)
(-1.25611 0.0292979 0)
(-1.24932 0.0112108 0)
(-1.23179 -0.00268758 0)
(-1.24888 -0.00389866 0)
(-1.25603 0.0291937 0)
(-1.24952 0.0112973 0)
(-1.2319 0.00570944 0)
(-1.24908 -0.00164598 0)
(-1.25596 0.0290064 0)
(-1.24971 0.0115215 0)
(-1.232 0.00628754 0)
(-1.2493 -0.00141437 0)
(-1.25588 0.0291339 0)
(-1.2499 0.0120152 0)
(-1.23211 0.00675903 0)
(-1.24951 -0.000995432 0)
(-1.25632 0.195318 0)
(-1.25008 0.580074 0)
(-1.23222 1.85902 0)
(-1.24973 1.04151 0)
(-1.24722 -0.0136615 0)
(-1.22217 0.0160184 0)
(-1.22442 1.11598 0)
(-1.24915 0.731257 0)
(-1.26045 -0.216803 0)
(-1.23126 -0.553811 0)
(-1.2203 -0.766821 0)
(-1.24229 -0.32983 0)
(-1.25717 -0.0204333 0)
(-1.23134 0.0104108 0)
(-1.22069 -0.0259713 0)
(-1.24271 -0.0207445 0)
(-1.25705 0.0170272 0)
(-1.23135 0.0136901 0)
(-1.22082 0.000945607 0)
(-1.24291 -0.00102298 0)
(-1.25693 0.029515 0)
(-1.23161 0.0146619 0)
(-1.22093 -0.00424713 0)
(-1.24318 -0.00691815 0)
(-1.2568 0.0296492 0)
(-1.23191 0.0147524 0)
(-1.22118 -0.00100225 0)
(-1.24343 -0.00718411 0)
(-1.25667 0.0288187 0)
(-1.23212 0.0148412 0)
(-1.2213 0.00574942 0)
(-1.24364 0.000511739 0)
(-1.25654 0.0258387 0)
(-1.2323 0.0156281 0)
(-1.22142 0.00610689 0)
(-1.24386 0.000747904 0)
(-1.25635 0.0254602 0)
(-1.23245 0.0122341 0)
(-1.22155 0.00663997 0)
(-1.24403 0.00294703 0)
(-1.25627 0.0266538 0)
(-1.23261 0.0104828 0)
(-1.22157 0.0052392 0)
(-1.24427 0.00144673 0)
(-1.25615 0.0264371 0)
(-1.2328 0.0126942 0)
(-1.2217 0.00469874 0)
(-1.24447 -0.00105511 0)
(-1.25603 0.0317717 0)
(-1.23297 0.0186926 0)
(-1.2218 0.00580601 0)
(-1.24469 0.000169237 0)
(-1.25593 0.019698 0)
(-1.23324 0.0184576 0)
(-1.22201 0.00888864 0)
(-1.2449 0.000513893 0)
(-1.25564 0.0143233 0)
(-1.23315 0.0115955 0)
(-1.2221 0.0236973 0)
(-1.24515 0.000279472 0)
(-1.25555 0.0286924 0)
(-1.23308 0.237728 0)
(-1.2222 0.0334719 0)
(-1.2456 0.476944 0)
(-1.25169 0.346668 0)
(-1.23307 0.99232 0)
(-1.21811 0.757649 0)
(-1.23644 -0.0359949 0)
(-1.24299 -0.0952228 0)
(-1.22623 0.251365 0)
(-1.23933 -0.327906 0)
(-1.25538 -0.558046 0)
(-1.24826 -0.417925 0)
(-1.23695 -0.504173 0)
(-1.2316 -1.06865 0)
(-1.23759 -0.0732962 0)
(-1.24811 0.018015 0)
(-1.23707 0.0113334 0)
(-1.23215 0.00442935 0)
(-1.23815 -0.0261289 0)
(-1.24795 0.0191395 0)
(-1.23718 0.0132234 0)
(-1.23223 0.00665441 0)
(-1.23829 0.00301011 0)
(-1.24779 0.0191042 0)
(-1.23728 0.0127923 0)
(-1.23232 0.00679893 0)
(-1.23851 0.00324709 0)
(-1.24763 0.0315215 0)
(-1.23738 0.0245996 0)
(-1.23239 0.00653028 0)
(-1.23871 0.00427142 0)
(-1.24756 0.0228419 0)
(-1.2377 0.022875 0)
(-1.23266 0.00807549 0)
(-1.23891 0.00489561 0)
(-1.24719 0.0112208 0)
(-1.23763 0.011415 0)
(-1.23269 0.00939934 0)
(-1.23914 0.00595104 0)
(-1.24704 0.0208634 0)
(-1.23773 0.014179 0)
(-1.23275 0.00483384 0)
(-1.23936 0.0062772 0)
(-1.24688 0.0211814 0)
(-1.2379 0.0147654 0)
(-1.23282 0.00413786 0)
(-1.23936 0.00680037 0)
(-1.24673 0.0342077 0)
(-1.23801 0.0259431 0)
(-1.23289 0.0100278 0)
(-1.23958 0.007595 0)
(-1.24663 0.0203706 0)
(-1.2383 0.00296087 0)
(-1.23312 0.0109361 0)
(-1.23957 0.0147641 0)
(-1.24675 -0.166588 0)
(-1.23817 -0.178342 0)
(-1.23269 -0.116675 0)
(-1.23959 -0.0737415 0)
(-1.2465 -130.009 0)
(-1.23747 -117.455 0)
(-1.23138 -104.884 0)
(-1.23931 -105.974 0)
(-0.986415 -2543.65 0)
(-0.819433 -2539.22 0)
(-1.04135 -2523.46 0)
(-1.25848 -2500.39 0)
(-1.24848 -0.0265451 0)
(-1.24258 -0.00681221 0)
(-1.26605 -0.0225236 0)
(-1.09509 -0.00513096 0)
(-1.24824 -0.0142953 0)
(-1.24252 0.00797247 0)
(-1.26602 -0.0226055 0)
(-1.26509 -0.0103305 0)
(-1.24799 -0.00673846 0)
(-1.24272 0.00600206 0)
(-1.26635 -0.000204467 0)
(-1.26489 -0.00500108 0)
(-1.24815 -0.0188473 0)
(-1.24241 -0.00846827 0)
(-1.2662 -0.000302721 0)
(-1.26438 0.000406229 0)
(-1.24815 0.000279535 0)
(-1.24241 0.000933696 0)
(-1.26621 -0.000392139 0)
(-1.26469 0.000515298 0)
(-1.24815 0.000293187 0)
(-1.24242 0.00142782 0)
(-1.26621 -0.000422588 0)
(-1.26466 0.000828793 0)
(-1.24816 0.000396 0)
(-1.24243 0.00182013 0)
(-1.26622 -0.000410902 0)
(-1.26441 0.00118507 0)
(-1.24813 0.0023893 0)
(-1.24243 0.00225317 0)
(-1.26622 -0.000359317 0)
(-1.26422 0.00149467 0)
(-1.24811 -0.0014946 0)
(-1.24247 0.00268596 0)
(-1.26623 -0.000291737 0)
(-1.26404 0.00242718 0)
(-1.24809 -0.00367018 0)
(-1.24241 0.00300867 0)
(-1.26623 6.87086e-05 0)
(-1.26371 0.00267442 0)
(-1.24807 0.00471014 0)
(-1.24241 0.00333306 0)
(-1.26623 0.00221538 0)
(-1.26367 -0.00482751 0)
(-1.24821 0.00463674 0)
(-1.24245 0.0144138 0)
(-1.26636 -0.00236463 0)
(-1.26353 -0.00444496 0)
(-1.248 0.00278464 0)
(-1.24253 0.00375468 0)
(-1.26655 -0.00486197 0)
(-1.26297 0.00435902 0)
(-1.24848 0.000622858 0)
(-1.24258 -0.00968941 0)
(-1.26635 0.0025016 0)
(-1.26265 0.0528185 0)
(-1.24854 0.436467 0)
(-1.24249 0.535743 0)
(-1.26551 0.224826 0)
(-1.26252 -0.00167356 0)
(-1.24574 -0.0221073 0)
(-1.24611 -0.0546068 0)
(-1.27531 -0.382529 0)
(-1.26182 -0.106415 0)
(-1.24569 -0.469803 0)
(-1.2485 -0.603643 0)
(-1.26637 -0.612311 0)
(-1.25649 -0.060756 0)
(-1.24588 -0.0186542 0)
(-1.24848 -0.026096 0)
(-1.26626 -0.0164937 0)
(-1.25609 -0.016583 0)
(-1.24609 -0.0195365 0)
(-1.24847 -0.0272098 0)
(-1.26621 -0.0173045 0)
(-1.25587 -0.0104293 0)
(-1.2463 -0.0197773 0)
(-1.24845 -0.0271589 0)
(-1.26598 -0.0175225 0)
(-1.25548 0.000661599 0)
(-1.24651 -0.0198381 0)
(-1.24843 -0.0268366 0)
(-1.26575 -0.0173279 0)
(-1.25508 0.00803779 0)
(-1.24671 -0.0197153 0)
(-1.24841 -0.021377 0)
(-1.2654 -0.0162889 0)
(-1.25459 0.00450428 0)
(-1.24683 -0.0147751 0)
(-1.24837 -0.0208632 0)
(-1.26532 -0.0204345 0)
(-1.25423 -0.00226826 0)
(-1.24708 -0.0190971 0)
(-1.2485 -0.0256474 0)
(-1.26509 -0.0212184 0)
(-1.25378 0.00191163 0)
(-1.24725 -0.023743 0)
(-1.24841 -0.0250775 0)
(-1.26486 -0.0169237 0)
(-1.25339 0.00232779 0)
(-1.24744 -0.0194622 0)
(-1.24839 -0.0245024 0)
(-1.26463 -0.016906 0)
(-1.25301 0.00247921 0)
(-1.24763 -0.019598 0)
(-1.24836 -0.0245011 0)
(-1.26441 -0.016996 0)
(-1.25263 0.00245969 0)
(-1.24782 -0.0188961 0)
(-1.24834 -0.023718 0)
(-1.26418 -0.0162178 0)
(-1.25224 0.0337246 0)
(-1.24801 1.88101 0)
(-1.24832 0.718366 0)
(-1.26345 1.0822 0)
(-1.25187 0.0602691 0)
(-1.25321 1.56199 0)
(-1.26166 0.41455 0)
(-1.27515 0.686591 0)
(-1.26703 0.263859 0)
(-1.25329 -0.380772 0)
(-1.26291 -0.343217 0)
(-1.26596 -0.435351 0)
(-1.26354 0.0430606 0)
(-1.25343 -0.063263 0)
(-1.26257 -0.0231672 0)
(-1.26871 -0.0394537 0)
(-1.26338 -0.193571 0)
(-1.25333 -0.0271439 0)
(-1.26251 -0.0213146 0)
(-1.2688 -0.0332032 0)
(-1.26322 -0.000720864 0)
(-1.25377 -0.0353474 0)
(-1.26267 -0.042554 0)
(-1.26837 -0.0382144 0)
(-1.26255 -0.000572543 0)
(-1.25392 -0.0287916 0)
(-1.26256 -0.0326062 0)
(-1.2681 -0.0246987 0)
(-1.2621 -0.000463029 0)
(-1.25419 -0.0197729 0)
(-1.2626 -0.0320047 0)
(-1.26783 -0.023988 0)
(-1.26164 -0.000641451 0)
(-1.25446 -0.0168972 0)
(-1.26263 -0.0309456 0)
(-1.26758 -0.0266472 0)
(-1.26122 -0.00362505 0)
(-1.25472 -0.0180685 0)
(-1.26276 -0.034624 0)
(-1.26738 -0.0278996 0)
(-1.26077 -0.0040277 0)
(-1.25509 -0.0212255 0)
(-1.26279 -0.0360476 0)
(-1.26707 -0.0259437 0)
(-1.26033 -0.00189161 0)
(-1.25535 -0.0203068 0)
(-1.26284 -0.0329447 0)
(-1.26681 -0.025954 0)
(-1.25989 -0.00180296 0)
(-1.25562 -0.0198371 0)
(-1.26289 -0.0324464 0)
(-1.26655 -0.0179823 0)
(-1.25945 0.00550735 0)
(-1.25589 -0.0189117 0)
(-1.26281 -0.0312497 0)
(-1.26618 -0.0259338 0)
(-1.25906 -0.00498724 0)
(-1.25615 -0.0185318 0)
(-1.26301 -0.0300847 0)
(-1.26611 -0.0325113 0)
(-1.25869 -0.0107432 0)
(-1.2564 0.555768 0)
(-1.26304 0.311798 0)
(-1.26586 -0.0195247 0)
(-1.25828 0.000968577 0)
(-1.2589 0.170848 0)
(-1.27259 -0.0431146 0)
(-1.27129 0.226527 0)
(-1.25789 0.238424 0)
(-1.25651 -0.39691 0)
(-1.26211 -0.412948 0)
(-1.26116 -0.184112 0)
(-1.25628 0.0453682 0)
(-1.25648 -0.0348962 0)
(-1.26905 -0.0816475 0)
(-1.26365 -0.433987 0)
(-1.25641 -0.196783 0)
(-1.25665 -0.0373557 0)
(-1.26877 -0.0530646 0)
(-1.26308 -0.03006 0)
(-1.25601 -0.00731444 0)
(-1.25693 -0.0147014 0)
(-1.26893 -0.0290427 0)
(-1.26289 -0.0290992 0)
(-1.25561 -0.006402 0)
(-1.25719 -0.0184293 0)
(-1.26901 -0.0184592 0)
(-1.2627 -0.0287988 0)
(-1.2552 -0.00640413 0)
(-1.25729 -0.0175115 0)
(-1.2691 -0.0172224 0)
(-1.26269 -0.0274413 0)
(-1.25481 0.0113471 0)
(-1.25755 -0.0177246 0)
(-1.26917 -0.0305276 0)
(-1.26223 -0.0274879 0)
(-1.25422 -0.00355631 0)
(-1.25789 -0.017625 0)
(-1.26926 -0.0212333 0)
(-1.26224 -0.0283444 0)
(-1.25397 -0.0201954 0)
(-1.258 -0.00803546 0)
(-1.26935 -0.0248855 0)
(-1.26221 -0.0271842 0)
(-1.25356 -0.00395177 0)
(-1.2584 -0.00895436 0)
(-1.26958 -0.0344654 0)
(-1.26189 -0.0263842 0)
(-1.25317 -0.00364685 0)
(-1.25869 -0.0028386 0)
(-1.26964 -0.00564411 0)
(-1.2617 -0.00868154 0)
(-1.25277 0.0104693 0)
(-1.25863 0.00987056 0)
(-1.26968 -0.00367947 0)
(-1.26162 -0.0117931 0)
(-1.25245 0.00413996 0)
(-1.25899 -0.101325 0)
(-1.27 -0.0965062 0)
(-1.26157 -0.138765 0)
(-1.25223 -0.185933 0)
(-1.259 -106.018 0)
(-1.2703 -120.192 0)
(-1.26311 -135.835 0)
(-1.25292 -133.075 0)
(-1.49596 -2499.11 0)
(-1.76696 -2520.1 0)
(-1.47628 -2535.47 0)
(-1.15512 -2543.41 0)
(-1.17667 -2518 0)
(-0.900975 -2530.87 0)
(-0.584134 -2544.03 0)
(-0.833583 -2543.39 0)
(-1.25312 -104.304 0)
(-1.25337 -109.042 0)
(-1.24993 -125.402 0)
(-1.24659 -148.969 0)
(-1.25235 -0.108793 0)
(-1.25262 -0.0992079 0)
(-1.24958 -0.0648923 0)
(-1.24848 -0.0789509 0)
(-1.25233 0.00156281 0)
(-1.25264 0.00133978 0)
(-1.2496 -0.000586703 0)
(-1.24848 -0.00042779 0)
(-1.25231 0.00163438 0)
(-1.25265 0.00136202 0)
(-1.24961 -0.000396401 0)
(-1.24849 -0.000306751 0)
(-1.2523 0.00162922 0)
(-1.25267 0.00137255 0)
(-1.24962 -0.000365299 0)
(-1.2485 -0.000256814 0)
(-1.25228 0.0017287 0)
(-1.25269 0.00145058 0)
(-1.24964 -0.000352285 0)
(-1.24852 -0.000308289 0)
(-1.25226 0.00178266 0)
(-1.2527 0.00142606 0)
(-1.24965 -0.000394825 0)
(-1.24853 -0.000333282 0)
(-1.25224 0.0018203 0)
(-1.25272 0.00142349 0)
(-1.24967 -0.000394401 0)
(-1.24854 -0.000368145 0)
(-1.25222 0.00183908 0)
(-1.25274 0.00146281 0)
(-1.24968 -0.000370015 0)
(-1.24856 -0.000437293 0)
(-1.2522 0.00179675 0)
(-1.25276 0.00137901 0)
(-1.2497 -0.000448987 0)
(-1.24858 -0.000558206 0)
(-1.25218 0.0016565 0)
(-1.25278 0.00110526 0)
(-1.24972 -0.000650531 0)
(-1.24859 -0.000621808 0)
(-1.25216 0.00152862 0)
(-1.2528 0.000866588 0)
(-1.24973 -0.000775789 0)
(-1.2486 -0.000675893 0)
(-1.25214 0.00136422 0)
(-1.25282 0.000681307 0)
(-1.24974 -0.000763521 0)
(-1.2486 -0.000585576 0)
(-1.25213 0.00140415 0)
(-1.25283 0.000875881 0)
(-1.24975 -0.000506974 0)
(-1.24861 -0.000494128 0)
(-1.25211 0.00173114 0)
(-1.25285 0.00149936 0)
(-1.24976 -5.51791e-05 0)
(-1.24862 -0.000550071 0)
(-1.25208 0.00198986 0)
(-1.25286 0.00199822 0)
(-1.24978 0.000106626 0)
(-1.24865 -0.00058437 0)
(-1.25206 0.00214179 0)
(-1.25288 0.00221346 0)
(-1.24981 3.49649e-06 0)
(-1.24866 -0.000637442 0)
(-1.25203 0.00213125 0)
(-1.2529 0.00221986 0)
(-1.24983 -0.000150167 0)
(-1.24868 -0.000689906 0)
(-1.252 0.00193983 0)
(-1.25292 0.00197651 0)
(-1.24986 -0.000335441 0)
(-1.2487 -0.00068713 0)
(-1.25198 0.00173207 0)
(-1.25294 0.00177722 0)
(-1.24988 -0.0004251 0)
(-1.24871 -0.000691358 0)
(-1.25196 0.00168703 0)
(-1.25295 0.00176482 0)
(-1.2499 -0.00040364 0)
(-1.24871 -0.000680318 0)
(-1.25193 0.00166281 0)
(-1.25297 0.00172101 0)
(-1.24992 -0.000372318 0)
(-1.24872 -0.00068215 0)
(-1.25191 0.00163468 0)
(-1.25299 0.00169185 0)
(-1.24994 -0.000339822 0)
(-1.24873 -0.000676595 0)
(-1.25189 0.00161731 0)
(-1.253 0.00165008 0)
(-1.24996 -0.00029115 0)
(-1.24874 -0.000703065 0)
(-1.25187 0.00162689 0)
(-1.25302 0.00173475 0)
(-1.24998 -8.84386e-05 0)
(-1.24875 -0.00078262 0)
(-1.25185 0.0018703 0)
(-1.25303 0.00210889 0)
(-1.25 0.000181372 0)
(-1.24877 -0.000899033 0)
(-1.25182 0.00205604 0)
(-1.25305 0.00237403 0)
(-1.25003 0.000308577 0)
(-1.24879 -0.000954799 0)
(-1.2518 0.00193285 0)
(-1.25306 0.00227515 0)
(-1.25005 0.000324804 0)
(-1.24881 -0.000910732 0)
(-1.25177 0.00157463 0)
(-1.25307 0.00173024 0)
(-1.25008 4.14884e-06 0)
(-1.24884 -0.000667751 0)
(-1.25176 0.000727427 0)
(-1.25309 0.000618281 0)
(-1.25009 -0.000388802 0)
(-1.24884 -0.00030647 0)
(-1.25176 -2.74592e-05 0)
(-1.25309 -0.000248018 0)
(-1.25009 -0.000419291 0)
(-1.24884 -7.3712e-05 0)
(-1.25176 -0.000255857 0)
(-1.25309 -0.000414215 0)
(-1.25009 -0.000307588 0)
(-1.24883 -1.55937e-05 0)
(-1.25176 -0.000223347 0)
(-1.25309 -0.000236287 0)
(-1.25009 -0.000101386 0)
(-1.24883 -0.000179323 0)
(-1.25176 0.00014949 0)
(-1.25309 0.00018863 0)
(-1.25009 5.75817e-05 0)
(-1.24884 -0.000456863 0)
(-1.25175 0.000461735 0)
(-1.2531 0.000382372 0)
(-1.2501 3.95933e-05 0)
(-1.24885 -0.000661569 0)
(-1.25175 0.000518276 0)
(-1.2531 0.000228263 0)
(-1.25011 -4.80283e-05 0)
(-1.24885 -0.000574988 0)
(-1.25174 0.000541517 0)
(-1.25311 0.000129993 0)
(-1.25011 -0.000160021 0)
(-1.24886 -0.000458485 0)
(-1.25174 0.000600551 0)
(-1.25311 7.86433e-05 0)
(-1.25012 -0.000242458 0)
(-1.24886 -0.000426418 0)
(-1.25174 0.000658205 0)
(-1.25312 2.60312e-05 0)
(-1.25012 -0.000266615 0)
(-1.24887 -0.000477299 0)
(-1.25174 0.000696469 0)
(-1.25313 -3.73444e-05 0)
(-1.25012 -0.000250296 0)
(-1.24887 -0.000521085 0)
(-1.25174 0.0006112 0)
(-1.25314 -9.07488e-05 0)
(-1.25013 -0.000192434 0)
(-1.24888 -0.000562713 0)
(-1.25174 0.000626716 0)
(-1.25314 -1.1975e-05 0)
(-1.25013 -9.66151e-05 0)
(-1.24888 -0.000549057 0)
(-1.25174 0.000641603 0)
(-1.25315 0.000273813 0)
(-1.25014 0.000106255 0)
(-1.24889 -0.000444519 0)
(-1.25174 0.000508304 0)
(-1.25315 0.00053132 0)
(-1.25014 0.00028199 0)
(-1.24889 -0.000233924 0)
(-1.25174 0.000237555 0)
(-1.25315 0.000695664 0)
(-1.25015 0.00036963 0)
(-1.2489 3.95724e-05 0)
(-1.25172 -6.88144e-05 0)
(-1.25315 0.000763171 0)
(-1.25016 0.000375455 0)
(-1.24891 0.000247778 0)
(-1.25171 -0.000318445 0)
(-1.25314 0.000669051 0)
(-1.25016 0.000302182 0)
(-1.24891 0.000345025 0)
(-1.2517 -0.000394297 0)
(-1.25314 0.000590958 0)
(-1.25016 0.000238362 0)
(-1.24892 0.000342242 0)
(-1.25168 -0.000310822 0)
(-1.25313 0.000573177 0)
(-1.25016 0.000206241 0)
(-1.24892 0.000294253 0)
(-1.25167 -0.000290881 0)
(-1.25313 0.000516544 0)
(-1.25017 0.000207981 0)
(-1.24892 0.00026418 0)
(-1.25166 -0.000245159 0)
(-1.25312 0.000451032 0)
(-1.25017 0.000182901 0)
(-1.24893 0.000237648 0)
(-1.25165 -0.000230324 0)
(-1.25312 0.000398115 0)
(-1.25017 0.000176817 0)
(-1.24893 0.000212755 0)
(-1.25164 -0.000201009 0)
(-1.25312 0.000344507 0)
(-1.25017 0.000158482 0)
(-1.24893 0.000187904 0)
(-1.25164 -0.000174906 0)
(-1.25311 0.000290603 0)
(-1.25017 0.000139644 0)
(-1.24893 0.0001646 0)
(-1.25163 -0.000137678 0)
(-1.25311 0.000236394 0)
(-1.25017 0.000113323 0)
(-1.24893 0.000141718 0)
(-1.25163 -0.000100938 0)
(-1.25311 0.000183071 0)
(-1.25017 8.3899e-05 0)
(-1.24893 0.000118888 0)
(-1.25162 -5.66503e-05 0)
(-1.25311 0.000127838 0)
(-1.25017 4.78861e-05 0)
(-1.24893 0.000101527 0)
(-1.25162 -1.5173e-05 0)
(-1.25311 7.84755e-05 0)
(-1.25017 1.44748e-05 0)
(-1.24894 8.54698e-05 0)
(-1.25162 3.0238e-06 0)
(-1.25311 2.93264e-05 0)
(-1.25017 6.87376e-07 0)
(-1.24893 3.89927e-05 0)
(-1.58751 -2543.32 0)
(-1.87628 -2528.32 0)
(-1.65168 -2512.12 0)
(-1.38916 -2514.87 0)
(-1.24488 -150.296 0)
(-1.24699 -128.643 0)
(-1.25206 -112.607 0)
(-1.25305 -104.502 0)
(-1.24874 -0.178367 0)
(-1.24813 -0.311663 0)
(-1.24932 -0.24718 0)
(-1.25077 -0.146909 0)
(-1.24875 -0.00134979 0)
(-1.24814 -0.00175373 0)
(-1.24932 -0.00161787 0)
(-1.25074 -0.000803747 0)
(-1.24877 -0.00157952 0)
(-1.24814 -0.00169474 0)
(-1.24931 -0.00147562 0)
(-1.25072 -0.000646166 0)
(-1.24878 -0.00176299 0)
(-1.24814 -0.00180453 0)
(-1.2493 -0.0016721 0)
(-1.25069 -0.000779864 0)
(-1.24879 -0.00202209 0)
(-1.24813 -0.00195276 0)
(-1.24929 -0.00165531 0)
(-1.25066 -0.00082212 0)
(-1.24881 -0.00207016 0)
(-1.24813 -0.00198135 0)
(-1.24928 -0.00157871 0)
(-1.25063 -0.000865994 0)
(-1.24882 -0.0021115 0)
(-1.24813 -0.00200197 0)
(-1.24927 -0.00150112 0)
(-1.25061 -0.000930404 0)
(-1.24883 -0.00218196 0)
(-1.24812 -0.00204831 0)
(-1.24926 -0.0014238 0)
(-1.25058 -0.000996503 0)
(-1.24885 -0.00214321 0)
(-1.24811 -0.00193516 0)
(-1.24926 -0.00135503 0)
(-1.25055 -0.00113465 0)
(-1.24886 -0.00186963 0)
(-1.24811 -0.00166787 0)
(-1.24925 -0.00125904 0)
(-1.25053 -0.00127218 0)
(-1.24886 -0.0016823 0)
(-1.2481 -0.00147579 0)
(-1.24925 -0.00122881 0)
(-1.2505 -0.00134237 0)
(-1.24887 -0.00159779 0)
(-1.2481 -0.00154131 0)
(-1.24925 -0.00133211 0)
(-1.25048 -0.00130883 0)
(-1.24888 -0.00172513 0)
(-1.2481 -0.00199785 0)
(-1.24925 -0.00149493 0)
(-1.25046 -0.00119492 0)
(-1.24889 -0.0021952 0)
(-1.2481 -0.00279926 0)
(-1.24924 -0.00163329 0)
(-1.25043 -0.00108285 0)
(-1.24892 -0.00235908 0)
(-1.24809 -0.00337434 0)
(-1.24922 -0.00188334 0)
(-1.2504 -0.00098828 0)
(-1.24894 -0.00225097 0)
(-1.24809 -0.00356286 0)
(-1.2492 -0.00210524 0)
(-1.25037 -0.000929199 0)
(-1.24897 -0.00206289 0)
(-1.24809 -0.00336877 0)
(-1.24917 -0.00220286 0)
(-1.25033 -0.00099725 0)
(-1.24899 -0.0017319 0)
(-1.24809 -0.00310545 0)
(-1.24916 -0.00231707 0)
(-1.2503 -0.00102395 0)
(-1.24901 -0.0015036 0)
(-1.2481 -0.00291992 0)
(-1.24914 -0.00223201 0)
(-1.25026 -0.0010553 0)
(-1.24902 -0.00142429 0)
(-1.2481 -0.00291495 0)
(-1.24913 -0.00220189 0)
(-1.25023 -0.0010889 0)
(-1.24904 -0.00146388 0)
(-1.24811 -0.00298446 0)
(-1.24911 -0.00219018 0)
(-1.2502 -0.00100803 0)
(-1.24906 -0.00141434 0)
(-1.24811 -0.00296185 0)
(-1.24909 -0.00222788 0)
(-1.25017 -0.000947719 0)
(-1.24908 -0.00146714 0)
(-1.24812 -0.00301505 0)
(-1.24907 -0.00225022 0)
(-1.25013 -0.000859874 0)
(-1.2491 -0.00178794 0)
(-1.24813 -0.003366 0)
(-1.24906 -0.00242756 0)
(-1.2501 -0.000817323 0)
(-1.24912 -0.00221866 0)
(-1.24813 -0.00379335 0)
(-1.24903 -0.00253365 0)
(-1.25006 -0.000711346 0)
(-1.24915 -0.00234476 0)
(-1.24813 -0.00388807 0)
(-1.24901 -0.00252814 0)
(-1.25003 -0.000615694 0)
(-1.24917 -0.00225964 0)
(-1.24814 -0.00368137 0)
(-1.24898 -0.00239618 0)
(-1.24999 -0.000550873 0)
(-1.24919 -0.00144052 0)
(-1.24813 -0.00285934 0)
(-1.24895 -0.00200424 0)
(-1.24996 -0.000392386 0)
(-1.24921 -0.000438293 0)
(-1.24815 -0.00188086 0)
(-1.24894 -0.00181452 0)
(-1.24993 -0.000338444 0)
(-1.24922 -0.000142231 0)
(-1.24816 -0.0015833 0)
(-1.24893 -0.00190716 0)
(-1.24991 -0.000334506 0)
(-1.24924 -0.000137508 0)
(-1.24818 -0.00151588 0)
(-1.24892 -0.00196311 0)
(-1.2499 -0.000285906 0)
(-1.24924 -0.000488263 0)
(-1.24819 -0.00168498 0)
(-1.24891 -0.00215116 0)
(-1.24988 -0.000316012 0)
(-1.24926 -0.000874108 0)
(-1.2482 -0.00195716 0)
(-1.24889 -0.00228052 0)
(-1.24986 -0.000294256 0)
(-1.24927 -0.00084196 0)
(-1.24821 -0.00182432 0)
(-1.24888 -0.0022304 0)
(-1.24984 -0.000229818 0)
(-1.24928 -0.000689674 0)
(-1.24823 -0.00177265 0)
(-1.24887 -0.00232115 0)
(-1.24982 -0.000208488 0)
(-1.24929 -0.000752998 0)
(-1.24824 -0.00166554 0)
(-1.24885 -0.00235426 0)
(-1.2498 -0.00017867 0)
(-1.2493 -0.000748503 0)
(-1.24825 -0.00159028 0)
(-1.24884 -0.00242612 0)
(-1.24977 -0.000137945 0)
(-1.24931 -0.000724068 0)
(-1.24827 -0.00154489 0)
(-1.24883 -0.00247471 0)
(-1.24975 -9.91235e-05 0)
(-1.24932 -0.000687964 0)
(-1.24828 -0.00148408 0)
(-1.24882 -0.0025402 0)
(-1.24972 -4.79754e-05 0)
(-1.24933 -0.000694057 0)
(-1.2483 -0.00143255 0)
(-1.2488 -0.00256323 0)
(-1.24969 2.73627e-05 0)
(-1.24933 -0.000713962 0)
(-1.24831 -0.00144374 0)
(-1.24879 -0.00254858 0)
(-1.24967 0.000180235 0)
(-1.24934 -0.00075852 0)
(-1.24833 -0.00143988 0)
(-1.24878 -0.00210076 0)
(-1.24964 0.000201794 0)
(-1.24935 -0.000697824 0)
(-1.24834 -0.00132754 0)
(-1.24877 -0.00127314 0)
(-1.24962 1.35243e-06 0)
(-1.24936 -0.000528157 0)
(-1.24834 -0.00111963 0)
(-1.24876 -0.000281601 0)
(-1.24961 -0.000326934 0)
(-1.24937 -0.000337373 0)
(-1.24833 -0.000901285 0)
(-1.24875 0.000588909 0)
(-1.24961 -0.000676354 0)
(-1.24938 -0.000189499 0)
(-1.24832 -0.000722022 0)
(-1.24875 0.00104279 0)
(-1.24962 -0.000973323 0)
(-1.24939 -0.00011542 0)
(-1.24831 -0.000619026 0)
(-1.24876 0.00107908 0)
(-1.24963 -0.00104477 0)
(-1.24939 -0.000126457 0)
(-1.2483 -0.000596749 0)
(-1.24876 0.00097187 0)
(-1.24965 -0.000952833 0)
(-1.2494 -0.000139259 0)
(-1.24829 -0.000560141 0)
(-1.24876 0.000869468 0)
(-1.24966 -0.000856766 0)
(-1.24941 -0.000126932 0)
(-1.24829 -0.000513169 0)
(-1.24876 0.000759558 0)
(-1.24966 -0.000735564 0)
(-1.24941 -0.000105529 0)
(-1.24828 -0.000441049 0)
(-1.24877 0.000653533 0)
(-1.24967 -0.000648443 0)
(-1.24942 -7.30195e-05 0)
(-1.24827 -0.000376768 0)
(-1.24877 0.000534273 0)
(-1.24968 -0.00056466 0)
(-1.24942 -4.89378e-05 0)
(-1.24827 -0.000312737 0)
(-1.24877 0.000437973 0)
(-1.24969 -0.000485927 0)
(-1.24943 -2.72153e-05 0)
(-1.24826 -0.00025252 0)
(-1.24877 0.000336912 0)
(-1.24969 -0.000403104 0)
(-1.24943 -1.37678e-05 0)
(-1.24826 -0.000190969 0)
(-1.24877 0.000250369 0)
(-1.24969 -0.000324046 0)
(-1.24943 2.24543e-06 0)
(-1.24826 -0.00013133 0)
(-1.24877 0.000159679 0)
(-1.2497 -0.000247068 0)
(-1.24943 7.96587e-06 0)
(-1.24826 -8.55746e-05 0)
(-1.24877 9.29912e-05 0)
(-1.2497 -0.000176146 0)
(-1.24943 4.9271e-06 0)
(-1.24826 -3.51842e-05 0)
(-1.24877 2.79092e-05 0)
(-1.2497 -6.87862e-05 0)
)
;

boundaryField
{
    topWall
    {
        type            extrapolatedCalculated;
        value           nonuniform List<vector> 8((-1.25162 3.0238e-06 0) (-1.25311 2.93264e-05 0) (-1.25017 6.87376e-07 0) (-1.24893 3.89927e-05 0) (-1.24943 4.9271e-06 0) (-1.24826 -3.51842e-05 0) (-1.24877 2.79092e-05 0) (-1.2497 -6.87862e-05 0));
    }
    botWall
    {
        type            extrapolatedCalculated;
        value           nonuniform List<vector> 8((-1.21728 -10.2227 0) (-1.40939 -2.44905 0) (-1.2682 -0.320834 0) (-1.25294 -0.0212879 0) (-1.24848 -0.0265451 0) (-1.24258 -0.00681221 0) (-1.26605 -0.0225236 0) (-1.09509 -0.00513096 0));
    }
    inlet
    {
        type            cyclic;
    }
    outlet
    {
        type            cyclic;
    }
    fixWall
    {
        type            empty;
    }
}


// ************************************************************************* //
