/*--------------------------------*- C++ -*----------------------------------*\
  =========                 |
  \\      /  F ield         | OpenFOAM: The Open Source CFD Toolbox
   \\    /   O peration     | Website:  https://openfoam.org
    \\  /    A nd           | Version:  dev
     \\/     M anipulation  |

   OpenFOAM for Windows 20.09 (v1)
   Built by CFD Support, www.cfdsupport.com (based on Symscape).
\*---------------------------------------------------------------------------*/
FoamFile
{
    version     2.0;
    format      ascii;
    class       volVectorField;
    location    "10";
    object      gradp;
}
// * * * * * * * * * * * * * * * * * * * * * * * * * * * * * * * * * * * * * //

dimensions      [1 -2 -2 0 0 0 0];

internalField   nonuniform List<vector> 
960
(
(3.78269 -108.332 0)
(-1.40924 -100.551 0)
(-1.26816 -98.4212 0)
(-1.25293 -98.1214 0)
(3.74199 -108.301 0)
(-1.24436 -100.547 0)
(-1.22773 -98.4202 0)
(-1.24803 -98.121 0)
(3.74208 -98.0569 0)
(-1.24456 -98.0778 0)
(-1.22773 -98.0985 0)
(-1.24783 -98.0992 0)
(3.74244 -98.0884 0)
(-1.24505 -98.079 0)
(-1.22809 -98.111 0)
(-1.24817 -98.0991 0)
(3.74242 -98.1173 0)
(-1.24493 -98.1247 0)
(-1.22807 -98.1118 0)
(-1.24796 -98.099 0)
(3.74202 -98.0838 0)
(-1.24496 -98.1239 0)
(-1.22766 -98.0959 0)
(-1.24797 -98.0976 0)
(3.74201 -98.0742 0)
(-1.24514 -98.1006 0)
(-1.22763 -98.0959 0)
(-1.24803 -98.0994 0)
(3.74199 -98.0776 0)
(-1.24532 -98.1006 0)
(-1.22764 -98.0989 0)
(-1.24803 -98.1009 0)
(3.74197 -98.0696 0)
(-1.24549 -98.0918 0)
(-1.22763 -98.0946 0)
(-1.248 -98.0993 0)
(3.74208 -98.0776 0)
(-1.24574 -98.1007 0)
(-1.22777 -98.095 0)
(-1.24814 -98.0991 0)
(3.74191 -98.0868 0)
(-1.24578 -98.1099 0)
(-1.22761 -98.0868 0)
(-1.24815 -98.0899 0)
(3.742 -98.0609 0)
(-1.24574 -98.1014 0)
(-1.22743 -98.086 0)
(-1.24829 -98.09 0)
(3.74197 -98.0523 0)
(-1.2462 -98.1003 0)
(-1.22742 -98.0779 0)
(-1.2483 -98.0798 0)
(3.74193 -98.0698 0)
(-1.24616 -98.0949 0)
(-1.22709 -98.0777 0)
(-1.24861 -98.0802 0)
(3.74118 -97.8214 0)
(-1.24633 -97.8922 0)
(-1.22717 -97.8756 0)
(-1.24867 -97.7366 0)
(3.74541 -98.1214 0)
(-1.24706 -98.0965 0)
(-1.2245 -98.1976 0)
(-1.24518 -98.3232 0)
(3.74301 -98.3725 0)
(-1.2476 -98.2884 0)
(-1.23095 -98.4189 0)
(-1.24741 -98.6873 0)
(3.74329 -98.0791 0)
(-1.24784 -98.0903 0)
(-1.23115 -98.0961 0)
(-1.24759 -98.1014 0)
(3.74344 -98.0798 0)
(-1.24788 -98.0956 0)
(-1.23114 -98.096 0)
(-1.24778 -98.1017 0)
(3.74353 -98.0692 0)
(-1.24811 -98.088 0)
(-1.23125 -98.0958 0)
(-1.24797 -98.1019 0)
(3.74362 -98.0639 0)
(-1.24833 -98.088 0)
(-1.23137 -98.0956 0)
(-1.24817 -98.1019 0)
(3.74359 -98.0655 0)
(-1.24864 -98.0836 0)
(-1.23148 -98.0951 0)
(-1.24837 -98.1017 0)
(3.74381 -98.0718 0)
(-1.24882 -98.0884 0)
(-1.23167 -98.0927 0)
(-1.24857 -98.0979 0)
(3.74382 -98.0712 0)
(-1.24898 -98.0934 0)
(-1.23164 -98.1008 0)
(-1.24873 -98.1001 0)
(3.7439 -98.0711 0)
(-1.24932 -98.089 0)
(-1.23178 -98.103 0)
(-1.24888 -98.1041 0)
(3.74397 -98.0713 0)
(-1.24952 -98.089 0)
(-1.23189 -98.0948 0)
(-1.24908 -98.1022 0)
(3.74405 -98.0713 0)
(-1.24971 -98.0889 0)
(-1.232 -98.0944 0)
(-1.2493 -98.1023 0)
(3.74412 -98.0714 0)
(-1.2499 -98.0887 0)
(-1.23211 -98.0943 0)
(-1.24952 -98.1024 0)
(3.74369 -97.9094 0)
(-1.25009 -97.5347 0)
(-1.23223 -96.2884 0)
(-1.24973 -97.0857 0)
(3.75256 -98.1125 0)
(-1.22288 -98.0841 0)
(-1.22463 -97.013 0)
(-1.24917 -97.3879 0)
(3.73946 -98.3125 0)
(-1.23176 -98.6397 0)
(-1.22063 -98.821 0)
(-1.2425 -98.4046 0)
(3.74283 -98.1218 0)
(-1.23136 -98.0897 0)
(-1.22071 -98.0969 0)
(-1.24272 -98.1011 0)
(3.74295 -98.0838 0)
(-1.23135 -98.0867 0)
(-1.22082 -98.0982 0)
(-1.24291 -98.0994 0)
(3.74308 -98.0712 0)
(-1.2316 -98.0859 0)
(-1.22093 -98.1045 0)
(-1.24318 -98.1071 0)
(3.7432 -98.0707 0)
(-1.23191 -98.0856 0)
(-1.22117 -98.1014 0)
(-1.24343 -98.1077 0)
(3.74333 -98.0713 0)
(-1.23211 -98.0854 0)
(-1.22129 -98.0946 0)
(-1.24365 -98.1 0)
(3.74346 -98.0741 0)
(-1.23229 -98.0845 0)
(-1.22141 -98.0942 0)
(-1.24386 -98.0997 0)
(3.74365 -98.0743 0)
(-1.23245 -98.0878 0)
(-1.22155 -98.0936 0)
(-1.24403 -98.0974 0)
(3.74373 -98.0729 0)
(-1.23261 -98.0894 0)
(-1.22157 -98.0948 0)
(-1.24427 -98.0986 0)
(3.74385 -98.0731 0)
(-1.23281 -98.087 0)
(-1.2217 -98.0951 0)
(-1.24447 -98.1008 0)
(3.74397 -98.0677 0)
(-1.23298 -98.0808 0)
(-1.2218 -98.0937 0)
(-1.24468 -98.0993 0)
(3.74407 -98.0806 0)
(-1.23324 -98.0815 0)
(-1.22201 -98.0908 0)
(-1.24489 -98.0988 0)
(3.74436 -98.0872 0)
(-1.23315 -98.0888 0)
(-1.22209 -98.0756 0)
(-1.24514 -98.0984 0)
(3.74446 -98.076 0)
(-1.23305 -97.8533 0)
(-1.22217 -98.0787 0)
(-1.24559 -97.6027 0)
(3.74843 -97.7694 0)
(-1.2332 -97.1273 0)
(-1.21792 -97.3836 0)
(-1.23583 -98.1376 0)
(3.7568 -98.1908 0)
(-1.22662 -97.8577 0)
(-1.23901 -98.4154 0)
(-1.25455 -98.6771 0)
(3.75174 -98.4988 0)
(-1.23694 -98.5817 0)
(-1.23157 -99.1251 0)
(-1.23757 -98.1702 0)
(3.7519 -98.0785 0)
(-1.23706 -98.0852 0)
(-1.23215 -98.0927 0)
(-1.23816 -98.1248 0)
(3.75206 -98.0789 0)
(-1.23718 -98.0855 0)
(-1.23223 -98.0927 0)
(-1.23831 -98.0971 0)
(3.75222 -98.0794 0)
(-1.23729 -98.0861 0)
(-1.23234 -98.0929 0)
(-1.23852 -98.0968 0)
(3.75237 -98.0671 0)
(-1.2374 -98.0742 0)
(-1.23241 -98.0931 0)
(-1.23872 -98.0955 0)
(3.75243 -98.0768 0)
(-1.23772 -98.0765 0)
(-1.2327 -98.0913 0)
(-1.23892 -98.0948 0)
(3.75282 -98.0899 0)
(-1.23764 -98.0893 0)
(-1.23272 -98.0902 0)
(-1.23916 -98.0934 0)
(3.75297 -98.0806 0)
(-1.23773 -98.0871 0)
(-1.23276 -98.0953 0)
(-1.23937 -98.0928 0)
(3.75312 -98.0805 0)
(-1.23789 -98.0864 0)
(-1.23281 -98.096 0)
(-1.23936 -98.0926 0)
(3.75328 -98.0674 0)
(-1.23799 -98.0751 0)
(-1.23287 -98.09 0)
(-1.23958 -98.0925 0)
(3.75339 -98.0796 0)
(-1.23826 -98.0965 0)
(-1.2331 -98.0891 0)
(-1.23958 -98.0857 0)
(3.75328 -98.0919 0)
(-1.23815 -98.1063 0)
(-1.23269 -98.0903 0)
(-1.23961 -98.0855 0)
(3.75344 -96.977 0)
(-1.23824 -97.0878 0)
(-1.23275 -97.2007 0)
(-1.23983 -97.1945 0)
(3.75137 -74.6025 0)
(-1.24187 -74.8764 0)
(-1.23447 -75.2933 0)
(-1.23992 -75.551 0)
(-1.24848 -98.1266 0)
(-1.24259 -98.1069 0)
(-1.26605 -98.1226 0)
(3.90476 -98.1052 0)
(-1.24824 -98.1144 0)
(-1.24252 -98.0921 0)
(-1.26602 -98.1226 0)
(3.73491 -98.1104 0)
(-1.248 -98.1068 0)
(-1.24272 -98.0941 0)
(-1.26635 -98.1002 0)
(3.73511 -98.105 0)
(-1.24815 -98.1188 0)
(-1.24241 -98.1085 0)
(-1.2662 -98.1003 0)
(3.73563 -98.0996 0)
(-1.24815 -98.0996 0)
(-1.24241 -98.099 0)
(-1.26621 -98.1003 0)
(3.73531 -98.0995 0)
(-1.24815 -98.0996 0)
(-1.24242 -98.0985 0)
(-1.26621 -98.1003 0)
(3.73534 -98.099 0)
(-1.24817 -98.0995 0)
(-1.24243 -98.0981 0)
(-1.26621 -98.1003 0)
(3.73559 -98.0986 0)
(-1.24813 -98.0976 0)
(-1.24243 -98.0977 0)
(-1.26622 -98.1002 0)
(3.73578 -98.0983 0)
(-1.24811 -98.1015 0)
(-1.24247 -98.0972 0)
(-1.26622 -98.1001 0)
(3.73596 -98.0973 0)
(-1.24809 -98.1037 0)
(-1.24241 -98.0969 0)
(-1.26622 -98.0998 0)
(3.73629 -98.0972 0)
(-1.24808 -98.0953 0)
(-1.24241 -98.0966 0)
(-1.26623 -98.0977 0)
(3.73634 -98.1048 0)
(-1.24821 -98.0953 0)
(-1.24245 -98.0854 0)
(-1.26636 -98.1023 0)
(3.73647 -98.1046 0)
(-1.248 -98.0971 0)
(-1.24252 -98.0962 0)
(-1.26655 -98.1052 0)
(3.73702 -98.096 0)
(-1.24848 -98.0997 0)
(-1.24258 -98.1105 0)
(-1.26635 -98.1025 0)
(3.73735 -98.048 0)
(-1.2485 -97.6699 0)
(-1.24257 -97.5722 0)
(-1.26551 -97.8833 0)
(3.73757 -98.1009 0)
(-1.24574 -98.122 0)
(-1.24614 -98.1541 0)
(-1.27517 -98.4779 0)
(3.73838 -98.2058 0)
(-1.24569 -98.5635 0)
(-1.2485 -98.6956 0)
(-1.26637 -98.7041 0)
(3.74351 -98.1613 0)
(-1.24588 -98.1183 0)
(-1.24848 -98.1258 0)
(-1.26626 -98.1161 0)
(3.74391 -98.1162 0)
(-1.24609 -98.1193 0)
(-1.24846 -98.1269 0)
(-1.26621 -98.1169 0)
(3.74413 -98.11 0)
(-1.2463 -98.1194 0)
(-1.24844 -98.1267 0)
(-1.26598 -98.117 0)
(3.74453 -98.0988 0)
(-1.24651 -98.1194 0)
(-1.24842 -98.1263 0)
(-1.26575 -98.1168 0)
(3.74493 -98.0915 0)
(-1.24671 -98.1192 0)
(-1.2484 -98.121 0)
(-1.2654 -98.116 0)
(3.74541 -98.0953 0)
(-1.24683 -98.1144 0)
(-1.24837 -98.1207 0)
(-1.26532 -98.1204 0)
(3.74577 -98.1024 0)
(-1.24709 -98.119 0)
(-1.2485 -98.1257 0)
(-1.2651 -98.1215 0)
(3.74622 -98.0984 0)
(-1.24725 -98.124 0)
(-1.24841 -98.1255 0)
(-1.26486 -98.1174 0)
(3.74661 -98.0981 0)
(-1.24744 -98.12 0)
(-1.24839 -98.1252 0)
(-1.26464 -98.1175 0)
(3.74699 -98.098 0)
(-1.24764 -98.1204 0)
(-1.24837 -98.1252 0)
(-1.26441 -98.1175 0)
(3.74738 -98.0979 0)
(-1.24782 -98.1202 0)
(-1.24834 -98.1252 0)
(-1.26418 -98.1177 0)
(3.74776 -98.0672 0)
(-1.24802 -96.2678 0)
(-1.24833 -97.4016 0)
(-1.26344 -97.0469 0)
(3.74815 -98.0412 0)
(-1.25309 -96.5793 0)
(-1.26133 -97.6971 0)
(-1.27484 -97.432 0)
(3.73339 -97.8304 0)
(-1.25317 -98.4335 0)
(-1.26254 -98.424 0)
(-1.26566 -98.5067 0)
(3.7368 -98.0558 0)
(-1.25341 -98.1213 0)
(-1.26255 -98.1105 0)
(-1.26871 -98.1199 0)
(3.73662 -98.299 0)
(-1.25333 -98.126 0)
(-1.26251 -98.121 0)
(-1.26881 -98.1335 0)
(3.73677 -98.1013 0)
(-1.25377 -98.1358 0)
(-1.26267 -98.1432 0)
(-1.26838 -98.1389 0)
(3.73745 -98.1013 0)
(-1.25393 -98.1293 0)
(-1.26257 -98.1332 0)
(-1.26811 -98.1252 0)
(3.7379 -98.1009 0)
(-1.2542 -98.1202 0)
(-1.2626 -98.1324 0)
(-1.26784 -98.1243 0)
(3.73836 -98.1009 0)
(-1.25447 -98.1172 0)
(-1.26263 -98.1312 0)
(-1.26758 -98.1267 0)
(3.73878 -98.1036 0)
(-1.25472 -98.1182 0)
(-1.26276 -98.1346 0)
(-1.26738 -98.1276 0)
(3.73923 -98.1037 0)
(-1.25509 -98.1211 0)
(-1.26279 -98.1358 0)
(-1.26707 -98.1255 0)
(3.73967 -98.1014 0)
(-1.25534 -98.1199 0)
(-1.26283 -98.1324 0)
(-1.26681 -98.1253 0)
(3.74011 -98.1012 0)
(-1.25561 -98.1191 0)
(-1.26288 -98.1317 0)
(-1.26655 -98.1173 0)
(3.74054 -98.0939 0)
(-1.25588 -98.1182 0)
(-1.2628 -98.1308 0)
(-1.26618 -98.126 0)
(3.74094 -98.1052 0)
(-1.25615 -98.1177 0)
(-1.26301 -98.1302 0)
(-1.26612 -98.1341 0)
(3.7413 -98.1126 0)
(-1.25641 -97.5204 0)
(-1.26308 -97.7745 0)
(-1.26588 -98.1257 0)
(3.74172 -98.0973 0)
(-1.25901 -97.9213 0)
(-1.2731 -98.1437 0)
(-1.2715 -97.888 0)
(3.74213 -97.8676 0)
(-1.25651 -98.5198 0)
(-1.26252 -98.5263 0)
(-1.26128 -98.2782 0)
(3.7437 -98.0565 0)
(-1.2565 -98.1414 0)
(-1.26907 -98.1796 0)
(-1.26367 -98.5169 0)
(3.74359 -98.2875 0)
(-1.25667 -98.1366 0)
(-1.26878 -98.1517 0)
(-1.26308 -98.1277 0)
(3.744 -98.1044 0)
(-1.25694 -98.1144 0)
(-1.26892 -98.1281 0)
(-1.26288 -98.1277 0)
(3.74441 -98.1046 0)
(-1.25719 -98.118 0)
(-1.269 -98.1174 0)
(-1.26269 -98.1274 0)
(3.74481 -98.1047 0)
(-1.25729 -98.1174 0)
(-1.26908 -98.1171 0)
(-1.26267 -98.1265 0)
(3.74521 -98.0868 0)
(-1.25755 -98.1172 0)
(-1.26915 -98.1307 0)
(-1.26219 -98.1274 0)
(3.7458 -98.1033 0)
(-1.25789 -98.117 0)
(-1.26925 -98.1205 0)
(-1.26222 -98.1284 0)
(3.74605 -98.1215 0)
(-1.258 -98.1073 0)
(-1.26934 -98.1247 0)
(-1.26221 -98.1279 0)
(3.74644 -98.1053 0)
(-1.25842 -98.1084 0)
(-1.26959 -98.1349 0)
(-1.26189 -98.1277 0)
(3.74684 -98.1054 0)
(-1.2587 -98.1035 0)
(-1.26966 -98.1067 0)
(-1.26171 -98.1101 0)
(3.74723 -98.0912 0)
(-1.25865 -98.0913 0)
(-1.2697 -98.1047 0)
(-1.26163 -98.1125 0)
(3.74755 -98.0963 0)
(-1.25902 -98.1052 0)
(-1.27002 -98.1253 0)
(-1.26157 -98.1296 0)
(3.74778 -98.1093 0)
(-1.25932 -97.2194 0)
(-1.27011 -97.1098 0)
(-1.26137 -96.9733 0)
(3.74818 -96.9736 0)
(-1.2576 -75.5926 0)
(-1.26592 -75.0741 0)
(-1.2593 -74.5874 0)
(3.74771 -74.5594 0)
(3.74815 -32.422 0)
(-1.24975 -32.6244 0)
(-1.244 -33.066 0)
(-1.24482 -33.5304 0)
(3.74763 -10.6619 0)
(-1.25261 -10.6985 0)
(-1.24957 -10.8336 0)
(-1.24845 -11.0334 0)
(3.74766 -9.80875 0)
(-1.25261 -9.8089 0)
(-1.24958 -9.81054 0)
(-1.24848 -9.8106 0)
(3.74767 -9.80813 0)
(-1.25264 -9.8085 0)
(-1.2496 -9.81056 0)
(-1.24848 -9.81042 0)
(3.74769 -9.80836 0)
(-1.25265 -9.80864 0)
(-1.24961 -9.8104 0)
(-1.24849 -9.81031 0)
(3.7477 -9.80837 0)
(-1.25267 -9.80863 0)
(-1.24962 -9.81037 0)
(-1.2485 -9.81026 0)
(3.74772 -9.80827 0)
(-1.25269 -9.80855 0)
(-1.24964 -9.81035 0)
(-1.24852 -9.81031 0)
(3.74774 -9.80822 0)
(-1.2527 -9.80857 0)
(-1.24965 -9.81039 0)
(-1.24853 -9.81033 0)
(3.74776 -9.80818 0)
(-1.25272 -9.80858 0)
(-1.24967 -9.81039 0)
(-1.24854 -9.81037 0)
(3.74778 -9.80816 0)
(-1.25274 -9.80854 0)
(-1.24968 -9.81037 0)
(-1.24856 -9.81044 0)
(3.7478 -9.8082 0)
(-1.25276 -9.80862 0)
(-1.2497 -9.81045 0)
(-1.24858 -9.81056 0)
(3.74782 -9.80834 0)
(-1.25278 -9.80889 0)
(-1.24972 -9.81065 0)
(-1.24859 -9.81062 0)
(3.74784 -9.80847 0)
(-1.2528 -9.80913 0)
(-1.24973 -9.81078 0)
(-1.2486 -9.81068 0)
(3.74786 -9.80864 0)
(-1.25282 -9.80932 0)
(-1.24974 -9.81076 0)
(-1.2486 -9.81059 0)
(3.74787 -9.8086 0)
(-1.25283 -9.80912 0)
(-1.24975 -9.81051 0)
(-1.24861 -9.81049 0)
(3.74789 -9.80827 0)
(-1.25285 -9.8085 0)
(-1.24976 -9.81006 0)
(-1.24862 -9.81055 0)
(3.74792 -9.80801 0)
(-1.25286 -9.808 0)
(-1.24978 -9.80989 0)
(-1.24865 -9.81058 0)
(3.74794 -9.80786 0)
(-1.25288 -9.80779 0)
(-1.24981 -9.81 0)
(-1.24866 -9.81064 0)
(3.74797 -9.80787 0)
(-1.2529 -9.80778 0)
(-1.24983 -9.81015 0)
(-1.24868 -9.81069 0)
(3.748 -9.80806 0)
(-1.25292 -9.80802 0)
(-1.24986 -9.81034 0)
(-1.2487 -9.81069 0)
(3.74802 -9.80827 0)
(-1.25294 -9.80822 0)
(-1.24988 -9.81043 0)
(-1.24871 -9.81069 0)
(3.74804 -9.80831 0)
(-1.25295 -9.80824 0)
(-1.2499 -9.8104 0)
(-1.24871 -9.81068 0)
(3.74807 -9.80834 0)
(-1.25297 -9.80828 0)
(-1.24992 -9.81037 0)
(-1.24872 -9.81068 0)
(3.74809 -9.80837 0)
(-1.25299 -9.80831 0)
(-1.24994 -9.81034 0)
(-1.24873 -9.81068 0)
(3.74811 -9.80838 0)
(-1.253 -9.80835 0)
(-1.24996 -9.81029 0)
(-1.24874 -9.8107 0)
(3.74813 -9.80837 0)
(-1.25302 -9.80827 0)
(-1.24998 -9.81009 0)
(-1.24875 -9.81078 0)
(3.74815 -9.80813 0)
(-1.25303 -9.80789 0)
(-1.25 -9.80982 0)
(-1.24877 -9.8109 0)
(3.74818 -9.80794 0)
(-1.25305 -9.80763 0)
(-1.25003 -9.80969 0)
(-1.24879 -9.81095 0)
(3.7482 -9.80807 0)
(-1.25306 -9.80772 0)
(-1.25005 -9.80968 0)
(-1.24881 -9.81091 0)
(3.74823 -9.80843 0)
(-1.25307 -9.80827 0)
(-1.25008 -9.81 0)
(-1.24884 -9.81067 0)
(3.74824 -9.80927 0)
(-1.25309 -9.80938 0)
(-1.25009 -9.81039 0)
(-1.24884 -9.81031 0)
(3.74824 -9.81003 0)
(-1.25309 -9.81025 0)
(-1.25009 -9.81042 0)
(-1.24884 -9.81007 0)
(3.74824 -9.81026 0)
(-1.25309 -9.81041 0)
(-1.25009 -9.81031 0)
(-1.24883 -9.81002 0)
(3.74824 -9.81022 0)
(-1.25309 -9.81024 0)
(-1.25009 -9.8101 0)
(-1.24883 -9.81018 0)
(3.74824 -9.80985 0)
(-1.25309 -9.80981 0)
(-1.25009 -9.80994 0)
(-1.24884 -9.81046 0)
(3.74825 -9.80954 0)
(-1.2531 -9.80962 0)
(-1.2501 -9.80996 0)
(-1.24885 -9.81066 0)
(3.74825 -9.80948 0)
(-1.2531 -9.80977 0)
(-1.25011 -9.81005 0)
(-1.24885 -9.81057 0)
(3.74826 -9.80946 0)
(-1.25311 -9.80987 0)
(-1.25011 -9.81016 0)
(-1.24886 -9.81046 0)
(3.74826 -9.8094 0)
(-1.25311 -9.80992 0)
(-1.25012 -9.81024 0)
(-1.24886 -9.81043 0)
(3.74826 -9.80934 0)
(-1.25312 -9.80997 0)
(-1.25012 -9.81027 0)
(-1.24887 -9.81048 0)
(3.74826 -9.8093 0)
(-1.25313 -9.81004 0)
(-1.25012 -9.81025 0)
(-1.24887 -9.81052 0)
(3.74826 -9.80939 0)
(-1.25314 -9.81009 0)
(-1.25013 -9.81019 0)
(-1.24888 -9.81056 0)
(3.74826 -9.80937 0)
(-1.25314 -9.81001 0)
(-1.25013 -9.8101 0)
(-1.24888 -9.81055 0)
(3.74826 -9.80936 0)
(-1.25315 -9.80973 0)
(-1.25014 -9.80989 0)
(-1.24889 -9.81044 0)
(3.74826 -9.80949 0)
(-1.25315 -9.80947 0)
(-1.25014 -9.80972 0)
(-1.24889 -9.81023 0)
(3.74826 -9.80976 0)
(-1.25315 -9.8093 0)
(-1.25015 -9.80963 0)
(-1.2489 -9.80996 0)
(3.74828 -9.81007 0)
(-1.25315 -9.80924 0)
(-1.25016 -9.80962 0)
(-1.24891 -9.80975 0)
(3.74829 -9.81032 0)
(-1.25314 -9.80933 0)
(-1.25016 -9.8097 0)
(-1.24891 -9.80965 0)
(3.7483 -9.81039 0)
(-1.25314 -9.80941 0)
(-1.25016 -9.80976 0)
(-1.24892 -9.80966 0)
(3.74832 -9.81031 0)
(-1.25313 -9.80943 0)
(-1.25016 -9.80979 0)
(-1.24892 -9.80971 0)
(3.74833 -9.81029 0)
(-1.25313 -9.80948 0)
(-1.25017 -9.80979 0)
(-1.24892 -9.80974 0)
(3.74834 -9.81025 0)
(-1.25312 -9.80955 0)
(-1.25017 -9.80982 0)
(-1.24893 -9.80976 0)
(3.74835 -9.81023 0)
(-1.25312 -9.8096 0)
(-1.25017 -9.80982 0)
(-1.24893 -9.80979 0)
(3.74836 -9.8102 0)
(-1.25312 -9.80966 0)
(-1.25017 -9.80984 0)
(-1.24893 -9.80981 0)
(3.74836 -9.81017 0)
(-1.25311 -9.80971 0)
(-1.25017 -9.80986 0)
(-1.24893 -9.80984 0)
(3.74837 -9.81014 0)
(-1.25311 -9.80976 0)
(-1.25017 -9.80989 0)
(-1.24893 -9.80986 0)
(3.74837 -9.8101 0)
(-1.25311 -9.80982 0)
(-1.25017 -9.80992 0)
(-1.24893 -9.80988 0)
(3.74838 -9.81006 0)
(-1.25311 -9.80987 0)
(-1.25017 -9.80995 0)
(-1.24893 -9.8099 0)
(3.74838 -9.81002 0)
(-1.25311 -9.80992 0)
(-1.25017 -9.80999 0)
(-1.24894 -9.80991 0)
(3.74838 -9.81 0)
(-1.25311 -9.80997 0)
(-1.25017 -9.81 0)
(-1.24893 -9.80996 0)
(-1.25137 -33.5774 0)
(-1.25336 -32.9964 0)
(-1.25279 -32.5103 0)
(3.74793 -32.3996 0)
(-1.2487 -11.0535 0)
(-1.24813 -10.8766 0)
(-1.24936 -10.7404 0)
(3.74919 -10.6687 0)
(-1.24875 -9.81259 0)
(-1.24814 -9.8137 0)
(-1.24932 -9.81306 0)
(3.74923 -9.81139 0)
(-1.24875 -9.81125 0)
(-1.24814 -9.81119 0)
(-1.24932 -9.81097 0)
(3.74926 -9.8103 0)
(-1.24877 -9.81158 0)
(-1.24814 -9.81169 0)
(-1.24931 -9.81147 0)
(3.74928 -9.81064 0)
(-1.24878 -9.81176 0)
(-1.24814 -9.8118 0)
(-1.2493 -9.81167 0)
(3.74931 -9.81078 0)
(-1.24879 -9.81202 0)
(-1.24813 -9.81195 0)
(-1.24929 -9.81166 0)
(3.74934 -9.81082 0)
(-1.24881 -9.81207 0)
(-1.24813 -9.81198 0)
(-1.24928 -9.81158 0)
(3.74937 -9.81087 0)
(-1.24882 -9.81211 0)
(-1.24813 -9.812 0)
(-1.24927 -9.8115 0)
(3.74939 -9.81093 0)
(-1.24883 -9.81218 0)
(-1.24812 -9.81205 0)
(-1.24926 -9.81142 0)
(3.74942 -9.811 0)
(-1.24885 -9.81214 0)
(-1.24811 -9.81194 0)
(-1.24926 -9.81136 0)
(3.74945 -9.81113 0)
(-1.24886 -9.81187 0)
(-1.24811 -9.81167 0)
(-1.24925 -9.81126 0)
(3.74947 -9.81127 0)
(-1.24886 -9.81168 0)
(-1.2481 -9.81148 0)
(-1.24925 -9.81123 0)
(3.7495 -9.81134 0)
(-1.24887 -9.8116 0)
(-1.2481 -9.81154 0)
(-1.24925 -9.81133 0)
(3.74952 -9.81131 0)
(-1.24888 -9.81173 0)
(-1.2481 -9.812 0)
(-1.24925 -9.81149 0)
(3.74954 -9.81119 0)
(-1.24889 -9.8122 0)
(-1.2481 -9.8128 0)
(-1.24924 -9.81163 0)
(3.74957 -9.81108 0)
(-1.24892 -9.81236 0)
(-1.24809 -9.81337 0)
(-1.24922 -9.81188 0)
(3.7496 -9.81099 0)
(-1.24894 -9.81225 0)
(-1.24809 -9.81356 0)
(-1.2492 -9.81211 0)
(3.74963 -9.81093 0)
(-1.24897 -9.81206 0)
(-1.24809 -9.81337 0)
(-1.24917 -9.8122 0)
(3.74967 -9.811 0)
(-1.24899 -9.81173 0)
(-1.24809 -9.81311 0)
(-1.24916 -9.81232 0)
(3.7497 -9.81102 0)
(-1.24901 -9.8115 0)
(-1.2481 -9.81292 0)
(-1.24914 -9.81223 0)
(3.74974 -9.81106 0)
(-1.24902 -9.81142 0)
(-1.2481 -9.81291 0)
(-1.24913 -9.8122 0)
(3.74977 -9.81109 0)
(-1.24904 -9.81146 0)
(-1.24811 -9.81298 0)
(-1.24911 -9.81219 0)
(3.7498 -9.81101 0)
(-1.24906 -9.81141 0)
(-1.24811 -9.81296 0)
(-1.24909 -9.81223 0)
(3.74983 -9.81095 0)
(-1.24908 -9.81147 0)
(-1.24812 -9.81302 0)
(-1.24907 -9.81225 0)
(3.74987 -9.81086 0)
(-1.2491 -9.81179 0)
(-1.24813 -9.81337 0)
(-1.24906 -9.81243 0)
(3.7499 -9.81082 0)
(-1.24912 -9.81222 0)
(-1.24813 -9.81379 0)
(-1.24903 -9.81253 0)
(3.74994 -9.81071 0)
(-1.24915 -9.81234 0)
(-1.24813 -9.81389 0)
(-1.24901 -9.81253 0)
(3.74997 -9.81062 0)
(-1.24917 -9.81226 0)
(-1.24814 -9.81368 0)
(-1.24898 -9.8124 0)
(3.75001 -9.81055 0)
(-1.24919 -9.81144 0)
(-1.24813 -9.81286 0)
(-1.24895 -9.812 0)
(3.75004 -9.81039 0)
(-1.24921 -9.81044 0)
(-1.24815 -9.81188 0)
(-1.24894 -9.81181 0)
(3.75007 -9.81034 0)
(-1.24922 -9.81014 0)
(-1.24816 -9.81158 0)
(-1.24893 -9.81191 0)
(3.75009 -9.81033 0)
(-1.24924 -9.81014 0)
(-1.24818 -9.81152 0)
(-1.24892 -9.81196 0)
(3.7501 -9.81029 0)
(-1.24924 -9.81049 0)
(-1.24819 -9.81168 0)
(-1.24891 -9.81215 0)
(3.75012 -9.81032 0)
(-1.24926 -9.81087 0)
(-1.2482 -9.81196 0)
(-1.24889 -9.81228 0)
(3.75014 -9.81029 0)
(-1.24927 -9.81084 0)
(-1.24821 -9.81182 0)
(-1.24888 -9.81223 0)
(3.75016 -9.81023 0)
(-1.24928 -9.81069 0)
(-1.24823 -9.81177 0)
(-1.24887 -9.81232 0)
(3.75018 -9.81021 0)
(-1.24929 -9.81075 0)
(-1.24824 -9.81167 0)
(-1.24885 -9.81235 0)
(3.7502 -9.81018 0)
(-1.2493 -9.81075 0)
(-1.24825 -9.81159 0)
(-1.24884 -9.81243 0)
(3.75023 -9.81014 0)
(-1.24931 -9.81072 0)
(-1.24827 -9.81154 0)
(-1.24883 -9.81247 0)
(3.75025 -9.8101 0)
(-1.24932 -9.81069 0)
(-1.24828 -9.81148 0)
(-1.24882 -9.81254 0)
(3.75028 -9.81005 0)
(-1.24933 -9.81069 0)
(-1.2483 -9.81143 0)
(-1.2488 -9.81256 0)
(3.75031 -9.80997 0)
(-1.24933 -9.81071 0)
(-1.24831 -9.81144 0)
(-1.24879 -9.81255 0)
(3.75033 -9.80982 0)
(-1.24934 -9.81076 0)
(-1.24833 -9.81144 0)
(-1.24878 -9.8121 0)
(3.75036 -9.8098 0)
(-1.24935 -9.8107 0)
(-1.24834 -9.81133 0)
(-1.24877 -9.81127 0)
(3.75038 -9.81 0)
(-1.24936 -9.81053 0)
(-1.24834 -9.81112 0)
(-1.24876 -9.81028 0)
(3.75039 -9.81033 0)
(-1.24937 -9.81034 0)
(-1.24833 -9.8109 0)
(-1.24875 -9.80941 0)
(3.75039 -9.81068 0)
(-1.24938 -9.81019 0)
(-1.24832 -9.81072 0)
(-1.24875 -9.80896 0)
(3.75038 -9.81097 0)
(-1.24939 -9.81012 0)
(-1.24831 -9.81062 0)
(-1.24876 -9.80892 0)
(3.75037 -9.81104 0)
(-1.24939 -9.81013 0)
(-1.2483 -9.8106 0)
(-1.24876 -9.80903 0)
(3.75035 -9.81095 0)
(-1.2494 -9.81014 0)
(-1.24829 -9.81056 0)
(-1.24876 -9.80913 0)
(3.75034 -9.81086 0)
(-1.24941 -9.81013 0)
(-1.24829 -9.81051 0)
(-1.24876 -9.80924 0)
(3.75034 -9.81074 0)
(-1.24941 -9.81011 0)
(-1.24828 -9.81044 0)
(-1.24877 -9.80935 0)
(3.75033 -9.81065 0)
(-1.24942 -9.81007 0)
(-1.24827 -9.81038 0)
(-1.24877 -9.80947 0)
(3.75032 -9.81056 0)
(-1.24942 -9.81005 0)
(-1.24827 -9.81031 0)
(-1.24877 -9.80956 0)
(3.75031 -9.81049 0)
(-1.24943 -9.81003 0)
(-1.24826 -9.81025 0)
(-1.24877 -9.80966 0)
(3.75031 -9.8104 0)
(-1.24943 -9.81001 0)
(-1.24826 -9.81019 0)
(-1.24877 -9.80975 0)
(3.75031 -9.81032 0)
(-1.24943 -9.81 0)
(-1.24826 -9.81013 0)
(-1.24877 -9.80984 0)
(3.7503 -9.81025 0)
(-1.24943 -9.80999 0)
(-1.24826 -9.81009 0)
(-1.24877 -9.80991 0)
(3.7503 -9.81018 0)
(-1.24943 -9.81 0)
(-1.24826 -9.81004 0)
(-1.24877 -9.80997 0)
(3.7503 -9.81007 0)
)
;

boundaryField
{
    topWall
    {
        type            extrapolatedCalculated;
        value           nonuniform List<vector> 8((3.74838 -9.81 0) (-1.25311 -9.80997 0) (-1.25017 -9.81 0) (-1.24893 -9.80996 0) (-1.24943 -9.81 0) (-1.24826 -9.81004 0) (-1.24877 -9.80997 0) (3.7503 -9.81007 0));
    }
    botWall
    {
        type            extrapolatedCalculated;
        value           nonuniform List<vector> 8((3.78269 -108.332 0) (-1.40924 -100.551 0) (-1.26816 -98.4212 0) (-1.25293 -98.1214 0) (-1.24848 -98.1266 0) (-1.24259 -98.1069 0) (-1.26605 -98.1226 0) (3.90476 -98.1052 0));
    }
    inlet
    {
        type            cyclic;
    }
    outlet
    {
        type            cyclic;
    }
    fixWall
    {
        type            empty;
    }
}


// ************************************************************************* //
