/*--------------------------------*- C++ -*----------------------------------*\
  =========                 |
  \\      /  F ield         | OpenFOAM: The Open Source CFD Toolbox
   \\    /   O peration     | Website:  https://openfoam.org
    \\  /    A nd           | Version:  dev
     \\/     M anipulation  |

   OpenFOAM for Windows 20.09 (v1)
   Built by CFD Support, www.cfdsupport.com (based on Symscape).
\*---------------------------------------------------------------------------*/
FoamFile
{
    version     2.0;
    format      ascii;
    class       volScalarField;
    location    "10";
    object      k;
}
// * * * * * * * * * * * * * * * * * * * * * * * * * * * * * * * * * * * * * //

dimensions      [0 2 -2 0 0 0 0];

internalField   nonuniform List<scalar> 
960
(
2.22045e-16
2.22045e-16
2.22045e-16
2.22045e-16
2.22045e-16
2.22045e-16
2.22045e-16
2.22045e-16
2.22045e-16
2.22045e-16
2.22045e-16
2.22045e-16
2.22045e-16
2.22045e-16
2.22045e-16
2.22045e-16
2.22045e-16
2.22045e-16
2.22045e-16
2.22045e-16
2.22045e-16
2.22045e-16
2.22045e-16
2.22045e-16
2.22829e-16
2.22045e-16
2.22045e-16
2.22045e-16
3.60646e-16
3.58776e-16
3.56475e-16
3.55347e-16
5.53992e-16
5.51064e-16
5.47465e-16
5.45703e-16
8.13822e-16
8.09484e-16
8.04153e-16
8.01544e-16
1.15244e-15
1.14628e-15
1.1387e-15
1.13499e-15
1.58361e-15
1.57512e-15
1.56469e-15
1.55959e-15
2.12271e-15
2.11133e-15
2.09734e-15
2.0905e-15
2.78697e-15
2.77204e-15
2.75367e-15
2.7447e-15
3.59572e-15
3.57647e-15
3.55278e-15
3.54123e-15
4.57086e-15
4.54642e-15
4.51632e-15
4.50168e-15
5.73679e-15
5.70616e-15
5.66843e-15
5.65011e-15
7.12114e-15
7.08318e-15
7.0364e-15
7.01374e-15
8.75518e-15
8.7086e-15
8.65117e-15
8.62342e-15
1.06742e-14
1.06176e-14
1.05477e-14
1.0514e-14
1.29183e-14
1.28499e-14
1.27655e-14
1.27249e-14
1.55325e-14
1.54505e-14
1.53492e-14
1.53007e-14
1.85681e-14
1.84702e-14
1.83495e-14
1.82918e-14
2.20827e-14
2.19666e-14
2.18235e-14
2.17553e-14
2.61418e-14
2.60049e-14
2.58361e-14
2.57558e-14
3.08197e-14
3.06589e-14
3.04607e-14
3.03665e-14
3.62003e-14
3.60122e-14
3.57804e-14
3.56704e-14
4.23789e-14
4.21596e-14
4.18897e-14
4.17616e-14
4.94636e-14
4.92089e-14
4.88956e-14
4.8747e-14
5.75773e-14
5.72824e-14
5.69198e-14
5.67477e-14
6.68608e-14
6.65202e-14
6.61019e-14
6.5903e-14
7.74724e-14
7.70801e-14
7.65986e-14
7.63693e-14
8.95924e-14
8.91417e-14
8.85888e-14
8.83248e-14
1.03427e-13
1.02911e-13
1.02277e-13
1.01974e-13
1.19213e-13
1.18622e-13
1.17897e-13
1.17549e-13
1.37218e-13
1.36543e-13
1.35715e-13
1.35316e-13
1.5775e-13
1.5698e-13
1.56037e-13
1.55579e-13
1.81162e-13
1.80285e-13
1.7921e-13
1.78686e-13
2.07856e-13
2.06859e-13
2.05636e-13
2.05037e-13
2.38296e-13
2.37164e-13
2.35774e-13
2.35089e-13
2.73015e-13
2.7173e-13
2.70151e-13
2.69369e-13
3.12625e-13
3.11169e-13
3.09376e-13
3.08484e-13
3.57835e-13
3.56187e-13
3.54151e-13
3.53134e-13
4.09462e-13
4.07597e-13
4.05286e-13
4.04128e-13
4.68452e-13
4.66343e-13
4.6372e-13
4.62402e-13
5.35909e-13
5.33525e-13
5.30547e-13
5.2905e-13
6.13123e-13
6.10431e-13
6.07049e-13
6.05349e-13
7.01609e-13
6.9857e-13
6.94728e-13
6.928e-13
8.03151e-13
7.99722e-13
7.95355e-13
7.9317e-13
9.19853e-13
9.15985e-13
9.11019e-13
9.08543e-13
1.05421e-12
1.04985e-12
1.0442e-12
1.04139e-12
1.20921e-12
1.20428e-12
1.19784e-12
1.19467e-12
1.3884e-12
1.38284e-12
1.3755e-12
1.37191e-12
1.5961e-12
1.58982e-12
1.58144e-12
1.57738e-12
1.83755e-12
1.83045e-12
1.82085e-12
1.81627e-12
2.11915e-12
2.11111e-12
2.1001e-12
2.09491e-12
2.44882e-12
2.4397e-12
2.42702e-12
2.42114e-12
2.8364e-12
2.82605e-12
2.8114e-12
2.80472e-12
3.2943e-12
3.28253e-12
3.26551e-12
3.25788e-12
3.83815e-12
3.82476e-12
3.8049e-12
3.79613e-12
2.22045e-16
2.22045e-16
2.22045e-16
2.22045e-16
2.22045e-16
2.22045e-16
2.22045e-16
2.22045e-16
2.22045e-16
2.22045e-16
2.22045e-16
2.22045e-16
2.22045e-16
2.22045e-16
2.22045e-16
2.22045e-16
2.22045e-16
2.22045e-16
2.22045e-16
2.22045e-16
2.22045e-16
2.22045e-16
2.22045e-16
2.22045e-16
2.22045e-16
2.22045e-16
2.22863e-16
2.23265e-16
3.55978e-16
3.586e-16
3.60707e-16
3.61385e-16
5.46691e-16
5.50785e-16
5.54083e-16
5.55147e-16
8.03008e-16
8.09058e-16
8.13942e-16
8.15528e-16
1.13707e-15
1.14565e-15
1.15259e-15
1.15486e-15
1.56245e-15
1.57422e-15
1.58378e-15
1.58694e-15
2.09434e-15
2.11007e-15
2.12289e-15
2.12717e-15
2.74973e-15
2.77031e-15
2.78714e-15
2.79281e-15
3.54772e-15
3.57415e-15
3.59584e-15
3.60325e-15
4.50991e-15
4.54334e-15
4.57088e-15
4.58041e-15
5.66042e-15
5.70214e-15
5.73666e-15
5.74876e-15
7.02651e-15
7.07799e-15
7.12077e-15
7.13598e-15
8.63908e-15
8.70196e-15
8.75446e-15
8.77342e-15
1.0533e-14
1.06092e-14
1.06731e-14
1.06965e-14
1.27478e-14
1.28393e-14
1.29165e-14
1.29452e-14
1.53282e-14
1.54373e-14
1.55299e-14
1.55649e-14
1.83245e-14
1.84539e-14
1.85643e-14
1.86068e-14
2.1794e-14
2.19465e-14
2.20775e-14
2.21289e-14
2.58014e-14
2.59802e-14
2.61349e-14
2.61967e-14
3.042e-14
3.06287e-14
3.08105e-14
3.08845e-14
3.57329e-14
3.59754e-14
3.61884e-14
3.62767e-14
4.18344e-14
4.2115e-14
4.23636e-14
4.24686e-14
4.88313e-14
4.91551e-14
4.94443e-14
4.95688e-14
5.68452e-14
5.72174e-14
5.7553e-14
5.77003e-14
6.60156e-14
6.64422e-14
6.68305e-14
6.70044e-14
7.64989e-14
7.69864e-14
7.74348e-14
7.76396e-14
8.84738e-14
8.90295e-14
8.95462e-14
8.97869e-14
1.02145e-13
1.02777e-13
1.03371e-13
1.03653e-13
1.17745e-13
1.18462e-13
1.19145e-13
1.19475e-13
1.3554e-13
1.36353e-13
1.37136e-13
1.37522e-13
1.55836e-13
1.56755e-13
1.57651e-13
1.58103e-13
1.7898e-13
1.80019e-13
1.81044e-13
1.81571e-13
2.05374e-13
2.06545e-13
2.07716e-13
2.0833e-13
2.35475e-13
2.36795e-13
2.38131e-13
2.38845e-13
2.69812e-13
2.71297e-13
2.7282e-13
2.73652e-13
3.08992e-13
3.10662e-13
3.12398e-13
3.13364e-13
3.53719e-13
3.55594e-13
3.5757e-13
3.58691e-13
4.04801e-13
4.06904e-13
4.09153e-13
4.10455e-13
4.63179e-13
4.65536e-13
4.68095e-13
4.69604e-13
5.29949e-13
5.32587e-13
5.35497e-13
5.37247e-13
6.06391e-13
6.0934e-13
6.12651e-13
6.14678e-13
6.9401e-13
6.97306e-13
7.01072e-13
7.0342e-13
7.94578e-13
7.98258e-13
8.02544e-13
8.05263e-13
9.10187e-13
9.14295e-13
9.19175e-13
9.22322e-13
1.04332e-12
1.0479e-12
1.05346e-12
1.05711e-12
1.19693e-12
1.20205e-12
1.20838e-12
1.2126e-12
1.37457e-12
1.38028e-12
1.38752e-12
1.3924e-12
1.58053e-12
1.5869e-12
1.59517e-12
1.60084e-12
1.81999e-12
1.82711e-12
1.83659e-12
1.84316e-12
2.09934e-12
2.1073e-12
2.11819e-12
2.12582e-12
2.42643e-12
2.43535e-12
2.4479e-12
2.45678e-12
2.81104e-12
2.82106e-12
2.83558e-12
2.84593e-12
3.26548e-12
3.27677e-12
3.29365e-12
3.30576e-12
3.80528e-12
3.81805e-12
3.83778e-12
3.85198e-12
4.4824e-12
4.46725e-12
4.44407e-12
4.43395e-12
5.1089e-12
5.09408e-12
5.07259e-12
5.06704e-12
5.47076e-12
5.45815e-12
5.44297e-12
5.44635e-12
5.54716e-12
5.53717e-12
5.52624e-12
5.53304e-12
5.41924e-12
5.41195e-12
5.40398e-12
5.41101e-12
5.15126e-12
5.14665e-12
5.141e-12
5.14676e-12
4.79211e-12
4.79017e-12
4.78657e-12
4.79063e-12
4.38114e-12
4.38154e-12
4.37942e-12
4.38156e-12
3.95744e-12
3.96008e-12
3.95902e-12
3.95947e-12
3.54546e-12
3.55046e-12
3.55023e-12
3.54935e-12
3.15856e-12
3.16624e-12
3.16674e-12
3.16491e-12
2.80226e-12
2.81358e-12
2.81463e-12
2.81218e-12
2.47757e-12
2.49388e-12
2.49526e-12
2.4925e-12
2.18312e-12
2.2059e-12
2.20753e-12
2.20467e-12
1.91649e-12
1.94733e-12
1.94918e-12
1.94637e-12
1.67499e-12
1.71561e-12
1.7176e-12
1.71488e-12
1.45841e-12
1.50832e-12
1.51035e-12
1.50773e-12
1.26565e-12
1.32316e-12
1.32513e-12
1.32257e-12
1.09529e-12
1.15796e-12
1.15977e-12
1.1572e-12
9.46185e-13
1.01112e-12
1.01273e-12
1.01008e-12
8.16493e-13
8.81142e-13
8.82581e-13
8.7979e-13
7.04188e-13
7.66485e-13
7.67796e-13
7.64823e-13
6.07252e-13
6.65632e-13
6.66883e-13
6.63704e-13
5.23797e-13
5.77131e-13
5.78417e-13
5.75028e-13
4.52086e-13
4.99619e-13
5.01006e-13
4.97459e-13
3.90551e-13
4.31841e-13
4.33366e-13
4.29747e-13
3.37775e-13
3.72652e-13
3.74336e-13
3.70738e-13
2.92471e-13
3.21028e-13
3.22872e-13
3.19381e-13
2.53443e-13
2.76056e-13
2.78046e-13
2.74735e-13
2.19522e-13
2.36934e-13
2.39034e-13
2.35958e-13
1.89663e-13
2.0296e-13
2.05112e-13
2.02307e-13
1.63387e-13
1.73514e-13
1.75646e-13
1.7313e-13
1.40273e-13
1.48042e-13
1.50079e-13
1.47854e-13
1.19955e-13
1.26049e-13
1.27919e-13
1.25978e-13
1.02288e-13
1.07075e-13
1.08735e-13
1.07062e-13
8.6946e-14
9.07079e-14
9.21454e-14
9.07225e-14
7.36409e-14
7.65967e-14
7.78177e-14
7.66235e-14
6.2119e-14
6.44399e-14
6.54615e-14
6.44725e-14
5.21582e-14
5.39785e-14
5.48228e-14
5.40138e-14
4.35638e-14
4.4989e-14
4.56792e-14
4.50251e-14
3.61658e-14
3.72787e-14
3.78372e-14
3.73142e-14
2.98154e-14
3.06812e-14
3.11289e-14
3.0715e-14
2.43824e-14
2.50531e-14
2.54083e-14
2.50841e-14
1.97531e-14
2.02698e-14
2.05486e-14
2.02975e-14
1.58281e-14
1.62235e-14
1.64398e-14
1.62473e-14
1.25204e-14
1.28203e-14
1.29857e-14
1.284e-14
9.75492e-15
9.97966e-15
1.01043e-14
9.99567e-15
7.46531e-15
7.63135e-15
7.72366e-15
7.64395e-15
5.59245e-15
5.71289e-15
5.77987e-15
5.72255e-15
4.0831e-15
4.16848e-15
4.21591e-15
4.17567e-15
2.88893e-15
2.94773e-15
2.98034e-15
2.95292e-15
1.96573e-15
2.00479e-15
2.02639e-15
2.00837e-15
1.27266e-15
1.29746e-15
1.3111e-15
1.29978e-15
7.72022e-16
7.86829e-16
7.94919e-16
7.88221e-16
4.29009e-16
4.37113e-16
4.41519e-16
4.37874e-16
2.22045e-16
2.22045e-16
2.22045e-16
2.22045e-16
2.22045e-16
2.22045e-16
2.22045e-16
2.22045e-16
2.22045e-16
2.22045e-16
2.22045e-16
2.22045e-16
2.22045e-16
2.22045e-16
2.22045e-16
2.22045e-16
2.22045e-16
2.22045e-16
2.22045e-16
2.22045e-16
4.44498e-12
4.45935e-12
4.48241e-12
4.49913e-12
5.08012e-12
5.09002e-12
5.11176e-12
5.12858e-12
5.46054e-12
5.4611e-12
5.47664e-12
5.49062e-12
5.5467e-12
5.54205e-12
5.55403e-12
5.5661e-12
5.42324e-12
5.41627e-12
5.42618e-12
5.4369e-12
5.15704e-12
5.14966e-12
5.1582e-12
5.16778e-12
4.79895e-12
4.79226e-12
4.79957e-12
4.80798e-12
4.38814e-12
4.38271e-12
4.3889e-12
4.39609e-12
3.96459e-12
3.96054e-12
3.96568e-12
3.97158e-12
3.55331e-12
3.55055e-12
3.55476e-12
3.55926e-12
3.16798e-12
3.1663e-12
3.16963e-12
3.17267e-12
2.81451e-12
2.81374e-12
2.81632e-12
2.8178e-12
2.49423e-12
2.49411e-12
2.49603e-12
2.49592e-12
2.20579e-12
2.20628e-12
2.20758e-12
2.20578e-12
1.94695e-12
1.94789e-12
1.94867e-12
1.94511e-12
1.71498e-12
1.71632e-12
1.7167e-12
1.71129e-12
1.50742e-12
1.50912e-12
1.50916e-12
1.50194e-12
1.32186e-12
1.32392e-12
1.32373e-12
1.31479e-12
1.15613e-12
1.15865e-12
1.15829e-12
1.14783e-12
1.00866e-12
1.01169e-12
1.01127e-12
9.99704e-13
8.77937e-13
8.81617e-13
8.81228e-13
8.6899e-13
7.6242e-13
7.66901e-13
7.6663e-13
7.54168e-13
6.60566e-13
6.66055e-13
6.65943e-13
6.53643e-13
5.70888e-13
5.7762e-13
5.77687e-13
5.65877e-13
4.91974e-13
5.00247e-13
5.00483e-13
4.89407e-13
4.22481e-13
4.32691e-13
4.3305e-13
4.2288e-13
3.61722e-13
3.73785e-13
3.74226e-13
3.65059e-13
3.09106e-13
3.22474e-13
3.22959e-13
3.14824e-13
2.63796e-13
2.77815e-13
2.78316e-13
2.71178e-13
2.24895e-13
2.38968e-13
2.39463e-13
2.33234e-13
1.91553e-13
2.05195e-13
2.05671e-13
2.0022e-13
1.62999e-13
1.75854e-13
1.76301e-13
1.71478e-13
1.38555e-13
1.5038e-13
1.50795e-13
1.4644e-13
1.17632e-13
1.28282e-13
1.28663e-13
1.24603e-13
9.97225e-14
1.09131e-13
1.09475e-13
1.06119e-13
8.43893e-14
9.25511e-14
9.28568e-14
9.02535e-14
7.1261e-14
7.82151e-14
7.84828e-14
7.65334e-14
6.00166e-14
6.58356e-14
6.60682e-14
6.4631e-14
5.03833e-14
5.51644e-14
5.53644e-14
5.43103e-14
4.2128e-14
4.59833e-14
4.61537e-14
4.53848e-14
3.50509e-14
3.81028e-14
3.82463e-14
3.76886e-14
2.89813e-14
3.13566e-14
3.14764e-14
3.10742e-14
2.37728e-14
2.56004e-14
2.56991e-14
2.54102e-14
1.93132e-14
2.07079e-14
2.07883e-14
2.05818e-14
1.55151e-14
1.65695e-14
1.66341e-14
1.6487e-14
1.23011e-14
1.30893e-14
1.31405e-14
1.30363e-14
9.60381e-15
1.01854e-14
1.02253e-14
1.0152e-14
7.36316e-15
7.78564e-15
7.8161e-15
7.76502e-15
5.52482e-15
5.8261e-15
5.84881e-15
5.81363e-15
4.03933e-15
4.2494e-15
4.26586e-15
4.24203e-15
2.86135e-15
3.00381e-15
3.01534e-15
2.99956e-15
1.9489e-15
2.04219e-15
2.04993e-15
2.03978e-15
1.26283e-15
1.32122e-15
1.32616e-15
1.31985e-15
7.66602e-16
8.0099e-16
8.03942e-16
8.00207e-16
4.2623e-16
4.44835e-16
4.46452e-16
4.44405e-16
2.22045e-16
2.22045e-16
2.22045e-16
2.22045e-16
2.22045e-16
2.22045e-16
2.22045e-16
2.22045e-16
2.22045e-16
2.22045e-16
2.22045e-16
2.22045e-16
2.22045e-16
2.22045e-16
2.22045e-16
2.22045e-16
2.22045e-16
2.22045e-16
2.22045e-16
2.22045e-16
)
;

boundaryField
{
    topWall
    {
        type            kqRWallFunction;
        value           uniform 2.22045e-16;
    }
    botWall
    {
        type            kqRWallFunction;
        value           uniform 2.22045e-16;
    }
    inlet
    {
        type            cyclic;
    }
    outlet
    {
        type            cyclic;
    }
    fixWall
    {
        type            empty;
    }
}


// ************************************************************************* //
