/*--------------------------------*- C++ -*----------------------------------*\
  =========                 |
  \\      /  F ield         | OpenFOAM: The Open Source CFD Toolbox
   \\    /   O peration     | Website:  https://openfoam.org
    \\  /    A nd           | Version:  dev
     \\/     M anipulation  |

   OpenFOAM for Windows 20.09 (v1)
   Built by CFD Support, www.cfdsupport.com (based on Symscape).
\*---------------------------------------------------------------------------*/
FoamFile
{
    version     2.0;
    format      ascii;
    class       volScalarField;
    location    "10";
    object      nut;
}
// * * * * * * * * * * * * * * * * * * * * * * * * * * * * * * * * * * * * * //

dimensions      [0 2 -1 0 0 0 0];

internalField   nonuniform List<scalar> 
960
(
2.5539e-21
2.5539e-21
2.5539e-21
2.5539e-21
1.4809e-20
1.48091e-20
1.48091e-20
1.48091e-20
4.35166e-20
4.35171e-20
4.3517e-20
4.3517e-20
9.25985e-20
9.26001e-20
9.25998e-20
9.25997e-20
1.64168e-19
1.64172e-19
1.64171e-19
1.6417e-19
2.58152e-19
2.58158e-19
2.58156e-19
2.58154e-19
3.75905e-19
3.74589e-19
3.74586e-19
3.74583e-19
8.33973e-19
8.29663e-19
8.24337e-19
8.21717e-19
1.68356e-18
1.67469e-18
1.66374e-18
1.65835e-18
3.14653e-18
3.12978e-18
3.10915e-18
3.09899e-18
5.52518e-18
5.49562e-18
5.45927e-18
5.44133e-18
9.22047e-18
9.17103e-18
9.11029e-18
9.08024e-18
1.47532e-17
1.4674e-17
1.45768e-17
1.45286e-17
2.27885e-17
2.26662e-17
2.25162e-17
2.24417e-17
3.4165e-17
3.39818e-17
3.37571e-17
3.36454e-17
4.99093e-17
4.96423e-17
4.93149e-17
4.91519e-17
7.12946e-17
7.09143e-17
7.04483e-17
7.0216e-17
9.98878e-17
9.93565e-17
9.87058e-17
9.83812e-17
1.37591e-16
1.3686e-16
1.35967e-16
1.35521e-16
1.86709e-16
1.8572e-16
1.84509e-16
1.83905e-16
2.50029e-16
2.48703e-16
2.47083e-16
2.46276e-16
3.30885e-16
3.2913e-16
3.26987e-16
3.2592e-16
4.33238e-16
4.30939e-16
4.28133e-16
4.26738e-16
5.61742e-16
5.58763e-16
5.55127e-16
5.53323e-16
7.21836e-16
7.18013e-16
7.13349e-16
7.11039e-16
9.19838e-16
9.14976e-16
9.09047e-16
9.06114e-16
1.16303e-15
1.1569e-15
1.14943e-15
1.14574e-15
1.45977e-15
1.4521e-15
1.44276e-15
1.43815e-15
1.8195e-15
1.80999e-15
1.79841e-15
1.79268e-15
2.25287e-15
2.24117e-15
2.22691e-15
2.21985e-15
2.76974e-15
2.75543e-15
2.73799e-15
2.72935e-15
3.38228e-15
3.3649e-15
3.34375e-15
3.33323e-15
4.10475e-15
4.0838e-15
4.05829e-15
4.04558e-15
4.95117e-15
4.92606e-15
4.89552e-15
4.88023e-15
5.93595e-15
5.90605e-15
5.86973e-15
5.85143e-15
7.07353e-15
7.03815e-15
6.99522e-15
6.97346e-15
8.37789e-15
8.33629e-15
8.28587e-15
8.26013e-15
9.862e-15
9.81341e-15
9.75458e-15
9.7243e-15
1.15373e-14
1.14809e-14
1.14127e-14
1.13772e-14
1.34128e-14
1.33478e-14
1.32693e-14
1.32281e-14
1.54951e-14
1.54206e-14
1.53307e-14
1.52831e-14
1.7787e-14
1.77023e-14
1.76001e-14
1.75454e-14
2.02879e-14
2.01922e-14
2.00768e-14
2.00143e-14
2.29931e-14
2.28857e-14
2.2756e-14
2.26853e-14
2.58834e-14
2.57636e-14
2.5619e-14
2.55396e-14
2.88571e-14
2.87252e-14
2.85655e-14
2.84776e-14
3.19284e-14
3.17841e-14
3.16093e-14
3.15129e-14
3.51105e-14
3.49537e-14
3.47636e-14
3.46588e-14
3.83851e-14
3.82161e-14
3.80106e-14
3.78976e-14
4.1735e-14
4.1554e-14
4.13334e-14
4.12126e-14
4.51446e-14
4.4952e-14
4.47167e-14
4.45886e-14
4.86005e-14
4.83971e-14
4.81478e-14
4.80132e-14
5.20927e-14
5.18791e-14
5.16166e-14
5.14764e-14
5.56139e-14
5.53912e-14
5.51164e-14
5.49719e-14
5.91605e-14
5.89295e-14
5.86435e-14
5.8496e-14
6.27314e-14
6.24932e-14
6.21972e-14
6.20484e-14
6.63282e-14
6.60839e-14
6.57791e-14
6.56307e-14
6.99547e-14
6.97051e-14
6.93927e-14
6.92469e-14
7.36157e-14
7.33629e-14
7.30432e-14
7.29018e-14
7.73167e-14
7.7062e-14
7.67358e-14
7.66017e-14
2.5539e-21
2.5539e-21
2.5539e-21
2.5539e-21
1.48091e-20
1.48091e-20
1.48091e-20
1.48091e-20
4.35169e-20
4.3517e-20
4.3517e-20
4.35171e-20
9.25996e-20
9.26001e-20
9.26e-20
9.26002e-20
1.6417e-19
1.64172e-19
1.64172e-19
1.64172e-19
2.58154e-19
2.58159e-19
2.58158e-19
2.58158e-19
3.74582e-19
3.74593e-19
3.75972e-19
3.7665e-19
8.23174e-19
8.29273e-19
8.34137e-19
8.35702e-19
1.66135e-18
1.67389e-18
1.68388e-18
1.68711e-18
3.10464e-18
3.12826e-18
3.14708e-18
3.15317e-18
5.45129e-18
5.49292e-18
5.52604e-18
5.53683e-18
9.0969e-18
9.16646e-18
9.22172e-18
9.23987e-18
1.45553e-17
1.46666e-17
1.47549e-17
1.47841e-17
2.24829e-17
2.26546e-17
2.27906e-17
2.28361e-17
3.37074e-17
3.39642e-17
3.41675e-17
3.42363e-17
4.92423e-17
4.96162e-17
4.99119e-17
5.0013e-17
7.03448e-17
7.08766e-17
7.12966e-17
7.1442e-17
9.85612e-17
9.9303e-17
9.98884e-17
1.00093e-16
1.35768e-16
1.36786e-16
1.37589e-16
1.37873e-16
1.84241e-16
1.85617e-16
1.86703e-16
1.87093e-16
2.46726e-16
2.48564e-16
2.50016e-16
2.50544e-16
3.26516e-16
3.28942e-16
3.30862e-16
3.3157e-16
4.2752e-16
4.30687e-16
4.33201e-16
4.3414e-16
5.54337e-16
5.58427e-16
5.61683e-16
5.62919e-16
7.1234e-16
7.17566e-16
7.21747e-16
7.23358e-16
9.0777e-16
9.14384e-16
9.19704e-16
9.2179e-16
1.14783e-15
1.15612e-15
1.16284e-15
1.16552e-15
1.44076e-15
1.45106e-15
1.45948e-15
1.4629e-15
1.79592e-15
1.80862e-15
1.8191e-15
1.82344e-15
2.22383e-15
2.23936e-15
2.25231e-15
2.25778e-15
2.73421e-15
2.75304e-15
2.76893e-15
2.77578e-15
3.3391e-15
3.36176e-15
3.38114e-15
3.38965e-15
4.05261e-15
4.07968e-15
4.10316e-15
4.11368e-15
4.88861e-15
4.92069e-15
4.94895e-15
4.9619e-15
5.86133e-15
5.89907e-15
5.9329e-15
5.94875e-15
6.98507e-15
7.02913e-15
7.06935e-15
7.08867e-15
8.27365e-15
8.32471e-15
8.37224e-15
8.39564e-15
9.73992e-15
9.79864e-15
9.85445e-15
9.88262e-15
1.13952e-14
1.14622e-14
1.15273e-14
1.1561e-14
1.32485e-14
1.33243e-14
1.33999e-14
1.34398e-14
1.53063e-14
1.53914e-14
1.54784e-14
1.55255e-14
1.75714e-14
1.76663e-14
1.77659e-14
1.78209e-14
2.00434e-14
2.01483e-14
2.02614e-14
2.03254e-14
2.27177e-14
2.28328e-14
2.29603e-14
2.30342e-14
2.55753e-14
2.57006e-14
2.58432e-14
2.59278e-14
2.85167e-14
2.86512e-14
2.8809e-14
2.89046e-14
3.15555e-14
3.16985e-14
3.18713e-14
3.19786e-14
3.47052e-14
3.48561e-14
3.5044e-14
3.51634e-14
3.79481e-14
3.81063e-14
3.83092e-14
3.84409e-14
4.12676e-14
4.14322e-14
4.16497e-14
4.17941e-14
4.46487e-14
4.4819e-14
4.50503e-14
4.52072e-14
4.80788e-14
4.82537e-14
4.84986e-14
4.86674e-14
5.15484e-14
5.1727e-14
5.19846e-14
5.21646e-14
5.50511e-14
5.52324e-14
5.55016e-14
5.5692e-14
5.85833e-14
5.87663e-14
5.9046e-14
5.92466e-14
6.21448e-14
6.23283e-14
6.26176e-14
6.28272e-14
6.57373e-14
6.59203e-14
6.6218e-14
6.64357e-14
6.93647e-14
6.95458e-14
6.98511e-14
7.00757e-14
7.30319e-14
7.321e-14
7.35217e-14
7.37523e-14
7.67439e-14
7.69177e-14
7.72351e-14
7.74706e-14
8.0714e-14
8.04619e-14
8.0136e-14
8.00139e-14
8.12157e-14
8.1187e-14
8.13455e-14
8.18929e-14
8.44063e-14
8.41857e-14
8.39191e-14
8.38821e-14
8.39831e-14
8.37769e-14
8.3525e-14
8.34933e-14
8.26831e-14
8.2497e-14
8.22584e-14
8.22223e-14
8.07853e-14
8.06249e-14
8.04014e-14
8.03587e-14
7.82461e-14
7.81195e-14
7.79162e-14
7.78678e-14
7.17692e-14
7.17816e-14
7.17963e-14
7.18727e-14
6.31251e-14
6.31481e-14
6.31634e-14
6.32399e-14
5.60416e-14
5.60898e-14
5.60862e-14
5.61558e-14
5.07609e-14
5.08513e-14
5.08499e-14
5.0918e-14
4.72119e-14
4.73643e-14
4.73648e-14
4.74319e-14
4.5029e-14
4.53171e-14
4.5351e-14
4.53536e-14
4.3823e-14
4.42742e-14
4.43142e-14
4.43236e-14
4.30639e-14
4.3811e-14
4.38427e-14
4.37963e-14
4.25228e-14
4.36342e-14
4.36374e-14
4.35728e-14
4.20033e-14
4.3607e-14
4.35869e-14
4.34622e-14
4.1555e-14
4.37217e-14
4.36343e-14
4.33947e-14
3.84942e-14
4.06714e-14
4.06572e-14
4.05195e-14
3.48192e-14
3.7189e-14
3.71815e-14
3.70392e-14
3.12446e-14
3.37022e-14
3.37008e-14
3.35534e-14
2.78065e-14
3.02524e-14
3.02572e-14
3.01044e-14
2.45375e-14
2.6884e-14
2.6896e-14
2.6738e-14
2.14693e-14
2.36442e-14
2.36654e-14
2.35024e-14
1.864e-14
2.05899e-14
2.06217e-14
2.04559e-14
1.60601e-14
1.77492e-14
1.77917e-14
1.76274e-14
1.37335e-14
1.5144e-14
1.51966e-14
1.50383e-14
1.16573e-14
1.2789e-14
1.28502e-14
1.2702e-14
9.82015e-15
1.06909e-14
1.07586e-14
1.06235e-14
8.20237e-15
8.84843e-15
8.91984e-15
8.79981e-15
6.76288e-15
7.23373e-15
7.30495e-15
7.20115e-15
5.51329e-15
5.85263e-15
5.9203e-15
5.83269e-15
4.45075e-15
4.69539e-15
4.75675e-15
4.68426e-15
3.55736e-15
3.73661e-15
3.78963e-15
3.73074e-15
2.81923e-15
2.94991e-15
2.99392e-15
2.9469e-15
2.21522e-15
2.30999e-15
2.34545e-15
2.30853e-15
1.72548e-15
1.79382e-15
1.82173e-15
1.79321e-15
1.33188e-15
1.38086e-15
1.40242e-15
1.38074e-15
1.01827e-15
1.05316e-15
1.06949e-15
1.05334e-15
7.70564e-16
7.95254e-16
8.07235e-16
7.95607e-16
5.76645e-16
5.93982e-16
6.02696e-16
5.94381e-16
4.26245e-16
4.3831e-16
4.44568e-16
4.38699e-16
3.10758e-16
3.19067e-16
3.235e-16
3.19414e-16
2.23046e-16
2.28699e-16
2.31791e-16
2.2899e-16
1.57245e-16
1.61027e-16
1.63154e-16
1.61266e-16
1.08254e-16
1.10737e-16
1.12153e-16
1.1092e-16
7.2713e-17
7.43075e-17
7.52255e-17
7.44415e-17
4.75038e-17
4.85013e-17
4.90813e-17
4.85976e-17
3.00148e-17
3.06192e-17
3.09744e-17
3.06859e-17
1.82111e-17
1.8563e-17
1.87726e-17
1.86072e-17
1.05126e-17
1.07077e-17
1.08257e-17
1.07353e-17
5.70055e-18
5.80322e-18
5.86566e-18
5.81882e-18
2.84929e-18
2.90036e-18
2.93085e-18
2.90783e-18
1.27709e-18
1.30031e-18
1.31366e-18
1.30328e-18
4.93744e-19
5.02834e-19
5.07895e-19
5.03837e-19
1.63458e-19
1.63436e-19
1.63434e-19
1.63449e-19
9.24487e-20
9.2446e-20
9.24455e-20
9.24476e-20
4.3497e-20
4.34969e-20
4.34968e-20
4.3497e-20
1.48081e-20
1.48081e-20
1.48081e-20
1.48081e-20
2.5539e-21
2.5539e-21
2.5539e-21
2.5539e-21
8.01704e-14
8.03345e-14
8.06527e-14
8.08897e-14
8.21439e-14
8.17441e-14
8.16957e-14
8.17266e-14
8.40585e-14
8.41327e-14
8.43824e-14
8.4589e-14
8.36707e-14
8.3721e-14
8.39511e-14
8.41475e-14
8.23958e-14
8.24285e-14
8.26423e-14
8.28309e-14
8.05214e-14
8.05435e-14
8.07416e-14
8.09213e-14
7.80163e-14
7.80319e-14
7.82126e-14
7.83802e-14
7.20094e-14
7.19626e-14
7.20533e-14
7.21844e-14
6.3366e-14
6.33264e-14
6.34101e-14
6.35091e-14
5.62794e-14
5.623e-14
5.63013e-14
5.63918e-14
5.10021e-14
5.09597e-14
5.1057e-14
5.11129e-14
4.74955e-14
4.74147e-14
4.7501e-14
4.757e-14
4.53561e-14
4.5353e-14
4.54324e-14
4.54195e-14
4.43259e-14
4.42692e-14
4.43222e-14
4.43138e-14
4.37756e-14
4.37549e-14
4.38204e-14
4.37257e-14
4.35938e-14
4.35189e-14
4.3568e-14
4.34649e-14
4.34413e-14
4.33267e-14
4.34281e-14
4.32684e-14
4.35003e-14
4.34603e-14
4.35525e-14
4.32288e-14
4.05218e-14
4.06027e-14
4.06243e-14
4.02436e-14
3.70205e-14
3.71297e-14
3.71392e-14
3.67045e-14
3.35118e-14
3.36534e-14
3.36564e-14
3.31817e-14
3.00354e-14
3.02155e-14
3.02163e-14
2.97194e-14
2.66342e-14
2.68607e-14
2.6862e-14
2.63614e-14
2.33532e-14
2.36358e-14
2.36391e-14
2.31519e-14
2.02481e-14
2.0598e-14
2.06034e-14
2.01438e-14
1.73449e-14
1.77762e-14
1.77817e-14
1.73609e-14
1.46859e-14
1.51817e-14
1.51956e-14
1.48196e-14
1.23047e-14
1.28397e-14
1.28575e-14
1.25297e-14
1.02101e-14
1.07539e-14
1.07728e-14
1.04925e-14
8.39535e-15
8.92088e-15
8.9393e-15
8.70292e-15
6.82583e-15
7.31096e-15
7.32874e-15
7.13032e-15
5.4982e-15
5.92993e-15
5.94667e-15
5.77944e-15
4.39424e-15
4.76877e-15
4.78402e-15
4.64118e-15
3.48641e-15
3.80259e-15
3.81604e-15
3.69129e-15
2.74666e-15
3.00668e-15
3.01795e-15
2.92196e-15
2.14854e-15
2.35721e-15
2.36627e-15
2.29742e-15
1.66847e-15
1.83205e-15
1.83908e-15
1.7918e-15
1.28583e-15
1.4111e-15
1.41643e-15
1.38474e-15
9.82873e-16
1.0766e-15
1.08059e-15
1.05962e-15
7.44596e-16
8.13088e-16
8.16093e-16
8.02337e-16
5.58437e-16
6.07324e-16
6.09572e-16
6.00629e-16
4.13998e-16
4.48062e-16
4.49805e-16
4.44029e-16
3.02747e-16
3.26087e-16
3.27397e-16
3.23706e-16
2.17899e-16
2.33664e-16
2.34624e-16
2.32292e-16
1.54003e-16
1.64477e-16
1.65162e-16
1.63709e-16
1.06257e-16
1.13061e-16
1.13527e-16
1.12654e-16
7.15126e-17
7.58312e-17
7.61397e-17
7.56273e-17
4.67988e-17
4.94718e-17
4.96699e-17
4.93782e-17
2.96121e-17
3.12167e-17
3.13396e-17
3.11802e-17
1.79881e-17
1.89169e-17
1.89896e-17
1.89062e-17
1.03939e-17
1.09073e-17
1.09483e-17
1.09071e-17
5.64141e-18
5.90926e-18
5.93106e-18
5.91118e-18
2.82295e-18
2.95255e-18
2.96331e-18
2.9533e-18
1.26688e-18
1.32344e-18
1.32822e-18
1.32324e-18
4.90314e-19
5.11664e-19
5.13499e-19
5.11368e-19
1.63436e-19
1.6343e-19
1.63426e-19
1.63447e-19
9.2446e-20
9.24452e-20
9.24443e-20
9.24466e-20
4.34969e-20
4.34968e-20
4.34967e-20
4.34968e-20
1.48081e-20
1.48081e-20
1.48081e-20
1.48081e-20
2.5539e-21
2.5539e-21
2.5539e-21
2.5539e-21
)
;

boundaryField
{
    topWall
    {
        type            nutkWallFunction;
        Cmu             0.09;
        kappa           0.41;
        E               9.8;
        value           uniform 0;
    }
    botWall
    {
        type            nutkWallFunction;
        Cmu             0.09;
        kappa           0.41;
        E               9.8;
        value           uniform 0;
    }
    inlet
    {
        type            cyclic;
    }
    outlet
    {
        type            cyclic;
    }
    fixWall
    {
        type            empty;
    }
}


// ************************************************************************* //
