/*--------------------------------*- C++ -*----------------------------------*\
  =========                 |
  \\      /  F ield         | OpenFOAM: The Open Source CFD Toolbox
   \\    /   O peration     | Website:  https://openfoam.org
    \\  /    A nd           | Version:  dev
     \\/     M anipulation  |

   OpenFOAM for Windows 20.09 (v1)
   Built by CFD Support, www.cfdsupport.com (based on Symscape).
\*---------------------------------------------------------------------------*/
FoamFile
{
    version     2.0;
    format      ascii;
    class       volScalarField;
    location    "10";
    object      omega;
}
// * * * * * * * * * * * * * * * * * * * * * * * * * * * * * * * * * * * * * //

dimensions      [0 0 -1 0 0 0 0];

internalField   nonuniform List<scalar> 
960
(
86943.4
86943.4
86943.4
86943.4
14993.9
14993.8
14993.8
14993.8
5102.52
5102.47
5102.48
5102.48
2397.93
2397.89
2397.89
2397.9
1352.54
1352.52
1352.52
1352.53
860.133
860.113
860.118
860.123
592.782
592.769
592.773
592.779
432.443
432.435
432.438
432.444
329.059
329.055
329.057
329.064
258.641
258.64
258.641
258.647
208.58
208.58
208.581
208.587
171.749
171.75
171.75
171.757
143.882
143.883
143.882
143.889
122.297
122.298
122.297
122.304
105.246
105.247
105.245
105.252
91.5832
91.5836
91.5813
91.5871
80.466
80.4656
80.4623
80.4675
71.2914
71.2906
71.2866
71.2915
63.6321
63.6313
63.6271
63.6317
57.1704
57.1699
57.1662
57.1707
51.6673
51.6675
51.6645
51.6692
46.9424
46.9433
46.9414
46.9462
42.8588
42.8603
42.8593
42.8641
39.3111
39.313
39.3127
39.3175
36.2157
36.2179
36.2181
36.2228
33.5056
33.5079
33.5084
33.5129
31.1258
31.1281
31.1288
31.1331
29.0313
29.0335
29.0344
29.0385
27.1853
27.1874
27.1883
27.1922
25.5573
25.5591
25.56
25.5638
24.1398
24.1415
24.1425
24.1461
22.9054
22.9071
22.908
22.9115
21.8265
21.8282
21.8291
21.8324
20.8895
20.8911
20.892
20.8953
20.0832
20.0848
20.0856
20.0889
19.3988
19.4004
19.4012
19.4044
18.8293
18.831
18.8317
18.8349
18.3697
18.3713
18.3719
18.3752
18.016
18.0177
18.0182
18.0217
17.7663
17.768
17.7684
17.772
17.6195
17.6212
17.6215
17.6253
17.5761
17.5779
17.5781
17.5821
17.6379
17.6398
17.6399
17.6441
17.808
17.8101
17.81
17.8145
18.0986
18.1009
18.1006
18.1053
18.5711
18.5735
18.573
18.5777
19.203
19.2055
19.2048
19.2096
19.9829
19.9856
19.9844
19.9892
20.9235
20.9263
20.9246
20.9293
22.0403
22.0432
22.0408
22.0453
23.3519
23.3549
23.3514
23.3556
24.8805
24.8833
24.8785
24.8821
26.6525
26.6551
26.6484
26.6512
28.6997
28.7018
28.6927
28.6943
31.0605
31.0617
31.0495
31.0494
33.7814
33.7815
33.7651
33.7625
36.9197
36.9183
36.8966
36.8904
40.5463
40.543
40.5143
40.5031
44.75
44.7438
44.7066
44.6886
49.642
49.6323
49.5844
49.5568
86943.4
86943.4
86943.4
86943.4
14993.8
14993.8
14993.8
14993.8
5102.49
5102.48
5102.47
5102.47
2397.9
2397.89
2397.89
2397.89
1352.53
1352.51
1352.52
1352.51
860.125
860.108
860.111
860.11
592.78
592.762
592.765
592.766
432.446
432.427
432.431
432.433
329.065
329.045
329.05
329.053
258.648
258.628
258.634
258.638
208.587
208.568
208.574
208.578
171.757
171.737
171.745
171.749
143.888
143.87
143.877
143.882
122.303
122.285
122.293
122.298
105.25
105.233
105.241
105.246
91.5861
91.5697
91.5791
91.5844
80.4668
80.4517
80.4619
80.4675
71.2908
71.2768
71.2872
71.2932
63.631
63.6175
63.6278
63.6339
57.1698
57.1562
57.1659
57.172
51.668
51.654
51.6626
51.6685
46.9446
46.9301
46.9375
46.9431
42.8623
42.8475
42.8538
42.8591
39.3154
39.3006
39.3059
39.3109
36.2206
36.206
36.2106
36.2153
33.5107
33.4965
33.5005
33.5049
31.1309
31.1174
31.1208
31.1249
29.0364
29.0236
29.0265
29.0304
27.1902
27.1782
27.1807
27.1843
25.5619
25.5508
25.5529
25.5563
24.1443
24.1341
24.1358
24.139
22.91
22.9006
22.902
22.9049
21.8313
21.8227
21.8237
21.8264
20.8944
20.8867
20.8875
20.8899
20.0884
20.0815
20.082
20.0841
19.4043
19.3983
19.3986
19.4003
18.8352
18.8301
18.8303
18.8316
18.3759
18.3719
18.3718
18.3727
18.0228
18.0198
18.0195
18.0201
17.7737
17.7716
17.7711
17.7715
17.6275
17.6265
17.6258
17.6259
17.5849
17.585
17.5841
17.584
17.6476
17.6488
17.6478
17.6474
17.8187
17.821
17.82
17.8194
18.1104
18.1138
18.1129
18.112
18.5838
18.5887
18.5879
18.5869
19.2166
19.223
19.2226
19.2215
19.9973
20.0053
20.0055
20.0043
20.9386
20.9482
20.9492
20.9481
22.0557
22.0672
22.0692
22.0683
23.3673
23.3808
23.3841
23.3836
24.8952
24.911
24.9159
24.9161
26.6657
26.6839
26.6909
26.6925
28.7102
28.7313
28.741
28.7444
31.0667
31.0911
31.1044
31.11
33.7814
33.8097
33.8274
33.836
36.9109
36.9438
36.9672
36.9798
40.5255
40.564
40.5946
40.6122
44.713
44.7585
44.7983
44.8224
49.5842
49.6382
49.6896
49.7219
55.5343
55.5201
55.4566
55.4148
61.3516
61.3457
61.3028
61.2896
64.8145
64.8346
64.8597
64.9287
66.051
66.0942
66.1627
66.2692
65.5423
65.6017
65.6951
65.8095
63.7648
63.8345
63.9417
64.0473
61.244
61.3185
61.4324
61.5226
58.2573
58.3328
58.4489
58.5223
55.0075
55.0812
55.1963
55.2541
51.6445
51.714
51.8259
51.8709
48.2785
48.3427
48.4489
48.4846
44.9897
45.0481
45.1472
45.1772
41.8359
41.8885
41.9796
42.0073
38.8576
38.9054
38.9886
39.0157
36.0841
36.1282
36.2037
36.2316
33.7334
33.7697
33.8401
33.8703
31.7328
31.7616
31.8269
31.8586
29.9724
29.9951
30.055
30.0881
28.4533
28.4712
28.5255
28.559
27.1742
27.1887
27.2375
27.2706
26.1323
26.1449
26.1887
26.2206
25.3246
25.3364
25.3757
25.4057
24.7479
24.7594
24.7949
24.8225
24.3975
24.409
24.4414
24.4668
24.2535
24.2652
24.2951
24.3186
24.3181
24.3301
24.3577
24.3794
24.5949
24.6072
24.6329
24.6529
25.0891
25.1018
25.1258
25.1442
25.8084
25.8215
25.8439
25.8611
26.7633
26.777
26.798
26.814
28.0448
28.0575
28.0785
28.0938
29.635
29.6472
29.6685
29.6827
31.5168
31.5291
31.5507
31.564
33.7201
33.7334
33.7551
33.7676
36.2823
36.2976
36.3186
36.3305
39.2494
39.2676
39.2869
39.2988
42.6785
42.7004
42.7164
42.7299
46.6402
46.6665
46.6776
46.6941
51.2223
51.2536
51.2609
51.2783
56.535
56.5719
56.5873
56.5921
62.7177
62.7606
62.78
62.7782
69.949
69.9988
70.0205
70.0138
78.4611
78.5198
78.5418
78.5317
88.5604
88.6309
88.6516
88.6391
100.659
100.751
100.762
100.748
115.658
115.772
115.786
115.76
134.156
134.302
134.321
134.275
157.152
157.343
157.365
157.291
186.323
186.579
186.601
186.488
224.21
224.558
224.578
224.412
274.808
275.289
275.303
275.067
344.831
345.462
345.466
345.15
446.661
447.343
447.344
446.993
604.517
605.109
605.116
604.797
868.89
869.298
869.312
869.079
1358.42
1358.6
1358.62
1358.5
2401.81
2401.89
2401.9
2401.84
5104.82
5104.84
5104.85
5104.83
14994.8
14994.8
14994.8
14994.8
86943.4
86943.4
86943.4
86943.4
55.4442
55.5098
55.5767
55.6205
61.3222
61.3558
61.4051
61.443
64.9611
64.9105
64.9026
64.9094
66.292
66.1967
66.1579
66.147
65.8194
65.7086
65.6587
65.6385
64.0456
63.9364
63.8853
63.8617
61.5121
61.4141
61.3657
61.3417
58.5051
58.4225
58.378
58.3554
55.2328
55.1665
55.1255
55.1053
51.8478
51.7972
51.7592
51.7419
48.462
48.4253
48.3891
48.3756
45.1557
45.131
45.096
45.0869
41.9867
41.9712
41.9362
41.9334
38.9939
38.9874
38.9503
38.9549
36.206
36.2081
36.1656
36.1806
33.8288
33.8493
33.7993
33.8257
31.8156
31.838
31.789
31.8175
30.0552
30.0655
30.0332
30.0482
28.5311
28.5363
28.5122
28.5221
27.2459
27.2475
27.2291
27.2366
26.1978
26.1969
26.183
26.1888
25.384
25.381
25.3714
25.3763
24.8015
24.7966
24.7913
24.7955
24.4458
24.4384
24.4378
24.4419
24.2973
24.2862
24.2912
24.2956
24.3576
24.341
24.3537
24.3583
24.6305
24.6208
24.6272
24.6335
25.121
25.1154
25.1184
25.1263
25.8368
25.8338
25.8351
25.8448
26.788
26.7875
26.7876
26.7995
28.063
28.0668
28.0636
28.0802
29.6459
29.6553
29.647
29.6703
31.5311
31.5343
31.5206
31.5523
33.7401
33.7355
33.7165
33.7558
36.3069
36.2964
36.2746
36.3179
39.2775
39.263
39.2418
39.2847
42.7103
42.6928
42.675
42.7131
46.6755
46.6555
46.6442
46.6736
51.2613
51.2393
51.2354
51.2543
56.5783
56.5539
56.5545
56.5658
62.7661
62.7389
62.7428
62.7486
70.0035
69.9828
69.9779
69.9823
78.5235
78.508
78.495
78.498
88.6333
88.6227
88.6026
88.6029
100.746
100.74
100.714
100.709
115.767
115.771
115.747
115.721
134.295
134.316
134.296
134.237
157.336
157.375
157.361
157.256
186.573
186.634
186.627
186.453
224.556
224.635
224.642
224.372
275.29
275.393
275.416
275.011
345.463
345.591
345.626
345.072
447.345
447.483
447.525
446.908
605.111
605.234
605.278
604.733
869.301
869.389
869.43
869.05
1358.6
1358.65
1358.68
1358.51
2401.89
2401.91
2401.93
2401.87
5104.84
5104.85
5104.86
5104.85
14994.8
14994.8
14994.8
14994.8
86943.4
86943.4
86943.4
86943.4
)
;

boundaryField
{
    topWall
    {
        type            omegaWallFunction;
        beta1           0.075;
        blended         0;
        value           uniform 86943.4;
    }
    botWall
    {
        type            omegaWallFunction;
        beta1           0.075;
        blended         0;
        value           uniform 86943.4;
    }
    inlet
    {
        type            cyclic;
    }
    outlet
    {
        type            cyclic;
    }
    fixWall
    {
        type            empty;
    }
}


// ************************************************************************* //
