/*--------------------------------*- C++ -*----------------------------------*\
  =========                 |
  \\      /  F ield         | OpenFOAM: The Open Source CFD Toolbox
   \\    /   O peration     | Website:  https://openfoam.org
    \\  /    A nd           | Version:  dev
     \\/     M anipulation  |

   OpenFOAM for Windows 20.09 (v1)
   Built by CFD Support, www.cfdsupport.com (based on Symscape).
\*---------------------------------------------------------------------------*/
FoamFile
{
    version     2.0;
    format      ascii;
    class       volScalarField;
    location    "10";
    object      p;
}
// * * * * * * * * * * * * * * * * * * * * * * * * * * * * * * * * * * * * * //

dimensions      [1 -1 -2 0 0 0 0];

internalField   nonuniform List<scalar> 
960
(
0
-0.0756004
-0.140924
-0.202416
-0.0987731
-0.161429
-0.223209
-0.284202
-0.180502
-0.243178
-0.304958
-0.365951
-0.262201
-0.324892
-0.386706
-0.447701
-0.343983
-0.406643
-0.468476
-0.52945
-0.42573
-0.488433
-0.550226
-0.611199
-0.507456
-0.570183
-0.63197
-0.692946
-0.589187
-0.651934
-0.713719
-0.774698
-0.670919
-0.733684
-0.795468
-0.856448
-0.752636
-0.81542
-0.87721
-0.938197
-0.834381
-0.897185
-0.958959
-1.01995
-0.916114
-0.978937
-1.04069
-1.10168
-0.997816
-1.06069
-1.12244
-1.18343
-1.07953
-1.14244
-1.20415
-1.26515
-1.16127
-1.22418
-1.2859
-1.3469
-1.24257
-1.30559
-1.36728
-1.42804
-1.3248
-1.38767
-1.44956
-1.51077
-1.40652
-1.4694
-1.53131
-1.59252
-1.48827
-1.55116
-1.61306
-1.67427
-1.56999
-1.6329
-1.6948
-1.75602
-1.65172
-1.71464
-1.77655
-1.83777
-1.73343
-1.79638
-1.85829
-1.91953
-1.81516
-1.87811
-1.94004
-2.00128
-1.89688
-1.95986
-2.02178
-2.08302
-1.97861
-2.0416
-2.10354
-2.16478
-2.06034
-2.12334
-2.18529
-2.24653
-2.14206
-2.20508
-2.26703
-2.32828
-2.22379
-2.28682
-2.34878
-2.41003
-2.30551
-2.36856
-2.43052
-2.49178
-2.38697
-2.44938
-2.50926
-2.57184
-2.46904
-2.53204
-2.59221
-2.6541
-2.55082
-2.61378
-2.67396
-2.73585
-2.63257
-2.69552
-2.75571
-2.8176
-2.7143
-2.77726
-2.83746
-2.89935
-2.79602
-2.85899
-2.91921
-2.98111
-2.87775
-2.94073
-3.00096
-3.06286
-2.95948
-3.02247
-3.0827
-3.14461
-3.04121
-3.10421
-3.16445
-3.22636
-3.12293
-3.18595
-3.24619
-3.30811
-3.20466
-3.26769
-3.32794
-3.38986
-3.28639
-3.34943
-3.40969
-3.47161
-3.36811
-3.43116
-3.49143
-3.55336
-3.44986
-3.5129
-3.57317
-3.63511
-3.53159
-3.59464
-3.65489
-3.71686
-3.61332
-3.67599
-3.73664
-3.79778
-3.69453
-3.75652
-3.8172
-3.88042
-3.77697
-3.83908
-3.90066
-3.96224
-3.8587
-3.92082
-3.9824
-4.04403
-3.94043
-4.00256
-4.06415
-4.12578
-4.02216
-4.0843
-4.14589
-4.20753
-4.1039
-4.16603
-4.22764
-4.28928
-4.18561
-4.24775
-4.30938
-4.37102
-4.26736
-4.3295
-4.39112
-4.45277
-4.34909
-4.41124
-4.47286
-4.53451
-4.43083
-4.49297
-4.55461
-4.61626
-4.51256
-4.57471
-4.63636
-4.698
-4.59427
-4.65643
-4.7181
-4.77974
-4.67603
-4.73821
-4.79984
-4.86148
-4.75776
-4.81994
-4.88158
-4.94322
-4.83765
-4.90002
-4.96184
-5.02347
-0.266217
-0.327264
-0.390476
-0.453869
-0.348012
-0.409026
-0.472264
-0.535628
-0.429741
-0.490751
-0.554014
-0.617386
-0.511523
-0.572516
-0.635764
-0.699136
-0.593273
-0.654265
-0.717514
-0.780886
-0.675022
-0.736014
-0.799264
-0.862635
-0.756772
-0.817763
-0.881015
-0.944384
-0.838522
-0.899511
-0.962765
-1.02613
-0.920268
-0.981259
-1.04452
-1.10788
-1.00202
-1.06301
-1.12627
-1.18963
-1.08377
-1.14475
-1.20801
-1.27138
-1.16552
-1.2265
-1.28976
-1.35314
-1.24727
-1.30823
-1.37152
-1.43488
-1.32901
-1.38999
-1.45327
-1.51663
-1.41077
-1.47175
-1.53502
-1.5983
-1.49179
-1.55261
-1.61641
-1.68013
-1.5743
-1.63534
-1.69915
-1.76197
-1.65607
-1.71711
-1.78092
-1.84373
-1.73783
-1.79888
-1.86268
-1.9255
-1.8196
-1.88065
-1.94444
-2.00725
-1.90137
-1.96242
-2.02621
-2.089
-1.98313
-2.0442
-2.10797
-2.17074
-2.0649
-2.12596
-2.18973
-2.25249
-2.14666
-2.20773
-2.27151
-2.33424
-2.22843
-2.2895
-2.35327
-2.41599
-2.3102
-2.37127
-2.43503
-2.49774
-2.39196
-2.45304
-2.5168
-2.57949
-2.47373
-2.53482
-2.59856
-2.66123
-2.5555
-2.61659
-2.68033
-2.74293
-2.63418
-2.69715
-2.76031
-2.82464
-2.71646
-2.77941
-2.84272
-2.90598
-2.79823
-2.86119
-2.92449
-2.98806
-2.88
-2.94293
-3.00625
-3.06981
-2.96178
-3.02473
-3.08804
-3.15156
-3.04356
-3.1065
-3.16981
-3.23332
-3.12532
-3.18828
-3.25158
-3.31507
-3.20709
-3.27006
-3.33335
-3.39682
-3.28885
-3.35183
-3.41513
-3.47857
-3.37062
-3.43362
-3.4969
-3.56032
-3.45239
-3.51539
-3.57867
-3.64207
-3.53415
-3.59717
-3.66044
-3.72382
-3.61592
-3.67895
-3.7422
-3.80556
-3.69768
-3.76072
-3.82399
-3.88733
-3.77945
-3.8425
-3.90576
-3.96908
-3.86022
-3.92368
-3.98753
-4.05083
-3.94265
-4.00607
-4.0689
-4.1322
-4.02442
-4.08789
-4.15133
-4.21426
-4.10622
-4.1697
-4.2331
-4.29601
-4.18798
-4.25148
-4.31487
-4.37776
-4.26974
-4.33325
-4.39664
-4.45952
-4.35151
-4.415
-4.47842
-4.54127
-4.43327
-4.49678
-4.56019
-4.623
-4.51504
-4.57856
-4.64196
-4.70478
-4.5968
-4.66031
-4.72374
-4.78653
-4.67855
-4.7421
-4.80551
-4.86829
-4.76032
-4.82387
-4.88728
-4.95004
-4.84206
-4.90561
-4.96903
-5.03177
-4.9238
-4.98738
-5.0508
-5.11353
-5.00556
-5.06915
-5.13258
-5.19529
-5.08583
-5.14923
-5.21243
-5.27516
-4.8821
-4.94474
-5.00707
-5.06914
-4.89169
-4.95439
-5.01695
-5.07935
-4.89987
-4.96257
-5.02513
-5.08753
-4.90804
-4.97074
-5.0333
-5.0957
-4.91621
-4.97892
-5.04148
-5.10388
-4.92439
-4.98709
-5.04965
-5.11205
-4.93256
-4.99526
-5.05783
-5.12023
-4.94073
-5.00344
-5.066
-5.1284
-4.94891
-5.01161
-5.07418
-5.13658
-4.95708
-5.01978
-5.08235
-5.14475
-4.96525
-5.02796
-5.09053
-5.15293
-4.97343
-5.03613
-5.0987
-5.1611
-4.9816
-5.04431
-5.10688
-5.16928
-4.98977
-5.05248
-5.11506
-5.17745
-4.99795
-5.06066
-5.12323
-5.18563
-5.00612
-5.06883
-5.13141
-5.19381
-5.0143
-5.077
-5.13958
-5.20198
-5.02247
-5.08518
-5.14776
-5.21016
-5.03064
-5.09335
-5.15593
-5.21833
-5.03882
-5.10152
-5.16411
-5.22651
-5.04699
-5.1097
-5.17228
-5.23468
-5.05516
-5.11787
-5.18046
-5.24286
-5.06334
-5.12604
-5.18863
-5.25103
-5.07151
-5.13422
-5.19681
-5.25921
-5.07968
-5.14239
-5.20498
-5.26739
-5.08786
-5.15056
-5.21316
-5.27556
-5.09603
-5.15874
-5.22133
-5.28374
-5.1042
-5.16691
-5.22951
-5.29191
-5.11238
-5.17508
-5.23768
-5.30009
-5.12055
-5.18326
-5.24586
-5.30826
-5.12872
-5.19143
-5.25403
-5.31644
-5.1369
-5.19961
-5.26221
-5.32461
-5.14507
-5.20778
-5.27038
-5.33279
-5.15325
-5.21596
-5.27856
-5.34096
-5.16142
-5.22413
-5.28673
-5.34914
-5.1696
-5.23231
-5.29491
-5.35732
-5.17777
-5.24048
-5.30308
-5.36549
-5.18595
-5.24866
-5.31126
-5.37367
-5.19412
-5.25683
-5.31943
-5.38184
-5.2023
-5.26501
-5.32761
-5.39002
-5.21047
-5.27318
-5.33578
-5.39819
-5.21865
-5.28136
-5.34396
-5.40637
-5.22682
-5.28953
-5.35214
-5.41454
-5.235
-5.29771
-5.36031
-5.42272
-5.24317
-5.30588
-5.36848
-5.43089
-5.25134
-5.31405
-5.37666
-5.43907
-5.25952
-5.32223
-5.38483
-5.44724
-5.26769
-5.3304
-5.39301
-5.45542
-5.27587
-5.33858
-5.40118
-5.46359
-5.28405
-5.34675
-5.40936
-5.47177
-5.29222
-5.35493
-5.41753
-5.47994
-5.3004
-5.3631
-5.42571
-5.48812
-5.30857
-5.37128
-5.43388
-5.49629
-5.31675
-5.37945
-5.44206
-5.50447
-5.32492
-5.38763
-5.45023
-5.51264
-5.3331
-5.3958
-5.45841
-5.52082
-5.34127
-5.40398
-5.46658
-5.52899
-5.34945
-5.41215
-5.47476
-5.53717
-5.35762
-5.42032
-5.48293
-5.54534
-5.3658
-5.4285
-5.49111
-5.55352
-5.13155
-5.19427
-5.25689
-5.31955
-5.1418
-5.20422
-5.26661
-5.32916
-5.14997
-5.2124
-5.27479
-5.33733
-5.15815
-5.22058
-5.28296
-5.34551
-5.16633
-5.22875
-5.29114
-5.35368
-5.1745
-5.23693
-5.29932
-5.36186
-5.18268
-5.24511
-5.30749
-5.37004
-5.19086
-5.25328
-5.31567
-5.37821
-5.19903
-5.26146
-5.32385
-5.38639
-5.20721
-5.26964
-5.33202
-5.39456
-5.21539
-5.27781
-5.3402
-5.40274
-5.22356
-5.28599
-5.34837
-5.41091
-5.23174
-5.29417
-5.35655
-5.41909
-5.23992
-5.30234
-5.36473
-5.42727
-5.24809
-5.31052
-5.3729
-5.43544
-5.25627
-5.3187
-5.38108
-5.44362
-5.26445
-5.32687
-5.38926
-5.45179
-5.27262
-5.33505
-5.39743
-5.45997
-5.2808
-5.34323
-5.40561
-5.46815
-5.28898
-5.35141
-5.41379
-5.47632
-5.29715
-5.35958
-5.42196
-5.4845
-5.30533
-5.36776
-5.43014
-5.49267
-5.31351
-5.37594
-5.43832
-5.50085
-5.32168
-5.38412
-5.44649
-5.50903
-5.32986
-5.39229
-5.45467
-5.5172
-5.33803
-5.40047
-5.46285
-5.52538
-5.34621
-5.40865
-5.47102
-5.53355
-5.35439
-5.41683
-5.4792
-5.54173
-5.36256
-5.42501
-5.48738
-5.5499
-5.37074
-5.43318
-5.49555
-5.55808
-5.37892
-5.44136
-5.50373
-5.56625
-5.38709
-5.44954
-5.51191
-5.57443
-5.39527
-5.45771
-5.52008
-5.5826
-5.40344
-5.46589
-5.52826
-5.59078
-5.41162
-5.47407
-5.53644
-5.59896
-5.41979
-5.48224
-5.54462
-5.60713
-5.42797
-5.49042
-5.55279
-5.61531
-5.43615
-5.4986
-5.56097
-5.62348
-5.44432
-5.50677
-5.56915
-5.63166
-5.4525
-5.51495
-5.57732
-5.63983
-5.46067
-5.52312
-5.5855
-5.64801
-5.46885
-5.5313
-5.59368
-5.65618
-5.47702
-5.53948
-5.60185
-5.66436
-5.4852
-5.54765
-5.61003
-5.67253
-5.49337
-5.55583
-5.61821
-5.68071
-5.50155
-5.56401
-5.62638
-5.68888
-5.50973
-5.57218
-5.63456
-5.69706
-5.5179
-5.58036
-5.64273
-5.70523
-5.52608
-5.58853
-5.65091
-5.71341
-5.53425
-5.59671
-5.65908
-5.72158
-5.54243
-5.60488
-5.66725
-5.72976
-5.5506
-5.61306
-5.67543
-5.73794
-5.55878
-5.62123
-5.6836
-5.74611
-5.56695
-5.62941
-5.69178
-5.75429
-5.57513
-5.63758
-5.69995
-5.76246
-5.5833
-5.64576
-5.70813
-5.77064
-5.59148
-5.65394
-5.7163
-5.77881
-5.59965
-5.66211
-5.72448
-5.78699
-5.60783
-5.67029
-5.73265
-5.79516
-5.616
-5.67846
-5.74083
-5.80334
)
;

boundaryField
{
    topWall
    {
        type            calculated;
        value           nonuniform List<scalar> 8(-5.36988 -5.43259 -5.4952 -5.5576 -5.62009 -5.68255 -5.74491 -5.80743);
    }
    botWall
    {
        type            calculated;
        value           nonuniform List<scalar> 8(0.04089 -0.0347218 -0.100049 -0.161541 -0.225342 -0.286389 -0.349601 -0.412994);
    }
    inlet
    {
        type            cyclic;
    }
    outlet
    {
        type            cyclic;
    }
    fixWall
    {
        type            empty;
    }
}


// ************************************************************************* //
