/*--------------------------------*- C++ -*----------------------------------*\
  =========                 |
  \\      /  F ield         | OpenFOAM: The Open Source CFD Toolbox
   \\    /   O peration     | Website:  https://openfoam.org
    \\  /    A nd           | Version:  dev
     \\/     M anipulation  |

   OpenFOAM for Windows 20.09 (v1)
   Built by CFD Support, www.cfdsupport.com (based on Symscape).
\*---------------------------------------------------------------------------*/
FoamFile
{
    version     2.0;
    format      ascii;
    class       volScalarField;
    location    "10";
    object      p_rgh;
}
// * * * * * * * * * * * * * * * * * * * * * * * * * * * * * * * * * * * * * //

dimensions      [1 -1 -2 0 0 0 0];

internalField   nonuniform List<scalar> 
960
(
0.04089
-0.0347218
-0.100049
-0.161541
0.0238522
-0.0388035
-0.100584
-0.161577
0.0238725
-0.0388032
-0.100583
-0.161576
0.0239236
-0.0387668
-0.100581
-0.161576
0.0238919
-0.0387683
-0.100602
-0.161575
0.0238948
-0.038808
-0.100601
-0.161574
0.0239189
-0.0388084
-0.100595
-0.161571
0.0239377
-0.0388092
-0.100594
-0.161573
0.023956
-0.0388099
-0.100593
-0.161573
0.0239881
-0.038796
-0.100585
-0.161572
0.0239932
-0.0388113
-0.100585
-0.161571
0.0240103
-0.0388122
-0.100563
-0.161555
0.0240587
-0.0388131
-0.100562
-0.161555
0.0240902
-0.0388125
-0.100527
-0.161522
0.0241077
-0.0388046
-0.100522
-0.161517
0.0245473
-0.0384707
-0.100145
-0.160902
0.0240731
-0.0387987
-0.100687
-0.161893
0.0240999
-0.0387799
-0.100684
-0.161895
0.0241076
-0.0387828
-0.100681
-0.161896
0.0241328
-0.0387732
-0.100678
-0.161898
0.024158
-0.0387636
-0.100675
-0.1619
0.0241922
-0.0387539
-0.100671
-0.161902
0.0242152
-0.0387366
-0.100667
-0.161904
0.0242392
-0.0387348
-0.100659
-0.161899
0.0242637
-0.0387254
-0.100668
-0.161904
0.0242881
-0.0387161
-0.100664
-0.161906
0.0243124
-0.0387066
-0.100659
-0.161907
0.0243364
-0.0386969
-0.100653
-0.161908
0.0243609
-0.0386866
-0.100648
-0.161909
0.0246619
-0.0377301
-0.0975551
-0.160172
0.0243381
-0.0386599
-0.0987876
-0.16069
0.0243006
-0.0386531
-0.0988332
-0.160722
0.0243041
-0.0386425
-0.0988309
-0.160724
0.024329
-0.0386303
-0.0988316
-0.160724
0.0243533
-0.0386181
-0.098838
-0.160736
0.0243784
-0.0386057
-0.0988333
-0.160736
0.0244013
-0.0385934
-0.0988284
-0.160735
0.0244215
-0.0385796
-0.0988231
-0.160734
0.0244437
-0.038573
-0.0988173
-0.16073
0.0244659
-0.0385622
-0.0988143
-0.160732
0.0244878
-0.0385518
-0.0988095
-0.160732
0.0245188
-0.038531
-0.0988047
-0.160732
0.0245206
-0.0385211
-0.0987947
-0.160731
0.0245427
-0.0385117
-0.0987652
-0.160731
0.0245685
-0.0381248
-0.0987389
-0.159936
0.0251205
-0.0368578
-0.0975024
-0.160791
0.0244098
-0.0377059
-0.0992854
-0.160866
0.0244239
-0.0376981
-0.0992835
-0.160913
0.0244398
-0.037687
-0.099278
-0.16091
0.0244558
-0.0376761
-0.0992724
-0.160908
0.0244716
-0.0376657
-0.0992667
-0.160904
0.0245084
-0.0376351
-0.0992615
-0.160901
0.0245097
-0.0376276
-0.0992532
-0.160896
0.0245271
-0.0376161
-0.0992459
-0.160891
0.0245445
-0.0376039
-0.0992452
-0.160886
0.0245624
-0.0375914
-0.099239
-0.16088
0.0246015
-0.0375607
-0.0992285
-0.160873
0.0245963
-0.0375865
-0.0992207
-0.160855
0.0243238
-0.0378579
-0.0994229
-0.160996
-0.192085
-0.233344
-0.274028
-0.337479
-0.225342
-0.286389
-0.349601
-0.412994
-0.225387
-0.286401
-0.349638
-0.413003
-0.225366
-0.286376
-0.349639
-0.413011
-0.225398
-0.286391
-0.349639
-0.413011
-0.225398
-0.28639
-0.349639
-0.413011
-0.225397
-0.286389
-0.349639
-0.41301
-0.225397
-0.286388
-0.34964
-0.413009
-0.225397
-0.286386
-0.34964
-0.413008
-0.225393
-0.286384
-0.34964
-0.413007
-0.225399
-0.286381
-0.349641
-0.413004
-0.225399
-0.286379
-0.34964
-0.413002
-0.225391
-0.286376
-0.349637
-0.413012
-0.225392
-0.286355
-0.349644
-0.41301
-0.225387
-0.28637
-0.349645
-0.413005
-0.225391
-0.286371
-0.34964
-0.412922
-0.224659
-0.285477
-0.34927
-0.413008
-0.225427
-0.286462
-0.350278
-0.413099
-0.225442
-0.286483
-0.350291
-0.413109
-0.225459
-0.286505
-0.350305
-0.413127
-0.225475
-0.286528
-0.35032
-0.413126
-0.225491
-0.286551
-0.350334
-0.413125
-0.225508
-0.286573
-0.350349
-0.413113
-0.225524
-0.286586
-0.350361
-0.413118
-0.225533
-0.286608
-0.350383
-0.413117
-0.225556
-0.286629
-0.350397
-0.413115
-0.225572
-0.286649
-0.350411
-0.413113
-0.225589
-0.28667
-0.350425
-0.413111
-0.225605
-0.28669
-0.350439
-0.413109
-0.22562
-0.286709
-0.350452
-0.413054
-0.22247
-0.285493
-0.348635
-0.413008
-0.223017
-0.286019
-0.349308
-0.412615
-0.223104
-0.286065
-0.349361
-0.412936
-0.223122
-0.286057
-0.349373
-0.412937
-0.22315
-0.286101
-0.349416
-0.412938
-0.223181
-0.286128
-0.349437
-0.412938
-0.223198
-0.286155
-0.349458
-0.412938
-0.223214
-0.286181
-0.349477
-0.412939
-0.223226
-0.286206
-0.349502
-0.412944
-0.223244
-0.286239
-0.349524
-0.412946
-0.223261
-0.286267
-0.349545
-0.412948
-0.223278
-0.286294
-0.349567
-0.412949
-0.223294
-0.286321
-0.349575
-0.412938
-0.22331
-0.286346
-0.34961
-0.412957
-0.223325
-0.286371
-0.349629
-0.412956
-0.222383
-0.285826
-0.349643
-0.412956
-0.22304
-0.286443
-0.349252
-0.412559
-0.223045
-0.286515
-0.34995
-0.41288
-0.223099
-0.286579
-0.349975
-0.412887
-0.223107
-0.286603
-0.35
-0.412892
-0.223123
-0.286627
-0.350024
-0.412898
-0.223138
-0.286634
-0.350048
-0.412903
-0.223152
-0.286656
-0.350069
-0.412879
-0.223167
-0.286685
-0.350093
-0.412909
-0.223182
-0.286691
-0.350117
-0.412912
-0.223181
-0.286726
-0.350139
-0.412915
-0.223197
-0.286749
-0.350161
-0.412918
-0.223185
-0.286736
-0.350153
-0.412898
-0.22318
-0.286755
-0.35018
-0.412911
-0.223354
-0.286897
-0.350384
-0.413208
-0.399876
-0.487075
-0.576572
-0.634703
-4.21509
-4.26989
-4.30519
-4.32831
-4.38874
-4.45146
-4.51408
-4.57646
-4.38893
-4.45163
-4.51419
-4.57659
-4.38893
-4.45163
-4.51419
-4.57659
-4.38892
-4.45163
-4.51419
-4.57659
-4.38892
-4.45163
-4.51419
-4.57659
-4.38892
-4.45163
-4.51419
-4.57659
-4.38892
-4.45162
-4.51419
-4.57659
-4.38892
-4.45162
-4.51419
-4.57659
-4.38892
-4.45162
-4.51419
-4.57659
-4.38892
-4.45162
-4.51419
-4.57659
-4.38891
-4.45162
-4.51419
-4.57659
-4.38891
-4.45162
-4.51419
-4.57659
-4.38891
-4.45162
-4.51419
-4.57659
-4.38891
-4.45162
-4.51419
-4.57659
-4.38891
-4.45162
-4.51419
-4.57659
-4.38891
-4.45162
-4.51419
-4.57659
-4.38891
-4.45161
-4.51419
-4.57659
-4.3889
-4.45161
-4.51419
-4.57659
-4.3889
-4.45161
-4.51419
-4.5766
-4.3889
-4.45161
-4.51419
-4.5766
-4.3889
-4.45161
-4.5142
-4.5766
-4.3889
-4.45161
-4.5142
-4.5766
-4.3889
-4.4516
-4.5142
-4.5766
-4.3889
-4.4516
-4.5142
-4.5766
-4.38889
-4.4516
-4.5142
-4.5766
-4.38889
-4.4516
-4.5142
-4.5766
-4.38889
-4.4516
-4.5142
-4.5766
-4.38889
-4.4516
-4.5142
-4.5766
-4.38889
-4.45159
-4.5142
-4.5766
-4.38889
-4.45159
-4.5142
-4.5766
-4.38889
-4.45159
-4.5142
-4.5766
-4.38889
-4.45159
-4.5142
-4.5766
-4.38889
-4.45159
-4.5142
-4.5766
-4.38889
-4.45159
-4.5142
-4.5766
-4.38889
-4.45159
-4.5142
-4.5766
-4.38889
-4.45159
-4.5142
-4.5766
-4.38889
-4.45159
-4.5142
-4.5766
-4.38889
-4.45159
-4.5142
-4.5766
-4.38889
-4.45159
-4.5142
-4.5766
-4.38888
-4.45159
-4.5142
-4.57661
-4.38888
-4.45159
-4.5142
-4.57661
-4.38888
-4.45159
-4.5142
-4.57661
-4.38888
-4.45159
-4.5142
-4.57661
-4.38888
-4.45159
-4.5142
-4.57661
-4.38888
-4.45159
-4.5142
-4.57661
-4.38888
-4.45159
-4.5142
-4.57661
-4.38888
-4.45159
-4.5142
-4.57661
-4.38888
-4.45159
-4.5142
-4.57661
-4.38888
-4.45159
-4.5142
-4.57661
-4.38888
-4.45159
-4.5142
-4.57661
-4.38888
-4.45159
-4.5142
-4.57661
-4.38888
-4.45159
-4.5142
-4.57661
-4.38888
-4.45159
-4.5142
-4.57661
-4.38888
-4.45159
-4.5142
-4.57661
-4.38888
-4.45159
-4.5142
-4.5766
-4.38888
-4.45159
-4.5142
-4.5766
-4.38888
-4.45159
-4.5142
-4.5766
-4.38888
-4.45159
-4.5142
-4.5766
-4.38888
-4.45159
-4.5142
-4.5766
-4.38854
-4.48706
-4.57617
-4.65223
-4.63874
-4.70094
-4.76344
-4.82615
-4.63904
-4.70146
-4.76385
-4.8264
-4.63904
-4.70146
-4.76385
-4.8264
-4.63904
-4.70147
-4.76385
-4.8264
-4.63904
-4.70147
-4.76385
-4.8264
-4.63904
-4.70147
-4.76386
-4.8264
-4.63904
-4.70147
-4.76386
-4.8264
-4.63905
-4.70147
-4.76386
-4.8264
-4.63905
-4.70147
-4.76386
-4.8264
-4.63905
-4.70148
-4.76386
-4.8264
-4.63905
-4.70148
-4.76386
-4.8264
-4.63905
-4.70148
-4.76386
-4.8264
-4.63905
-4.70148
-4.76386
-4.8264
-4.63906
-4.70148
-4.76386
-4.82641
-4.63906
-4.70148
-4.76387
-4.82641
-4.63906
-4.70149
-4.76387
-4.82641
-4.63906
-4.70149
-4.76387
-4.82641
-4.63906
-4.70149
-4.76387
-4.82641
-4.63906
-4.70149
-4.76387
-4.82641
-4.63907
-4.7015
-4.76388
-4.82641
-4.63907
-4.7015
-4.76388
-4.82641
-4.63907
-4.7015
-4.76388
-4.82641
-4.63907
-4.7015
-4.76388
-4.82641
-4.63907
-4.70151
-4.76388
-4.82641
-4.63907
-4.70151
-4.76388
-4.82641
-4.63907
-4.70151
-4.76389
-4.82642
-4.63908
-4.70152
-4.76389
-4.82642
-4.63908
-4.70152
-4.76389
-4.82642
-4.63908
-4.70152
-4.76389
-4.82642
-4.63908
-4.70152
-4.76389
-4.82642
-4.63908
-4.70152
-4.7639
-4.82642
-4.63908
-4.70153
-4.7639
-4.82642
-4.63908
-4.70153
-4.7639
-4.82642
-4.63908
-4.70153
-4.7639
-4.82642
-4.63908
-4.70153
-4.7639
-4.82642
-4.63908
-4.70153
-4.7639
-4.82642
-4.63908
-4.70153
-4.76391
-4.82642
-4.63908
-4.70153
-4.76391
-4.82642
-4.63908
-4.70154
-4.76391
-4.82642
-4.63908
-4.70154
-4.76391
-4.82642
-4.63908
-4.70154
-4.76391
-4.82642
-4.63909
-4.70154
-4.76392
-4.82642
-4.63909
-4.70154
-4.76392
-4.82642
-4.63909
-4.70154
-4.76392
-4.82642
-4.63909
-4.70154
-4.76392
-4.82642
-4.63909
-4.70154
-4.76392
-4.82642
-4.63909
-4.70154
-4.76392
-4.82642
-4.63909
-4.70154
-4.76392
-4.82642
-4.63909
-4.70155
-4.76392
-4.82642
-4.63909
-4.70155
-4.76392
-4.82642
-4.63909
-4.70155
-4.76392
-4.82642
-4.63909
-4.70155
-4.76392
-4.82642
-4.63909
-4.70155
-4.76392
-4.82642
-4.63909
-4.70155
-4.76392
-4.82642
-4.63909
-4.70155
-4.76392
-4.82642
-4.63909
-4.70155
-4.76391
-4.82642
-4.63909
-4.70155
-4.76391
-4.82643
-4.63909
-4.70155
-4.76391
-4.82643
-4.63909
-4.70155
-4.76391
-4.82643
)
;

boundaryField
{
    topWall
    {
        type            zeroGradient;
    }
    botWall
    {
        type            zeroGradient;
    }
    inlet
    {
        type            fixedJump;
        patchType       cyclic;
        jump            uniform -0.5;
        value           nonuniform List<scalar> 
120
(
-4.35745
-4.18366
-0.163394
0.055558
0.0558424
0.0558517
0.055822
0.0558145
0.0558074
0.0558004
0.0558149
0.0557843
0.0557792
0.0557737
0.0557685
0.0557648
0.0562808
0.0558064
0.0557932
0.0557817
0.0557902
0.0557694
0.0557592
0.0557489
0.0557385
0.055731
0.05572
0.0557075
0.0556957
0.0556834
0.0556821
0.0558617
0.0558269
0.0556532
0.0556139
0.0556009
0.0555877
0.0555745
0.0555613
0.0555486
0.0555397
0.0555163
0.0555033
0.0554905
0.0554956
0.0554871
0.0557699
0.0555931
0.0555427
0.0555246
0.0554991
0.0554955
0.0554921
0.0554747
0.0554648
0.0554549
0.0554424
0.0554407
0.0554564
0.0554307
0.0554248
0.063948
-4.35766
-4.35766
-4.35766
-4.35766
-4.35766
-4.35766
-4.35766
-4.35766
-4.35766
-4.35766
-4.35766
-4.35766
-4.35766
-4.35766
-4.35766
-4.35766
-4.35766
-4.35766
-4.35766
-4.35766
-4.35766
-4.35766
-4.35765
-4.35765
-4.35765
-4.35765
-4.35765
-4.35765
-4.35765
-4.35765
-4.35765
-4.35765
-4.35765
-4.35765
-4.35765
-4.35765
-4.35765
-4.35765
-4.35765
-4.35765
-4.35765
-4.35765
-4.35765
-4.35765
-4.35765
-4.35765
-4.35765
-4.35765
-4.35765
-4.35765
-4.35765
-4.35765
-4.35765
-4.35765
-4.35765
-4.35765
-4.35765
-4.35765
)
;
    }
    outlet
    {
        type            fixedJump;
        patchType       cyclic;
        value           nonuniform List<scalar> 
120
(
-4.85745
-4.68366
-0.663394
-0.444442
-0.444158
-0.444148
-0.444178
-0.444186
-0.444193
-0.4442
-0.444185
-0.444216
-0.444221
-0.444226
-0.444231
-0.444235
-0.443719
-0.444194
-0.444207
-0.444218
-0.44421
-0.444231
-0.444241
-0.444251
-0.444261
-0.444269
-0.44428
-0.444292
-0.444304
-0.444317
-0.444318
-0.444138
-0.444173
-0.444347
-0.444386
-0.444399
-0.444412
-0.444426
-0.444439
-0.444451
-0.44446
-0.444484
-0.444497
-0.444509
-0.444504
-0.444513
-0.44423
-0.444407
-0.444457
-0.444475
-0.444501
-0.444505
-0.444508
-0.444525
-0.444535
-0.444545
-0.444558
-0.444559
-0.444544
-0.444569
-0.444575
-0.436052
-4.85766
-4.85766
-4.85766
-4.85766
-4.85766
-4.85766
-4.85766
-4.85766
-4.85766
-4.85766
-4.85766
-4.85766
-4.85766
-4.85766
-4.85766
-4.85766
-4.85766
-4.85766
-4.85766
-4.85766
-4.85766
-4.85766
-4.85765
-4.85765
-4.85765
-4.85765
-4.85765
-4.85765
-4.85765
-4.85765
-4.85765
-4.85765
-4.85765
-4.85765
-4.85765
-4.85765
-4.85765
-4.85765
-4.85765
-4.85765
-4.85765
-4.85765
-4.85765
-4.85765
-4.85765
-4.85765
-4.85765
-4.85765
-4.85765
-4.85765
-4.85765
-4.85765
-4.85765
-4.85765
-4.85765
-4.85765
-4.85765
-4.85765
)
;
    }
    fixWall
    {
        type            empty;
    }
}


// ************************************************************************* //
