/*--------------------------------*- C++ -*----------------------------------*\
  =========                 |
  \\      /  F ield         | OpenFOAM: The Open Source CFD Toolbox
   \\    /   O peration     | Website:  https://openfoam.org
    \\  /    A nd           | Version:  dev
     \\/     M anipulation  |

   OpenFOAM for Windows 20.09 (v1)
   Built by CFD Support, www.cfdsupport.com (based on Symscape).
\*---------------------------------------------------------------------------*/
FoamFile
{
    version     2.0;
    format      ascii;
    class       surfaceScalarField;
    location    "10";
    object      phi;
}
// * * * * * * * * * * * * * * * * * * * * * * * * * * * * * * * * * * * * * //

dimensions      [0 3 -1 0 0 0 0];

internalField   nonuniform List<scalar> 
1792
(
2.34697e-09
3.24567e-11
2.36661e-09
-1.96246e-11
2.37252e-09
-5.91182e-12
-1.32411e-12
2.37386e-09
6.7518e-09
3.13757e-11
6.75436e-09
-2.21496e-11
6.75567e-09
-7.25809e-12
6.57815e-12
6.7478e-09
1.07897e-08
2.12582e-11
1.07911e-08
-2.35596e-11
1.07866e-08
-2.7252e-12
2.76573e-11
1.07655e-08
1.44919e-08
4.76093e-12
1.4492e-08
-2.35901e-11
1.44817e-08
7.56348e-12
6.13804e-11
1.4448e-08
1.78777e-08
-1.67389e-11
1.7876e-08
-2.18256e-11
1.78603e-08
2.3244e-11
1.06103e-10
1.78156e-08
2.09662e-08
-4.18794e-11
2.09621e-08
-1.77182e-11
2.09418e-08
4.35459e-11
1.60112e-10
2.08878e-08
2.37761e-08
-6.93872e-11
2.37695e-08
-1.11468e-11
2.3745e-08
6.79676e-11
2.21603e-10
2.36835e-08
2.63255e-08
-9.8427e-11
2.63167e-08
-2.34953e-12
2.62886e-08
9.60333e-11
2.88809e-10
2.62214e-08
2.86325e-08
-1.28419e-10
2.86217e-08
8.52627e-12
2.85903e-08
1.27315e-10
3.60188e-10
2.85189e-08
3.07147e-08
-1.59061e-10
3.07019e-08
2.14235e-11
3.06678e-08
1.61266e-10
4.34413e-10
3.05936e-08
3.25884e-08
-1.89527e-10
3.25745e-08
3.53453e-11
3.25378e-08
1.97906e-10
5.10286e-10
3.2462e-08
3.42704e-08
-2.19621e-10
3.42554e-08
5.03744e-11
3.42165e-08
2.36709e-10
5.86895e-10
3.414e-08
3.57761e-08
-2.49256e-10
3.57602e-08
6.63491e-11
3.57186e-08
2.78262e-10
6.62489e-10
3.5643e-08
3.71206e-08
-2.78557e-10
3.71037e-08
8.32822e-11
3.70603e-08
3.21629e-10
7.36991e-10
3.69858e-08
3.83179e-08
-3.07846e-10
3.83008e-08
9.96948e-11
3.8255e-08
3.69083e-10
8.09962e-10
3.81823e-08
3.93807e-08
-3.35244e-10
3.93641e-08
1.15903e-10
3.93183e-08
4.14335e-10
8.84826e-10
3.92439e-08
4.03234e-08
-3.63216e-10
4.03072e-08
1.32114e-10
4.02574e-08
4.64119e-10
9.54626e-10
4.01876e-08
4.11564e-08
-3.91461e-10
4.11406e-08
1.47956e-10
4.10891e-08
5.15568e-10
1.02162e-09
4.10221e-08
4.18911e-08
-4.19371e-10
4.18758e-08
1.63261e-10
4.18232e-08
5.68257e-10
1.08529e-09
4.17595e-08
4.25385e-08
-4.47109e-10
4.25237e-08
1.77983e-10
4.24704e-08
6.21648e-10
1.14557e-09
4.24101e-08
4.31081e-08
-4.7457e-10
4.3094e-08
1.92095e-10
4.30403e-08
6.75348e-10
1.20199e-09
4.29839e-08
4.36093e-08
-5.01763e-10
4.35958e-08
2.05565e-10
4.35423e-08
7.28937e-10
1.25431e-09
4.349e-08
4.40507e-08
-5.28852e-10
4.4038e-08
2.1832e-10
4.39849e-08
7.82034e-10
1.30204e-09
4.39372e-08
4.44405e-08
-5.55869e-10
4.44283e-08
2.30518e-10
4.43762e-08
8.34124e-10
1.34483e-09
4.43334e-08
4.47859e-08
-5.82599e-10
4.47744e-08
2.41991e-10
4.47238e-08
8.84737e-10
1.38199e-09
4.46866e-08
4.50944e-08
-6.08935e-10
4.50834e-08
2.52964e-10
4.50347e-08
9.33383e-10
1.41305e-09
4.50036e-08
4.53722e-08
-6.34327e-10
4.53619e-08
2.63324e-10
4.53158e-08
9.79436e-10
1.43736e-09
4.52915e-08
4.56266e-08
-6.58307e-10
4.56162e-08
2.73764e-10
4.5573e-08
1.02259e-09
1.45416e-09
4.55562e-08
4.58627e-08
-6.79225e-10
4.58521e-08
2.84398e-10
4.58127e-08
1.06198e-09
1.46272e-09
4.58042e-08
4.6087e-08
-6.95811e-10
4.60794e-08
2.92315e-10
4.60355e-08
1.10631e-09
1.4529e-09
4.60449e-08
4.63014e-08
-7.03717e-10
4.62832e-08
3.10435e-10
4.62631e-08
1.12678e-09
1.44783e-09
4.62678e-08
4.65165e-08
-7.02932e-10
4.64968e-08
3.30131e-10
4.64845e-08
1.13912e-09
1.43291e-09
4.64994e-08
4.67386e-08
-6.97e-10
4.67189e-08
3.49902e-10
4.67134e-08
1.1446e-09
1.40904e-09
4.67372e-08
4.69741e-08
-6.87753e-10
4.69546e-08
3.69388e-10
4.69551e-08
1.14407e-09
1.37795e-09
4.69862e-08
4.72277e-08
-6.76426e-10
4.72094e-08
3.87686e-10
4.72153e-08
1.1382e-09
1.34102e-09
4.72522e-08
4.75057e-08
-6.64214e-10
4.74888e-08
4.04586e-10
4.74994e-08
1.12754e-09
1.29975e-09
4.75407e-08
4.78137e-08
-6.5199e-10
4.77988e-08
4.19397e-10
4.78136e-08
1.11273e-09
1.25554e-09
4.78578e-08
4.81581e-08
-6.40196e-10
4.81455e-08
4.31988e-10
4.81642e-08
1.09403e-09
1.20948e-09
4.82102e-08
4.85454e-08
-6.29256e-10
4.85356e-08
4.41781e-10
4.85577e-08
1.07194e-09
1.16274e-09
4.86045e-08
4.89828e-08
-6.19288e-10
4.8976e-08
4.48614e-10
4.90014e-08
1.04648e-09
1.11611e-09
4.90481e-08
4.94774e-08
-6.1019e-10
4.94739e-08
4.52155e-10
4.95024e-08
1.01794e-09
1.07038e-09
4.95482e-08
5.00372e-08
-6.01407e-10
5.0037e-08
4.52414e-10
5.00688e-08
9.86047e-10
1.02581e-09
5.01134e-08
5.06709e-08
-5.92972e-10
5.06741e-08
4.49237e-10
5.07087e-08
9.51397e-10
9.83234e-10
5.07513e-08
5.13876e-08
-5.8476e-10
5.13943e-08
4.42514e-10
5.14316e-08
9.14105e-10
9.42918e-10
5.14719e-08
5.21957e-08
-5.75859e-10
5.22083e-08
4.30976e-10
5.22472e-08
8.77038e-10
9.05796e-10
5.22836e-08
5.31058e-08
-5.63396e-10
5.31282e-08
4.09427e-10
5.31606e-08
8.46007e-10
8.69488e-10
5.31962e-08
5.4131e-08
-5.51514e-10
5.4154e-08
3.86388e-10
5.41894e-08
8.1058e-10
8.36554e-10
5.42224e-08
5.52811e-08
-5.39624e-10
5.5306e-08
3.61414e-10
5.53433e-08
7.73295e-10
8.05863e-10
5.53741e-08
5.65684e-08
-5.28117e-10
5.65954e-08
3.34473e-10
5.66338e-08
7.34887e-10
7.77431e-10
5.66623e-08
5.80056e-08
-5.17279e-10
5.80341e-08
3.05967e-10
5.80739e-08
6.95133e-10
7.51253e-10
5.81001e-08
5.96055e-08
-5.0767e-10
5.96358e-08
2.7569e-10
5.96763e-08
6.54662e-10
7.27234e-10
5.97003e-08
6.13814e-08
-4.9935e-10
6.14134e-08
2.43794e-10
6.14547e-08
6.13298e-10
7.05258e-10
6.14767e-08
6.33475e-08
-4.93152e-10
6.33816e-08
2.09701e-10
6.34235e-08
5.71417e-10
6.8501e-10
6.34438e-08
6.55179e-08
-4.88926e-10
6.55544e-08
1.73199e-10
6.55978e-08
5.28057e-10
6.66239e-10
6.56166e-08
6.79069e-08
-4.87178e-10
6.79469e-08
1.33215e-10
6.79925e-08
4.8253e-10
6.48107e-10
6.80107e-08
7.05298e-08
-4.87049e-10
7.05736e-08
8.94332e-11
7.06236e-08
4.32539e-10
6.29517e-10
7.06423e-08
7.34011e-08
-4.88478e-10
7.345e-08
4.05529e-11
7.35066e-08
3.75994e-10
6.08702e-10
7.35275e-08
7.6537e-08
-4.89372e-10
7.65907e-08
-1.30841e-11
7.66582e-08
3.0854e-10
5.8189e-10
7.6685e-08
7.99511e-08
-4.88965e-10
8.00098e-08
-7.17993e-11
8.00909e-08
2.27432e-10
5.44028e-10
8.01288e-08
8.37377e-08
-4.82296e-10
8.37924e-08
-1.27614e-10
8.38869e-08
1.34481e-10
8.39388e-08
4.93857e-10
2.36232e-09
1.14969e-11
2.37034e-09
-8.00311e-12
2.3738e-09
-3.42876e-12
-3.71314e-12
6.72304e-09
3.62246e-11
6.74064e-09
-2.56376e-11
6.75081e-09
-1.35534e-11
-3.67649e-12
1.07319e-08
6.98542e-11
1.07573e-08
-5.11697e-11
1.07735e-08
-2.96548e-11
-9.81827e-12
1.44074e-08
1.10375e-10
1.44409e-08
-8.46658e-11
1.4463e-08
-5.1729e-11
-2.22856e-11
1.77697e-08
1.5625e-10
1.78104e-08
-1.25467e-10
1.78384e-08
-7.95846e-11
-4.01878e-11
2.08378e-08
2.06214e-10
2.08851e-08
-1.72805e-10
2.09184e-08
-1.12813e-10
-6.28633e-11
2.36307e-08
2.59078e-10
2.36836e-08
-2.25788e-10
2.37218e-08
-1.50844e-10
-8.96745e-11
2.61663e-08
3.14141e-10
2.62242e-08
-2.8364e-10
2.62666e-08
-1.93195e-10
-1.19543e-10
2.84627e-08
3.70446e-10
2.85245e-08
-3.45491e-10
2.85706e-08
-2.39178e-10
-1.5153e-10
3.05366e-08
4.27483e-10
3.06018e-08
-4.10633e-10
3.0651e-08
-2.88355e-10
-1.84649e-10
3.24051e-08
4.84356e-10
3.24727e-08
-4.78249e-10
3.25245e-08
-3.40097e-10
-2.18103e-10
3.40837e-08
5.40623e-10
3.41532e-08
-5.47674e-10
3.4207e-08
-3.93951e-10
-2.51416e-10
3.55885e-08
5.95181e-10
3.56588e-08
-6.17966e-10
3.57139e-08
-4.49067e-10
-2.84041e-10
3.69331e-08
6.47943e-10
3.70036e-08
-6.88516e-10
3.70596e-08
-5.05137e-10
-3.157e-10
3.81325e-08
6.9996e-10
3.82032e-08
-7.58399e-10
3.82575e-08
-5.61032e-10
-3.47193e-10
3.91992e-08
7.47093e-10
3.92702e-08
-8.28899e-10
3.93235e-08
-6.16395e-10
-3.77485e-10
4.01449e-08
7.89728e-10
4.02159e-08
-8.99893e-10
4.02676e-08
-6.68118e-10
-4.05252e-10
4.09818e-08
8.30028e-10
4.10516e-08
-9.69681e-10
4.11026e-08
-7.19176e-10
-4.30765e-10
4.17217e-08
8.67781e-10
4.17902e-08
-1.03814e-09
4.18403e-08
-7.69255e-10
-4.53709e-10
4.23744e-08
9.0354e-10
4.24412e-08
-1.10501e-09
4.24902e-08
-8.18256e-10
-4.74203e-10
4.29503e-08
9.37127e-10
4.30153e-08
-1.16999e-09
4.30628e-08
-8.65724e-10
-4.92041e-10
4.34583e-08
9.68746e-10
4.35211e-08
-1.23273e-09
4.35667e-08
-9.11292e-10
-5.07477e-10
4.39076e-08
9.98336e-10
4.39676e-08
-1.29271e-09
4.40108e-08
-9.54496e-10
-5.20316e-10
4.43058e-08
1.02594e-09
4.43625e-08
-1.3494e-09
4.4403e-08
-9.9497e-10
-5.30766e-10
4.46609e-08
1.05168e-09
4.47138e-08
-1.40224e-09
4.47512e-08
-1.03235e-09
-5.38759e-10
4.49798e-08
1.07552e-09
4.50282e-08
-1.45061e-09
4.50622e-08
-1.06633e-09
-5.44556e-10
4.52696e-08
1.0974e-09
4.53131e-08
-1.49405e-09
4.53435e-08
-1.09677e-09
-5.47858e-10
4.55366e-08
1.11702e-09
4.55746e-08
-1.53205e-09
4.56013e-08
-1.12353e-09
-5.49165e-10
4.57869e-08
1.1342e-09
4.58197e-08
-1.56487e-09
4.58431e-08
-1.14693e-09
-5.47816e-10
4.60221e-08
1.15983e-09
4.60566e-08
-1.60025e-09
4.60746e-08
-1.1668e-09
-5.45465e-10
4.62681e-08
1.16233e-09
4.62823e-08
-1.61513e-09
4.63068e-08
-1.19332e-09
-5.33613e-10
4.65041e-08
1.15765e-09
4.65117e-08
-1.62279e-09
4.65285e-08
-1.2101e-09
-5.22334e-10
4.67443e-08
1.1506e-09
4.67452e-08
-1.62372e-09
4.67577e-08
-1.22259e-09
-5.09197e-10
4.69944e-08
1.1424e-09
4.69889e-08
-1.6182e-09
4.69975e-08
-1.23121e-09
-4.95102e-10
4.72606e-08
1.13394e-09
4.72493e-08
-1.60689e-09
4.72543e-08
-1.23625e-09
-4.79873e-10
4.75488e-08
1.12581e-09
4.75321e-08
-1.59019e-09
4.75336e-08
-1.23777e-09
-4.64234e-10
4.78656e-08
1.11809e-09
4.78442e-08
-1.56888e-09
4.78421e-08
-1.23567e-09
-4.48063e-10
4.82171e-08
1.11122e-09
4.81915e-08
-1.54333e-09
4.81859e-08
-1.23009e-09
-4.32051e-10
4.86105e-08
1.10521e-09
4.85815e-08
-1.51438e-09
4.85725e-08
-1.22117e-09
-4.15889e-10
4.90529e-08
1.10032e-09
4.9021e-08
-1.48247e-09
4.90088e-08
-1.20904e-09
-3.99799e-10
4.95522e-08
1.09623e-09
4.95183e-08
-1.44862e-09
4.95031e-08
-1.19378e-09
-3.83218e-10
5.01166e-08
1.09295e-09
5.00813e-08
-1.41326e-09
5.00631e-08
-1.17555e-09
-3.6612e-10
5.07544e-08
1.08984e-09
5.07187e-08
-1.37751e-09
5.06977e-08
-1.15453e-09
-3.47785e-10
5.14751e-08
1.08672e-09
5.14389e-08
-1.34135e-09
5.14151e-08
-1.13071e-09
-3.28494e-10
5.22868e-08
1.08597e-09
5.22521e-08
-1.30696e-09
5.2226e-08
-1.10372e-09
-3.0851e-10
5.32046e-08
1.07977e-09
5.31692e-08
-1.27187e-09
5.3137e-08
-1.07176e-09
-2.91478e-10
5.42333e-08
1.06884e-09
5.41989e-08
-1.23741e-09
5.41649e-08
-1.03766e-09
-2.69492e-10
5.53857e-08
1.0572e-09
5.53518e-08
-1.20345e-09
5.53156e-08
-1.00149e-09
-2.46845e-10
5.66743e-08
1.04522e-09
5.66414e-08
-1.17061e-09
5.66034e-08
-9.635e-10
-2.23389e-10
5.81116e-08
1.03365e-09
5.80793e-08
-1.1383e-09
5.80397e-08
-9.23917e-10
-2.001e-10
5.97112e-08
1.02268e-09
5.96796e-08
-1.1067e-09
5.96386e-08
-8.82871e-10
-1.76574e-10
6.14868e-08
1.01257e-09
6.14553e-08
-1.0752e-09
6.1413e-08
-8.40597e-10
-1.53232e-10
6.34525e-08
1.00382e-09
6.34209e-08
-1.04362e-09
6.33771e-08
-7.96793e-10
-1.29696e-10
6.56237e-08
9.96766e-10
6.55912e-08
-1.01115e-09
6.55455e-08
-7.51061e-10
-1.06237e-10
6.8015e-08
9.92447e-10
6.79808e-08
-9.76912e-10
6.79332e-08
-7.03493e-10
-8.15967e-11
7.06434e-08
9.91287e-10
7.06058e-08
-9.39238e-10
7.05553e-08
-6.53038e-10
-5.61009e-11
7.35239e-08
9.94871e-10
7.34814e-08
-8.96676e-10
7.34277e-08
-5.99388e-10
-2.80189e-11
7.66763e-08
1.0036e-09
7.66255e-08
-8.45825e-10
7.65665e-08
-5.40448e-10
2.41095e-12
8.01146e-08
1.01777e-09
8.00525e-08
-7.83664e-10
7.99867e-08
-4.74627e-10
3.7592e-11
8.39225e-08
1.03265e-09
8.38559e-08
-7.17206e-10
8.37867e-08
-4.06753e-10
7.86225e-11
9.08026e-08
-4.5048e-10
9.08163e-08
-1.42552e-10
9.08897e-08
6.38759e-11
4.33347e-10
9.09516e-08
1.22299e-07
-3.15514e-10
1.21919e-07
2.37514e-10
1.2132e-07
6.62183e-10
7.56852e-10
1.20997e-07
1.56509e-07
-1.79079e-10
1.56207e-07
5.39722e-10
1.55804e-07
1.06469e-09
9.20972e-10
1.5564e-07
1.87927e-07
-5.3389e-11
1.87701e-07
7.66066e-10
1.87452e-07
1.31384e-09
9.80303e-10
1.87392e-07
2.16695e-07
5.51533e-11
2.16533e-07
9.28068e-10
2.16394e-07
1.45262e-09
9.62342e-10
2.16412e-07
2.42964e-07
1.42359e-10
2.42858e-07
1.03368e-09
2.42797e-07
1.51428e-09
9.0307e-10
2.42856e-07
2.66885e-07
2.0577e-10
2.6683e-07
1.08858e-09
2.66817e-07
1.52695e-09
8.27841e-10
2.66892e-07
2.88597e-07
2.5209e-10
2.88584e-07
1.10088e-09
2.88608e-07
1.50346e-09
7.46028e-10
2.8869e-07
3.08265e-07
2.75108e-10
3.08296e-07
1.06975e-09
3.08338e-07
1.46137e-09
6.77189e-10
3.08407e-07
3.2602e-07
2.75926e-10
3.26087e-07
1.0031e-09
3.26142e-07
1.40701e-09
6.24137e-10
3.26195e-07
3.42004e-07
2.56965e-10
3.42106e-07
9.01472e-10
3.42166e-07
1.34712e-09
5.98048e-10
3.42192e-07
3.56351e-07
2.16843e-10
3.5647e-07
7.82276e-10
3.56525e-07
1.29157e-09
5.84656e-10
3.56539e-07
3.69182e-07
1.63705e-10
3.69321e-07
6.42742e-10
3.6937e-07
1.24242e-09
5.9626e-10
3.69359e-07
3.80633e-07
1.08233e-10
3.80762e-07
5.13564e-10
3.80808e-07
1.19623e-09
5.8886e-10
3.80816e-07
3.90797e-07
4.27766e-11
3.90939e-07
3.73945e-10
3.90973e-07
1.15532e-09
6.12481e-10
3.9095e-07
3.99815e-07
-9.64722e-12
3.99935e-07
2.57646e-10
3.99981e-07
1.10426e-09
6.04392e-10
3.99992e-07
4.07746e-07
-6.07446e-11
4.07882e-07
1.21077e-10
4.07924e-07
1.06182e-09
6.31088e-10
4.07897e-07
4.14736e-07
-8.18172e-11
4.14841e-07
1.60502e-11
4.14909e-07
9.94426e-10
6.08616e-10
4.14931e-07
4.20817e-07
-1.0039e-10
4.20934e-07
-1.01167e-10
4.21023e-07
9.06035e-10
6.31017e-10
4.21001e-07
4.26132e-07
-8.28586e-11
4.26203e-07
-1.71397e-10
4.26308e-07
8.00554e-10
6.04513e-10
4.26335e-07
4.30704e-07
-5.77582e-11
4.30761e-07
-2.28179e-10
4.30883e-07
6.78803e-10
6.10123e-10
4.30877e-07
4.34642e-07
-2.26652e-11
4.34661e-07
-2.47026e-10
4.34794e-07
5.45424e-10
5.68396e-10
4.34836e-07
4.37971e-07
2.02861e-11
4.37976e-07
-2.519e-10
4.38119e-07
4.02117e-10
5.60522e-10
4.38127e-07
4.40768e-07
6.31408e-11
4.40747e-07
-2.30572e-10
4.40896e-07
2.52944e-10
5.11641e-10
4.40945e-07
4.43057e-07
1.09009e-10
4.43027e-07
-2.0093e-10
4.43179e-07
1.00521e-10
5.04152e-10
4.43187e-07
4.44891e-07
1.48478e-10
4.44847e-07
-1.56451e-10
4.45e-07
-5.24413e-11
4.5771e-10
4.45046e-07
4.46287e-07
1.83773e-10
4.46244e-07
-1.13656e-10
4.46395e-07
-2.0329e-10
4.6177e-10
4.46391e-07
4.47284e-07
2.08934e-10
4.47236e-07
-6.62366e-11
4.47384e-07
-3.50605e-10
4.2757e-10
4.47418e-07
4.47879e-07
2.23225e-10
4.47846e-07
-3.31009e-11
4.47986e-07
-4.90369e-10
4.52814e-10
4.47961e-07
4.48107e-07
2.24639e-10
4.48079e-07
-6.12263e-12
4.48211e-07
-6.19459e-10
4.31277e-10
4.48233e-07
4.47941e-07
2.1008e-10
4.47942e-07
-8.8607e-12
4.4806e-07
-7.36918e-10
4.64356e-10
4.48026e-07
4.47424e-07
1.75043e-10
4.47432e-07
-1.58834e-11
4.47535e-07
-8.39771e-10
4.50931e-10
4.47548e-07
4.46505e-07
1.26751e-10
4.46539e-07
-4.99005e-11
4.4661e-07
-9.10485e-10
4.84984e-10
4.46576e-07
4.4523e-07
4.86848e-11
4.45252e-07
-7.15539e-11
4.45288e-07
-9.46943e-10
4.80366e-10
4.45293e-07
4.4348e-07
-4.32805e-11
4.43507e-07
-9.90935e-11
4.435e-07
-9.39611e-10
5.00596e-10
4.4348e-07
4.41272e-07
-1.35417e-10
4.41273e-07
-1.00194e-10
4.4126e-07
-9.2602e-10
4.78492e-10
4.41282e-07
4.38529e-07
-2.24957e-10
4.38537e-07
-1.08333e-10
4.38508e-07
-8.96704e-10
4.60903e-10
4.38525e-07
4.35244e-07
-3.03098e-10
4.3525e-07
-1.13594e-10
4.35221e-07
-8.68525e-10
4.51521e-10
4.35231e-07
4.31324e-07
-3.70783e-10
4.31338e-07
-1.27713e-10
4.31295e-07
-8.25032e-10
4.4883e-10
4.31297e-07
4.26733e-07
-4.04967e-10
4.26738e-07
-1.3231e-10
4.26697e-07
-7.84382e-10
4.40034e-10
4.26706e-07
4.21378e-07
-4.16947e-10
4.21382e-07
-1.35528e-10
4.21335e-07
-7.37984e-10
4.26559e-10
4.21349e-07
4.15202e-07
-3.88253e-10
4.15199e-07
-1.31882e-10
4.15158e-07
-6.97918e-10
4.06649e-10
4.15178e-07
4.08121e-07
-3.80291e-10
4.08118e-07
-1.29526e-10
4.08062e-07
-6.42076e-10
3.81496e-10
4.08087e-07
4.00024e-07
-3.29666e-10
4.00022e-07
-1.2796e-10
3.99977e-07
-5.97165e-10
3.59557e-10
3.99999e-07
3.90848e-07
-3.14936e-10
3.90839e-07
-1.21278e-10
3.90767e-07
-5.25236e-10
3.32009e-10
3.90789e-07
3.80394e-07
-2.50158e-10
3.80389e-07
-1.16837e-10
3.8034e-07
-4.70651e-10
3.07858e-10
3.8036e-07
3.68641e-07
-2.25935e-10
3.6863e-07
-1.05483e-10
3.68558e-07
-3.98697e-10
2.87845e-10
3.68578e-07
3.55354e-07
-1.58215e-10
3.55345e-07
-9.60448e-11
3.553e-07
-3.53257e-10
2.66442e-10
3.55321e-07
3.40496e-07
-1.26217e-10
3.40482e-07
-8.28639e-11
3.40424e-07
-2.95376e-10
2.45685e-10
3.40445e-07
3.23833e-07
-6.47958e-11
3.2382e-07
-6.99512e-11
3.23784e-07
-2.59022e-10
2.22325e-10
3.23807e-07
3.05282e-07
-3.1831e-11
3.05267e-07
-5.47887e-11
3.05228e-07
-2.19792e-10
1.97038e-10
3.05253e-07
2.84635e-07
1.00701e-11
2.84624e-07
-4.34869e-11
2.84594e-07
-1.90375e-10
1.71337e-10
2.8462e-07
2.61757e-07
3.12606e-11
2.61748e-07
-3.41687e-11
2.61718e-07
-1.6059e-10
1.44219e-10
2.61745e-07
2.36461e-07
4.81916e-11
2.36454e-07
-2.6836e-11
2.36425e-07
-1.32065e-10
1.17735e-10
2.36451e-07
2.08573e-07
5.01186e-11
2.08567e-07
-2.06093e-11
2.08538e-07
-1.0302e-10
9.07849e-11
2.08565e-07
1.77909e-07
4.64559e-11
1.77903e-07
-1.48838e-11
1.77875e-07
-7.43352e-11
6.52625e-11
1.779e-07
1.4428e-07
3.47628e-11
1.44274e-07
-9.66447e-12
1.44248e-07
-4.75732e-11
4.11863e-11
1.44272e-07
1.07495e-07
2.14182e-11
1.07491e-07
-5.20108e-12
1.07468e-07
-2.46303e-11
2.08075e-11
1.07488e-07
6.73624e-08
7.53981e-12
6.73591e-08
-1.91546e-12
6.73425e-08
-7.88126e-12
6.00825e-12
6.73572e-08
2.36864e-08
2.36844e-08
2.36766e-08
2.36826e-08
9.09623e-08
1.02049e-09
9.09339e-08
-6.89189e-10
9.08845e-08
-3.58e-10
1.28156e-10
1.21349e-07
6.68365e-10
1.21949e-07
-1.28891e-09
1.22334e-07
-7.43614e-10
2.82642e-11
1.55912e-07
3.96252e-10
1.5632e-07
-1.69657e-09
1.56591e-07
-1.01521e-09
-2.59539e-11
1.87581e-07
2.07138e-10
1.87841e-07
-1.95578e-09
1.88031e-07
-1.20552e-09
-4.77643e-11
2.16534e-07
8.50816e-11
2.16678e-07
-2.0993e-09
2.16807e-07
-1.33532e-09
-4.35076e-11
2.42914e-07
2.70483e-11
2.42974e-07
-2.15935e-09
2.4307e-07
-1.43063e-09
-2.50513e-11
2.66898e-07
2.08579e-11
2.66904e-07
-2.16455e-09
2.66978e-07
-1.50497e-09
5.11105e-12
2.8866e-07
5.05614e-11
2.88626e-07
-2.1305e-09
2.88683e-07
-1.56184e-09
4.50901e-11
3.08345e-07
1.12266e-10
3.0829e-07
-2.07495e-09
3.08336e-07
-1.6087e-09
9.38941e-11
3.26111e-07
1.96506e-10
3.26033e-07
-1.99759e-09
3.26068e-07
-1.64346e-09
1.40533e-10
3.42092e-07
2.96922e-10
3.42014e-07
-1.91989e-09
3.4204e-07
-1.66895e-09
1.94727e-10
3.56436e-07
3.99408e-10
3.56338e-07
-1.8214e-09
3.56349e-07
-1.6796e-09
2.32904e-10
3.69265e-07
4.93319e-10
3.69188e-07
-1.74431e-09
3.69183e-07
-1.67516e-09
2.87752e-10
3.80719e-07
5.90276e-10
3.80606e-07
-1.6312e-09
3.80605e-07
-1.67458e-09
3.15324e-10
3.90877e-07
6.61421e-10
3.90808e-07
-1.56467e-09
3.9079e-07
-1.65589e-09
3.73262e-10
3.99912e-07
7.39551e-10
3.99797e-07
-1.45123e-09
3.99788e-07
-1.64975e-09
3.93349e-10
4.07842e-07
7.95236e-10
4.07786e-07
-1.39503e-09
4.07753e-07
-1.61626e-09
4.5122e-10
4.14882e-07
8.44866e-10
4.14777e-07
-1.29006e-09
4.14742e-07
-1.58165e-09
4.78023e-10
4.20942e-07
9.03302e-10
4.20887e-07
-1.23512e-09
4.20843e-07
-1.53727e-09
5.22145e-10
4.26304e-07
9.34295e-10
4.26203e-07
-1.13442e-09
4.2615e-07
-1.48457e-09
5.22519e-10
4.30825e-07
9.86789e-10
4.30751e-07
-1.06064e-09
4.30711e-07
-1.4447e-09
5.0432e-10
4.34813e-07
1.00983e-09
4.34684e-07
-9.31528e-10
4.34613e-07
-1.3738e-09
4.4035e-10
4.38064e-07
1.07256e-09
4.37961e-07
-8.28748e-10
4.37928e-07
-1.34056e-09
3.55086e-10
4.40919e-07
1.09808e-09
4.4077e-07
-6.79215e-10
4.40694e-07
-1.26418e-09
2.38095e-10
4.43108e-07
1.17726e-09
4.42991e-07
-5.62137e-10
4.42968e-07
-1.24126e-09
1.04012e-10
4.45016e-07
1.20749e-09
4.44858e-07
-4.03544e-10
4.44779e-07
-1.16252e-09
-4.73466e-11
4.46296e-07
1.30305e-09
4.46179e-07
-2.86542e-10
4.46164e-07
-1.14722e-09
-2.0599e-10
4.47382e-07
1.33894e-09
4.47229e-07
-1.3298e-10
4.47147e-07
-1.06593e-09
-3.67774e-10
4.4785e-07
1.44974e-09
4.47749e-07
-3.26656e-11
4.47739e-07
-1.0563e-09
-5.21647e-10
4.48198e-07
1.48429e-09
4.48058e-07
1.0821e-10
4.47965e-07
-9.60549e-10
-6.62554e-10
4.47922e-07
1.58723e-09
4.47837e-07
1.91085e-10
4.47812e-07
-9.2898e-10
-7.68986e-10
4.47526e-07
1.60903e-09
4.47413e-07
3.03582e-10
4.47302e-07
-8.17595e-10
-8.56027e-10
4.46494e-07
1.69073e-09
4.46442e-07
3.55066e-10
4.4641e-07
-7.85165e-10
-9.02778e-10
4.45291e-07
1.69191e-09
4.45225e-07
4.21031e-10
4.45117e-07
-6.76995e-10
-9.37965e-10
4.43436e-07
1.73536e-09
4.43403e-07
4.54485e-10
4.43367e-07
-6.41019e-10
-9.59711e-10
4.41299e-07
1.71789e-09
4.41258e-07
4.95999e-10
4.41167e-07
-5.50213e-10
-9.73584e-10
4.38512e-07
1.7307e-09
4.38471e-07
5.36975e-10
4.38429e-07
-5.07864e-10
-9.84406e-10
4.35248e-07
1.71346e-09
4.35223e-07
5.61599e-10
4.35161e-07
-4.45595e-10
-9.89912e-10
4.31316e-07
1.69526e-09
4.31291e-07
5.85651e-10
4.31254e-07
-4.07971e-10
-9.9267e-10
4.26755e-07
1.64592e-09
4.26742e-07
5.98859e-10
4.26704e-07
-3.69748e-10
-9.87969e-10
4.21412e-07
1.58216e-09
4.21402e-07
6.08956e-10
4.21378e-07
-3.44977e-10
-9.76842e-10
4.15266e-07
1.49427e-09
4.15273e-07
6.02031e-10
4.15258e-07
-3.30364e-10
-9.49108e-10
4.0819e-07
1.39223e-09
4.08192e-07
5.99318e-10
4.08158e-07
-2.96525e-10
-9.19098e-10
4.0011e-07
1.28119e-09
4.00139e-07
5.70427e-10
4.00128e-07
-2.85386e-10
-8.65398e-10
3.90911e-07
1.1561e-09
3.90935e-07
5.43954e-10
3.90904e-07
-2.5124e-10
-8.21241e-10
3.80482e-07
1.03263e-09
3.8053e-07
4.97068e-10
3.80526e-07
-2.45417e-10
-7.54645e-10
3.68705e-07
9.05207e-10
3.68745e-07
4.57537e-10
3.68718e-07
-2.18664e-10
-7.01973e-10
3.55441e-07
7.85477e-10
3.55498e-07
3.99987e-10
3.55496e-07
-2.16668e-10
-6.27903e-10
3.40566e-07
6.64625e-10
3.40613e-07
3.52944e-10
3.40587e-07
-1.9034e-10
-5.68589e-10
3.23916e-07
5.55932e-10
3.23974e-07
2.9529e-10
3.23967e-07
-1.84114e-10
-4.95727e-10
3.0536e-07
4.49113e-10
3.05408e-07
2.47402e-10
3.05378e-07
-1.54249e-10
-4.32871e-10
2.84714e-07
3.55596e-10
2.84765e-07
1.95783e-10
2.84748e-07
-1.36846e-10
-3.61986e-10
2.61836e-07
2.64825e-10
2.61883e-07
1.48954e-10
2.61848e-07
-1.01917e-10
-2.92432e-10
2.36527e-07
1.89766e-10
2.36571e-07
1.046e-10
2.36546e-07
-7.72314e-11
-2.23975e-10
2.08631e-07
1.24329e-10
2.08668e-07
6.75673e-11
2.08638e-07
-4.77366e-11
-1.61233e-10
1.77949e-07
7.52467e-11
1.77979e-07
3.74916e-11
1.7796e-07
-2.86888e-11
-1.06354e-10
1.44309e-07
3.81142e-11
1.4433e-07
1.66598e-11
1.44313e-07
-1.16769e-11
-6.16346e-11
1.07511e-07
1.51244e-11
1.07523e-07
4.31902e-12
1.07515e-07
-3.37121e-12
-2.83281e-11
6.73692e-08
3.10867e-12
6.73734e-08
1.445e-13
6.73693e-08
6.78184e-13
-7.58754e-12
2.36857e-08
2.36858e-08
2.36864e-08
)
;

boundaryField
{
    topWall
    {
        type            calculated;
        value           uniform 0;
    }
    botWall
    {
        type            calculated;
        value           uniform 0;
    }
    inlet
    {
        type            cyclic;
        value           nonuniform List<scalar> 
120
(
-1.22434e-07
-9.08355e-08
-8.37459e-08
-7.99515e-08
-7.65361e-08
-7.33997e-08
-7.05299e-08
-6.79086e-08
-6.55221e-08
-6.33536e-08
-6.13897e-08
-5.96151e-08
-5.80164e-08
-5.65799e-08
-5.5293e-08
-5.41429e-08
-5.31187e-08
-5.2205e-08
-5.13958e-08
-5.06794e-08
-5.0046e-08
-4.94865e-08
-4.89927e-08
-4.85564e-08
-4.81699e-08
-4.78259e-08
-4.75179e-08
-4.72391e-08
-4.69834e-08
-4.67446e-08
-4.65173e-08
-4.62941e-08
-4.60708e-08
-4.58418e-08
-4.56026e-08
-4.53468e-08
-4.5068e-08
-4.47592e-08
-4.44135e-08
-4.40236e-08
-4.35821e-08
-4.30806e-08
-4.25107e-08
-4.18632e-08
-4.11282e-08
-4.02954e-08
-3.93533e-08
-3.82889e-08
-3.70913e-08
-3.57465e-08
-3.42403e-08
-3.2558e-08
-3.06841e-08
-2.86025e-08
-2.62965e-08
-2.37485e-08
-2.09411e-08
-1.78562e-08
-1.44754e-08
-1.07796e-08
-6.75074e-09
-2.37751e-09
-1.56645e-07
-1.88053e-07
-2.16803e-07
-2.43051e-07
-2.66948e-07
-2.88643e-07
-3.08288e-07
-3.26021e-07
-3.41985e-07
-3.5631e-07
-3.69129e-07
-3.80578e-07
-3.90734e-07
-3.99768e-07
-4.07694e-07
-4.14715e-07
-4.20799e-07
-4.2615e-07
-4.30729e-07
-4.34677e-07
-4.38014e-07
-4.40811e-07
-4.43102e-07
-4.44931e-07
-4.46322e-07
-4.47309e-07
-4.47893e-07
-4.48107e-07
-4.47924e-07
-4.47389e-07
-4.46457e-07
-4.45152e-07
-4.43388e-07
-4.4118e-07
-4.3844e-07
-4.35166e-07
-4.31257e-07
-4.26699e-07
-4.21366e-07
-4.15231e-07
-4.08129e-07
-4.00074e-07
-3.90862e-07
-3.80458e-07
-3.68665e-07
-3.55422e-07
-3.40528e-07
-3.23895e-07
-3.05315e-07
-2.84677e-07
-2.61778e-07
-2.36478e-07
-2.08575e-07
-1.77905e-07
-1.44268e-07
-1.07482e-07
-6.73486e-08
-2.36789e-08
)
;
    }
    outlet
    {
        type            cyclic;
        value           nonuniform List<scalar> 
120
(
1.22434e-07
9.08355e-08
8.37459e-08
7.99515e-08
7.65361e-08
7.33997e-08
7.05299e-08
6.79086e-08
6.55221e-08
6.33536e-08
6.13897e-08
5.96151e-08
5.80164e-08
5.65799e-08
5.5293e-08
5.41429e-08
5.31187e-08
5.2205e-08
5.13958e-08
5.06794e-08
5.0046e-08
4.94865e-08
4.89927e-08
4.85564e-08
4.81699e-08
4.78259e-08
4.75179e-08
4.72391e-08
4.69834e-08
4.67446e-08
4.65173e-08
4.62941e-08
4.60708e-08
4.58418e-08
4.56026e-08
4.53468e-08
4.5068e-08
4.47592e-08
4.44135e-08
4.40236e-08
4.35821e-08
4.30806e-08
4.25107e-08
4.18632e-08
4.11282e-08
4.02954e-08
3.93533e-08
3.82889e-08
3.70913e-08
3.57465e-08
3.42403e-08
3.2558e-08
3.06841e-08
2.86025e-08
2.62965e-08
2.37485e-08
2.09411e-08
1.78562e-08
1.44754e-08
1.07796e-08
6.75074e-09
2.37751e-09
1.56645e-07
1.88053e-07
2.16803e-07
2.43051e-07
2.66948e-07
2.88643e-07
3.08288e-07
3.26021e-07
3.41985e-07
3.5631e-07
3.69129e-07
3.80578e-07
3.90734e-07
3.99768e-07
4.07694e-07
4.14715e-07
4.20799e-07
4.2615e-07
4.30729e-07
4.34677e-07
4.38014e-07
4.40811e-07
4.43102e-07
4.44931e-07
4.46322e-07
4.47309e-07
4.47893e-07
4.48107e-07
4.47924e-07
4.47389e-07
4.46457e-07
4.45152e-07
4.43388e-07
4.4118e-07
4.3844e-07
4.35166e-07
4.31257e-07
4.26699e-07
4.21366e-07
4.15231e-07
4.08129e-07
4.00074e-07
3.90862e-07
3.80458e-07
3.68665e-07
3.55422e-07
3.40528e-07
3.23895e-07
3.05315e-07
2.84677e-07
2.61778e-07
2.36478e-07
2.08575e-07
1.77905e-07
1.44268e-07
1.07482e-07
6.73486e-08
2.36789e-08
)
;
    }
    fixWall
    {
        type            empty;
        value           nonuniform List<scalar> 0();
    }
}


// ************************************************************************* //
