/*--------------------------------*- C++ -*----------------------------------*\
  =========                 |
  \\      /  F ield         | OpenFOAM: The Open Source CFD Toolbox
   \\    /   O peration     | Website:  https://openfoam.org
    \\  /    A nd           | Version:  dev
     \\/     M anipulation  |

   OpenFOAM for Windows 20.09 (v1)
   Built by CFD Support, www.cfdsupport.com (based on Symscape).
\*---------------------------------------------------------------------------*/
FoamFile
{
    version     2.0;
    format      ascii;
    class       volSymmTensorField;
    location    "10";
    object      R;
}
// * * * * * * * * * * * * * * * * * * * * * * * * * * * * * * * * * * * * * //

dimensions      [0 2 -2 0 0 0 0];

internalField   nonuniform List<symmTensor> 
960
(
(1.4803e-16 -1.67576e-20 0 1.4803e-16 0 1.4803e-16)
(1.4803e-16 -1.67486e-20 0 1.4803e-16 0 1.4803e-16)
(1.4803e-16 -1.67829e-20 0 1.4803e-16 0 1.4803e-16)
(1.4803e-16 -1.67993e-20 0 1.4803e-16 0 1.4803e-16)
(1.4803e-16 -8.98316e-20 0 1.4803e-16 0 1.4803e-16)
(1.4803e-16 -8.99372e-20 0 1.4803e-16 0 1.4803e-16)
(1.4803e-16 -8.97876e-20 0 1.4803e-16 0 1.4803e-16)
(1.4803e-16 -8.96908e-20 0 1.4803e-16 0 1.4803e-16)
(1.4803e-16 -2.42428e-19 0 1.4803e-16 0 1.4803e-16)
(1.4803e-16 -2.42599e-19 0 1.4803e-16 0 1.4803e-16)
(1.4803e-16 -2.42275e-19 0 1.4803e-16 0 1.4803e-16)
(1.4803e-16 -2.41873e-19 0 1.4803e-16 0 1.4803e-16)
(1.4803e-16 -4.72511e-19 0 1.4803e-16 0 1.4803e-16)
(1.4803e-16 -4.72634e-19 0 1.4803e-16 0 1.4803e-16)
(1.4803e-16 -4.72076e-19 0 1.4803e-16 0 1.4803e-16)
(1.4803e-16 -4.71167e-19 0 1.4803e-16 0 1.4803e-16)
(1.4803e-16 -7.6529e-19 0 1.4803e-16 0 1.4803e-16)
(1.4803e-16 -7.65234e-19 0 1.4803e-16 0 1.4803e-16)
(1.4803e-16 -7.64354e-19 0 1.4803e-16 0 1.4803e-16)
(1.4803e-16 -7.62866e-19 0 1.48029e-16 0 1.4803e-16)
(1.48029e-16 -1.09649e-18 0 1.4803e-16 0 1.4803e-16)
(1.4803e-16 -1.09613e-18 0 1.4803e-16 0 1.4803e-16)
(1.4803e-16 -1.09482e-18 0 1.48029e-16 0 1.4803e-16)
(1.4803e-16 -1.09279e-18 0 1.48029e-16 0 1.4803e-16)
(1.48552e-16 -1.45082e-18 0 1.48553e-16 0 1.48553e-16)
(1.4803e-16 -1.44506e-18 0 1.4803e-16 0 1.4803e-16)
(1.4803e-16 -1.44328e-18 0 1.48029e-16 0 1.4803e-16)
(1.48031e-16 -1.44081e-18 0 1.48029e-16 0 1.4803e-16)
(2.40429e-16 -2.91674e-18 0 2.40432e-16 0 2.40431e-16)
(2.39184e-16 -2.90038e-18 0 2.39183e-16 0 2.39184e-16)
(2.37651e-16 -2.87808e-18 0 2.37649e-16 0 2.3765e-16)
(2.36901e-16 -2.86447e-18 0 2.36895e-16 0 2.36898e-16)
(3.69326e-16 -5.32111e-18 0 3.6933e-16 0 3.69328e-16)
(3.67377e-16 -5.29134e-18 0 3.67375e-16 0 3.67376e-16)
(3.64979e-16 -5.24969e-18 0 3.64974e-16 0 3.64977e-16)
(3.63808e-16 -5.22526e-18 0 3.63796e-16 0 3.63802e-16)
(5.42543e-16 -8.96235e-18 0 5.42553e-16 0 5.42548e-16)
(5.39658e-16 -8.91393e-18 0 5.39654e-16 0 5.39656e-16)
(5.36107e-16 -8.84302e-18 0 5.36097e-16 0 5.36102e-16)
(5.34375e-16 -8.80212e-18 0 5.34352e-16 0 5.34363e-16)
(7.68287e-16 -1.41441e-17 0 7.68302e-16 0 7.68295e-16)
(7.64187e-16 -1.40713e-17 0 7.6418e-16 0 7.64184e-16)
(7.59141e-16 -1.3958e-17 0 7.59122e-16 0 7.59132e-16)
(7.56681e-16 -1.38936e-17 0 7.56639e-16 0 7.56659e-16)
(1.05573e-15 -2.11575e-17 0 1.05576e-15 0 1.05574e-15)
(1.05009e-15 -2.10542e-17 0 1.05008e-15 0 1.05008e-15)
(1.04314e-15 -2.08793e-17 0 1.04311e-15 0 1.04313e-15)
(1.03976e-15 -2.07829e-17 0 1.03969e-15 0 1.03973e-15)
(1.41512e-15 -3.02627e-17 0 1.41516e-15 0 1.41514e-15)
(1.40757e-15 -3.01248e-17 0 1.40755e-15 0 1.40756e-15)
(1.39825e-15 -2.98681e-17 0 1.3982e-15 0 1.39823e-15)
(1.39372e-15 -2.97291e-17 0 1.39361e-15 0 1.39367e-15)
(1.85795e-15 -4.16758e-17 0 1.85801e-15 0 1.85798e-15)
(1.84804e-15 -4.15052e-17 0 1.84801e-15 0 1.84803e-15)
(1.83582e-15 -4.11538e-17 0 1.83573e-15 0 1.83578e-15)
(1.82988e-15 -4.0949e-17 0 1.82972e-15 0 1.8298e-15)
(2.3971e-15 -5.55589e-17 0 2.39719e-15 0 2.39715e-15)
(2.38434e-15 -5.53593e-17 0 2.38429e-15 0 2.38432e-15)
(2.36859e-15 -5.49118e-17 0 2.36844e-15 0 2.36852e-15)
(2.36095e-15 -5.46059e-17 0 2.3607e-15 0 2.36082e-15)
(3.04718e-15 -7.19816e-17 0 3.0473e-15 0 3.04724e-15)
(3.03099e-15 -7.17904e-17 0 3.0309e-15 0 3.03095e-15)
(3.01099e-15 -7.11696e-17 0 3.01077e-15 0 3.01088e-15)
(3.0013e-15 -7.0771e-17 0 3.00094e-15 0 3.00111e-15)
(3.82444e-15 -9.09686e-17 0 3.82462e-15 0 3.82453e-15)
(3.80416e-15 -9.08268e-17 0 3.80405e-15 0 3.80411e-15)
(3.77912e-15 -8.99553e-17 0 3.77879e-15 0 3.77895e-15)
(3.76699e-15 -8.95127e-17 0 3.7665e-15 0 3.76673e-15)
(4.74729e-15 -1.12524e-16 0 4.74757e-15 0 4.74742e-15)
(4.72219e-15 -1.12399e-16 0 4.72205e-15 0 4.72212e-15)
(4.69117e-15 -1.11338e-16 0 4.6907e-15 0 4.69094e-15)
(4.67616e-15 -1.10875e-16 0 4.6755e-15 0 4.67582e-15)
(5.8366e-15 -1.3662e-16 0 5.83697e-15 0 5.83678e-15)
(5.80582e-15 -1.36517e-16 0 5.80564e-15 0 5.80573e-15)
(5.76778e-15 -1.3524e-16 0 5.76711e-15 0 5.76745e-15)
(5.74939e-15 -1.34788e-16 0 5.74852e-15 0 5.74894e-15)
(7.11592e-15 -1.6321e-16 0 7.11641e-15 0 7.11616e-15)
(7.07851e-15 -1.6315e-16 0 7.07825e-15 0 7.07838e-15)
(7.03225e-15 -1.61636e-16 0 7.03132e-15 0 7.03179e-15)
(7.0099e-15 -1.61264e-16 0 7.00878e-15 0 7.00931e-15)
(8.61188e-15 -1.92304e-16 0 8.61254e-15 0 8.6122e-15)
(8.56674e-15 -1.92295e-16 0 8.56642e-15 0 8.56659e-15)
(8.51092e-15 -1.90514e-16 0 8.50968e-15 0 8.51031e-15)
(8.48397e-15 -1.90309e-16 0 8.48256e-15 0 8.48324e-15)
(1.03546e-14 -2.23991e-16 0 1.03555e-14 0 1.0355e-14)
(1.03005e-14 -2.24074e-16 0 1.03001e-14 0 1.03003e-14)
(1.02336e-14 -2.22019e-16 0 1.0232e-14 0 1.02328e-14)
(1.02013e-14 -2.22125e-16 0 1.01996e-14 0 1.02004e-14)
(1.23782e-14 -2.58554e-16 0 1.23793e-14 0 1.23787e-14)
(1.23137e-14 -2.58726e-16 0 1.23132e-14 0 1.23135e-14)
(1.22341e-14 -2.56384e-16 0 1.22319e-14 0 1.2233e-14)
(1.21956e-14 -2.57023e-16 0 1.21935e-14 0 1.21945e-14)
(1.47211e-14 -2.96514e-16 0 1.47225e-14 0 1.47218e-14)
(1.46447e-14 -2.96743e-16 0 1.46441e-14 0 1.46444e-14)
(1.45504e-14 -2.94191e-16 0 1.45477e-14 0 1.4549e-14)
(1.45048e-14 -2.9569e-16 0 1.45023e-14 0 1.45035e-14)
(1.7427e-14 -3.38952e-16 0 1.74288e-14 0 1.74279e-14)
(1.7337e-14 -3.39113e-16 0 1.73363e-14 0 1.73366e-14)
(1.72258e-14 -3.3637e-16 0 1.72224e-14 0 1.72241e-14)
(1.71719e-14 -3.39195e-16 0 1.71692e-14 0 1.71704e-14)
(2.05453e-14 -3.87507e-16 0 2.05476e-14 0 2.05464e-14)
(2.04397e-14 -3.87384e-16 0 2.04388e-14 0 2.04393e-14)
(2.03092e-14 -3.84611e-16 0 2.0305e-14 0 2.03072e-14)
(2.02459e-14 -3.89339e-16 0 2.02429e-14 0 2.02442e-14)
(2.41322e-14 -4.45335e-16 0 2.41348e-14 0 2.41335e-14)
(2.40087e-14 -4.4412e-16 0 2.40075e-14 0 2.40082e-14)
(2.38561e-14 -4.41279e-16 0 2.38512e-14 0 2.38536e-14)
(2.37818e-14 -4.48598e-16 0 2.37788e-14 0 2.37802e-14)
(2.8251e-14 -5.16275e-16 0 2.82543e-14 0 2.82525e-14)
(2.8107e-14 -5.12652e-16 0 2.81058e-14 0 2.81064e-14)
(2.79294e-14 -5.10044e-16 0 2.79235e-14 0 2.79265e-14)
(2.78425e-14 -5.21125e-16 0 2.78398e-14 0 2.78409e-14)
(3.2974e-14 -6.07268e-16 0 3.29775e-14 0 3.29757e-14)
(3.28068e-14 -5.98495e-16 0 3.28051e-14 0 3.2806e-14)
(3.26005e-14 -5.96365e-16 0 3.25935e-14 0 3.25973e-14)
(3.2499e-14 -6.11867e-16 0 3.24972e-14 0 3.24977e-14)
(3.83833e-14 -7.2252e-16 0 3.83864e-14 0 3.83849e-14)
(3.81894e-14 -6.94677e-16 0 3.8187e-14 0 3.81883e-14)
(3.79501e-14 -7.03401e-16 0 3.7943e-14 0 3.79465e-14)
(3.78321e-14 -7.28324e-16 0 3.78318e-14 0 3.78315e-14)
(4.45731e-14 -8.74211e-16 0 4.45751e-14 0 4.45735e-14)
(4.43485e-14 -8.29264e-16 0 4.43451e-14 0 4.43469e-14)
(4.40712e-14 -8.50638e-16 0 4.40645e-14 0 4.4068e-14)
(4.39345e-14 -8.85784e-16 0 4.39364e-14 0 4.39352e-14)
(5.16488e-14 -1.0832e-15 0 5.16477e-14 0 5.16482e-14)
(5.13894e-14 -1.04307e-15 0 5.13836e-14 0 5.13872e-14)
(5.10682e-14 -1.06321e-15 0 5.10635e-14 0 5.10655e-14)
(5.09104e-14 -1.10215e-15 0 5.09153e-14 0 5.09129e-14)
(5.97298e-14 -1.36721e-15 0 5.97269e-14 0 5.97281e-14)
(5.9431e-14 -1.33308e-15 0 5.94243e-14 0 5.94282e-14)
(5.90608e-14 -1.35246e-15 0 5.9058e-14 0 5.90589e-14)
(5.88785e-14 -1.39472e-15 0 5.88879e-14 0 5.88833e-14)
(6.89542e-14 -1.75481e-15 0 6.89494e-14 0 6.89513e-14)
(6.86108e-14 -1.72592e-15 0 6.86032e-14 0 6.86075e-14)
(6.81855e-14 -1.74554e-15 0 6.81843e-14 0 6.81846e-14)
(6.7975e-14 -1.78834e-15 0 6.79898e-14 0 6.79825e-14)
(7.94793e-14 -2.27959e-15 0 7.94715e-14 0 7.94752e-14)
(7.90855e-14 -2.25534e-15 0 7.90762e-14 0 7.90819e-14)
(7.85972e-14 -2.27668e-15 0 7.85996e-14 0 7.85977e-14)
(7.83553e-14 -2.31825e-15 0 7.83763e-14 0 7.83659e-14)
(9.14834e-14 -2.98845e-15 0 9.14744e-14 0 9.14782e-14)
(9.10329e-14 -2.96777e-15 0 9.10237e-14 0 9.10291e-14)
(9.04743e-14 -2.99146e-15 0 9.04801e-14 0 9.04765e-14)
(9.01965e-14 -3.02798e-15 0 9.02244e-14 0 9.02106e-14)
(1.05173e-13 -3.93658e-15 0 1.05161e-13 0 1.05166e-13)
(1.04658e-13 -3.91766e-15 0 1.04648e-13 0 1.04654e-13)
(1.0402e-13 -3.94592e-15 0 1.0403e-13 0 1.04024e-13)
(1.03702e-13 -3.97485e-15 0 1.03737e-13 0 1.03719e-13)
(1.20781e-13 -5.19449e-15 0 1.20768e-13 0 1.20774e-13)
(1.20194e-13 -5.17615e-15 0 1.20185e-13 0 1.20191e-13)
(1.19466e-13 -5.20968e-15 0 1.19482e-13 0 1.19473e-13)
(1.19102e-13 -5.22773e-15 0 1.19146e-13 0 1.19124e-13)
(1.38578e-13 -6.84608e-15 0 1.38564e-13 0 1.3857e-13)
(1.37909e-13 -6.82672e-15 0 1.37902e-13 0 1.37907e-13)
(1.3708e-13 -6.8682e-15 0 1.37102e-13 0 1.3709e-13)
(1.36665e-13 -6.87235e-15 0 1.36717e-13 0 1.36691e-13)
(1.58872e-13 -8.9942e-15 0 1.58857e-13 0 1.58863e-13)
(1.58111e-13 -8.96876e-15 0 1.58106e-13 0 1.58111e-13)
(1.57168e-13 -9.01868e-15 0 1.57198e-13 0 1.57182e-13)
(1.56696e-13 -9.00707e-15 0 1.56756e-13 0 1.56726e-13)
(1.82018e-13 -1.17592e-14 0 1.82002e-13 0 1.82009e-13)
(1.81153e-13 -1.1719e-14 0 1.81153e-13 0 1.81155e-13)
(1.80081e-13 -1.17785e-14 0 1.80121e-13 0 1.80099e-13)
(1.79546e-13 -1.17517e-14 0 1.79613e-13 0 1.7958e-13)
(2.08426e-13 -1.52812e-14 0 2.08408e-13 0 2.08416e-13)
(2.07443e-13 -1.5224e-14 0 2.07448e-13 0 2.07448e-13)
(2.06226e-13 -1.52902e-14 0 2.06276e-13 0 2.0625e-13)
(2.05618e-13 -1.52371e-14 0 2.05694e-13 0 2.05656e-13)
(2.38568e-13 -1.9719e-14 0 2.38547e-13 0 2.38556e-13)
(2.37451e-13 -1.9646e-14 0 2.37463e-13 0 2.3746e-13)
(2.3607e-13 -1.97171e-14 0 2.36133e-13 0 2.36099e-13)
(2.35381e-13 -1.96216e-14 0 2.35464e-13 0 2.35423e-13)
(2.72986e-13 -2.52406e-14 0 2.72965e-13 0 2.72973e-13)
(2.71719e-13 -2.51643e-14 0 2.71742e-13 0 2.71733e-13)
(2.70153e-13 -2.52464e-14 0 2.7023e-13 0 2.70189e-13)
(2.69375e-13 -2.50759e-14 0 2.69462e-13 0 2.69419e-13)
(3.12316e-13 -3.20531e-14 0 3.12287e-13 0 3.12301e-13)
(3.10877e-13 -3.19771e-14 0 3.10911e-13 0 3.10898e-13)
(3.09104e-13 -3.20237e-14 0 3.09189e-13 0 3.09147e-13)
(3.08222e-13 -3.174e-14 0 3.08314e-13 0 3.08268e-13)
(3.57288e-13 -4.0228e-14 0 3.57257e-13 0 3.57273e-13)
(3.55657e-13 -4.00908e-14 0 3.55709e-13 0 3.55685e-13)
(3.53651e-13 -4.00723e-14 0 3.53745e-13 0 3.53698e-13)
(3.52652e-13 -3.9775e-14 0 3.52748e-13 0 3.52699e-13)
(4.08766e-13 -4.99961e-14 0 4.08731e-13 0 4.08748e-13)
(4.06918e-13 -4.97656e-14 0 4.06991e-13 0 4.06953e-13)
(4.04645e-13 -4.97071e-14 0 4.04753e-13 0 4.04699e-13)
(4.03517e-13 -4.94626e-14 0 4.03615e-13 0 4.03566e-13)
(4.6776e-13 -6.1628e-14 0 4.67718e-13 0 4.6774e-13)
(4.65671e-13 -6.13444e-14 0 4.65756e-13 0 4.65714e-13)
(4.63091e-13 -6.12201e-14 0 4.63213e-13 0 4.63153e-13)
(4.61815e-13 -6.09603e-14 0 4.61919e-13 0 4.61867e-13)
(5.35455e-13 -7.53075e-14 0 5.35414e-13 0 5.35434e-13)
(5.33097e-13 -7.49718e-14 0 5.33199e-13 0 5.33148e-13)
(5.30166e-13 -7.47685e-14 0 5.30309e-13 0 5.30236e-13)
(5.28728e-13 -7.44732e-14 0 5.28832e-13 0 5.2878e-13)
(6.13257e-13 -9.12568e-14 0 6.13215e-13 0 6.13235e-13)
(6.10598e-13 -9.08807e-14 0 6.10716e-13 0 6.10656e-13)
(6.07267e-13 -9.05806e-14 0 6.07425e-13 0 6.07346e-13)
(6.05644e-13 -9.02471e-14 0 6.05746e-13 0 6.05696e-13)
(7.02829e-13 -1.09711e-13 0 7.02787e-13 0 7.02809e-13)
(6.99834e-13 -1.09291e-13 0 6.99963e-13 0 6.999e-13)
(6.96045e-13 -1.0889e-13 0 6.96218e-13 0 6.96131e-13)
(6.94211e-13 -1.08507e-13 0 6.94314e-13 0 6.94262e-13)
(8.06156e-13 -1.30894e-13 0 8.06118e-13 0 8.06137e-13)
(8.02779e-13 -1.30452e-13 0 8.02928e-13 0 8.02854e-13)
(7.98466e-13 -1.29939e-13 0 7.98657e-13 0 7.98562e-13)
(7.96396e-13 -1.29517e-13 0 7.96498e-13 0 7.96447e-13)
(9.25615e-13 -1.55069e-13 0 9.25585e-13 0 9.256e-13)
(9.21808e-13 -1.54594e-13 0 9.2198e-13 0 9.21894e-13)
(9.16895e-13 -1.53995e-13 0 9.17103e-13 0 9.16999e-13)
(9.14557e-13 -1.53546e-13 0 9.14657e-13 0 9.14607e-13)
(1.06408e-12 -1.82458e-13 0 1.06406e-12 0 1.06407e-12)
(1.05978e-12 -1.81962e-13 0 1.05998e-12 0 1.05988e-12)
(1.05418e-12 -1.81296e-13 0 1.05441e-12 0 1.05429e-12)
(1.05154e-12 -1.80872e-13 0 1.05164e-12 0 1.05159e-12)
(1.22504e-12 -2.13358e-13 0 1.22503e-12 0 1.22504e-12)
(1.22019e-12 -2.1279e-13 0 1.22041e-12 0 1.2203e-12)
(1.21377e-12 -2.12113e-13 0 1.21403e-12 0 1.2139e-12)
(1.21079e-12 -2.1178e-13 0 1.2109e-12 0 1.21084e-12)
(1.41277e-12 -2.48014e-13 0 1.41277e-12 0 1.41277e-12)
(1.40727e-12 -2.47362e-13 0 1.40755e-12 0 1.40741e-12)
(1.39991e-12 -2.46715e-13 0 1.40022e-12 0 1.40006e-12)
(1.39655e-12 -2.46571e-13 0 1.39666e-12 0 1.39661e-12)
(1.63254e-12 -2.86784e-13 0 1.63255e-12 0 1.63254e-12)
(1.62631e-12 -2.85935e-13 0 1.62664e-12 0 1.62647e-12)
(1.61783e-12 -2.85357e-13 0 1.6182e-12 0 1.61801e-12)
(1.61403e-12 -2.85616e-13 0 1.61416e-12 0 1.61409e-12)
(1.89094e-12 -3.29865e-13 0 1.89092e-12 0 1.89094e-12)
(1.88386e-12 -3.28772e-13 0 1.8842e-12 0 1.88404e-12)
(1.87404e-12 -3.28203e-13 0 1.87449e-12 0 1.87426e-12)
(1.86972e-12 -3.29066e-13 0 1.86991e-12 0 1.86981e-12)
(2.19621e-12 -3.81905e-13 0 2.19618e-12 0 2.1962e-12)
(2.18816e-12 -3.80088e-13 0 2.18855e-12 0 2.18836e-12)
(2.17673e-12 -3.7907e-13 0 2.17728e-12 0 2.17701e-12)
(2.17179e-12 -3.80594e-13 0 2.17204e-12 0 2.17193e-12)
(2.5588e-12 -6.05399e-13 0 2.55874e-12 0 2.55877e-12)
(2.54968e-12 -6.00712e-13 0 2.54997e-12 0 2.54988e-12)
(2.53631e-12 -5.95929e-13 0 2.53683e-12 0 2.53666e-12)
(2.5306e-12 -5.96403e-13 0 2.53088e-12 0 2.53079e-12)
(1.4803e-16 -1.67193e-20 0 1.4803e-16 0 1.4803e-16)
(1.4803e-16 -1.67167e-20 0 1.4803e-16 0 1.4803e-16)
(1.4803e-16 -1.67801e-20 0 1.4803e-16 0 1.4803e-16)
(1.4803e-16 -1.67791e-20 0 1.4803e-16 0 1.4803e-16)
(1.4803e-16 -8.92352e-20 0 1.4803e-16 0 1.4803e-16)
(1.4803e-16 -8.92729e-20 0 1.4803e-16 0 1.4803e-16)
(1.4803e-16 -8.95689e-20 0 1.4803e-16 0 1.4803e-16)
(1.4803e-16 -8.95305e-20 0 1.4803e-16 0 1.4803e-16)
(1.4803e-16 -2.40652e-19 0 1.4803e-16 0 1.4803e-16)
(1.4803e-16 -2.40889e-19 0 1.4803e-16 0 1.4803e-16)
(1.4803e-16 -2.41642e-19 0 1.4803e-16 0 1.4803e-16)
(1.4803e-16 -2.4164e-19 0 1.4803e-16 0 1.4803e-16)
(1.4803e-16 -4.68911e-19 0 1.4803e-16 0 1.4803e-16)
(1.4803e-16 -4.69537e-19 0 1.4803e-16 0 1.4803e-16)
(1.4803e-16 -4.70947e-19 0 1.4803e-16 0 1.4803e-16)
(1.4803e-16 -4.71113e-19 0 1.4803e-16 0 1.4803e-16)
(1.4803e-16 -7.59534e-19 0 1.48029e-16 0 1.4803e-16)
(1.48029e-16 -7.60639e-19 0 1.4803e-16 0 1.4803e-16)
(1.4803e-16 -7.62824e-19 0 1.4803e-16 0 1.4803e-16)
(1.4803e-16 -7.63267e-19 0 1.4803e-16 0 1.4803e-16)
(1.4803e-16 -1.08859e-18 0 1.48029e-16 0 1.4803e-16)
(1.48029e-16 -1.09017e-18 0 1.4803e-16 0 1.4803e-16)
(1.48029e-16 -1.09317e-18 0 1.4803e-16 0 1.4803e-16)
(1.48029e-16 -1.09397e-18 0 1.4803e-16 0 1.4803e-16)
(1.48031e-16 -1.43612e-18 0 1.48029e-16 0 1.4803e-16)
(1.48029e-16 -1.43806e-18 0 1.48031e-16 0 1.4803e-16)
(1.48575e-16 -1.44718e-18 0 1.48576e-16 0 1.48575e-16)
(1.48843e-16 -1.45095e-18 0 1.48844e-16 0 1.48843e-16)
(2.37321e-16 -2.86212e-18 0 2.37317e-16 0 2.37319e-16)
(2.39064e-16 -2.88666e-18 0 2.39069e-16 0 2.39066e-16)
(2.40469e-16 -2.91098e-18 0 2.40473e-16 0 2.40471e-16)
(2.40922e-16 -2.91869e-18 0 2.40924e-16 0 2.40923e-16)
(3.64464e-16 -5.22497e-18 0 3.64456e-16 0 3.64461e-16)
(3.67185e-16 -5.26935e-18 0 3.67195e-16 0 3.6719e-16)
(3.69385e-16 -5.31377e-18 0 3.69392e-16 0 3.69388e-16)
(3.70095e-16 -5.32768e-18 0 3.701e-16 0 3.70098e-16)
(5.35346e-16 -8.80928e-18 0 5.35331e-16 0 5.35339e-16)
(5.39363e-16 -8.88242e-18 0 5.39381e-16 0 5.39372e-16)
(5.42621e-16 -8.95639e-18 0 5.42636e-16 0 5.42628e-16)
(5.4368e-16 -8.97934e-18 0 5.4369e-16 0 5.43685e-16)
(7.5806e-16 -1.39188e-17 0 7.58033e-16 0 7.58048e-16)
(7.63748e-16 -1.40303e-17 0 7.63782e-16 0 7.63764e-16)
(7.68379e-16 -1.41444e-17 0 7.68407e-16 0 7.68393e-16)
(7.69899e-16 -1.41805e-17 0 7.69917e-16 0 7.69908e-16)
(1.04166e-15 -2.08477e-17 0 1.04161e-15 0 1.04164e-15)
(1.04945e-15 -2.1009e-17 0 1.04951e-15 0 1.04948e-15)
(1.05583e-15 -2.1171e-17 0 1.05588e-15 0 1.05585e-15)
(1.05794e-15 -2.12245e-17 0 1.05797e-15 0 1.05796e-15)
(1.39626e-15 -2.98601e-17 0 1.39619e-15 0 1.39623e-15)
(1.40667e-15 -3.00828e-17 0 1.40676e-15 0 1.40672e-15)
(1.41522e-15 -3.02975e-17 0 1.4153e-15 0 1.41526e-15)
(1.41809e-15 -3.03727e-17 0 1.41813e-15 0 1.41811e-15)
(1.83321e-15 -4.1179e-17 0 1.8331e-15 0 1.83316e-15)
(1.8468e-15 -4.149e-17 0 1.84695e-15 0 1.84687e-15)
(1.85803e-15 -4.17471e-17 0 1.85815e-15 0 1.85809e-15)
(1.86184e-15 -4.18397e-17 0 1.86191e-15 0 1.86188e-15)
(2.36521e-15 -5.49657e-17 0 2.36507e-15 0 2.36515e-15)
(2.38266e-15 -5.54133e-17 0 2.38289e-15 0 2.38276e-15)
(2.39713e-15 -5.57257e-17 0 2.39732e-15 0 2.39723e-15)
(2.40211e-15 -5.58201e-17 0 2.40222e-15 0 2.40216e-15)
(3.0067e-15 -7.13321e-17 0 3.00651e-15 0 3.00661e-15)
(3.02874e-15 -7.18826e-17 0 3.02906e-15 0 3.02889e-15)
(3.04712e-15 -7.22858e-17 0 3.04739e-15 0 3.04725e-15)
(3.05353e-15 -7.23713e-17 0 3.05368e-15 0 3.0536e-15)
(3.77374e-15 -9.03439e-17 0 3.77348e-15 0 3.77362e-15)
(3.8012e-15 -9.0908e-17 0 3.80168e-15 0 3.80141e-15)
(3.82425e-15 -9.14012e-17 0 3.82463e-15 0 3.82444e-15)
(3.83241e-15 -9.14804e-17 0 3.8326e-15 0 3.83251e-15)
(4.68451e-15 -1.11986e-16 0 4.68416e-15 0 4.68435e-15)
(4.71836e-15 -1.12578e-16 0 4.71897e-15 0 4.71866e-15)
(4.74692e-15 -1.1319e-16 0 4.74742e-15 0 4.74719e-15)
(4.7572e-15 -1.13262e-16 0 4.75744e-15 0 4.75732e-15)
(5.75961e-15 -1.36271e-16 0 5.75914e-15 0 5.75941e-15)
(5.8009e-15 -1.36896e-16 0 5.80171e-15 0 5.80131e-15)
(5.83597e-15 -1.376e-16 0 5.83663e-15 0 5.83632e-15)
(5.8488e-15 -1.37625e-16 0 5.84909e-15 0 5.84895e-15)
(7.02229e-15 -1.632e-16 0 7.02172e-15 0 7.02204e-15)
(7.07222e-15 -1.63815e-16 0 7.07336e-15 0 7.07275e-15)
(7.11491e-15 -1.64555e-16 0 7.11582e-15 0 7.11538e-15)
(7.13081e-15 -1.64491e-16 0 7.13117e-15 0 7.13099e-15)
(8.49889e-15 -1.92886e-16 0 8.49819e-15 0 8.49859e-15)
(8.55882e-15 -1.93469e-16 0 8.56028e-15 0 8.55951e-15)
(8.61038e-15 -1.94119e-16 0 8.61157e-15 0 8.611e-15)
(8.62994e-15 -1.93899e-16 0 8.63037e-15 0 8.63015e-15)
(1.02192e-14 -2.25526e-16 0 1.02183e-14 0 1.02188e-14)
(1.02906e-14 -2.2596e-16 0 1.02925e-14 0 1.02915e-14)
(1.03525e-14 -2.26339e-16 0 1.0354e-14 0 1.03533e-14)
(1.03764e-14 -2.25905e-16 0 1.03769e-14 0 1.03766e-14)
(1.22168e-14 -2.61558e-16 0 1.22158e-14 0 1.22164e-14)
(1.23014e-14 -2.61708e-16 0 1.23038e-14 0 1.23025e-14)
(1.23752e-14 -2.61547e-16 0 1.23771e-14 0 1.23762e-14)
(1.24043e-14 -2.60827e-16 0 1.24048e-14 0 1.24046e-14)
(1.45299e-14 -3.01722e-16 0 1.45287e-14 0 1.45294e-14)
(1.46296e-14 -3.01326e-16 0 1.46324e-14 0 1.46309e-14)
(1.47172e-14 -3.00323e-16 0 1.47194e-14 0 1.47184e-14)
(1.47523e-14 -2.99301e-16 0 1.47529e-14 0 1.47526e-14)
(1.72017e-14 -3.47256e-16 0 1.72001e-14 0 1.72011e-14)
(1.73185e-14 -3.45986e-16 0 1.73218e-14 0 1.73201e-14)
(1.74219e-14 -3.43681e-16 0 1.74246e-14 0 1.74233e-14)
(1.74642e-14 -3.42366e-16 0 1.74647e-14 0 1.74644e-14)
(2.02808e-14 -4.00107e-16 0 2.02792e-14 0 2.02801e-14)
(2.04171e-14 -3.97596e-16 0 2.04212e-14 0 2.0419e-14)
(2.05387e-14 -3.93607e-16 0 2.05419e-14 0 2.05404e-14)
(2.05894e-14 -3.92043e-16 0 2.05899e-14 0 2.05897e-14)
(2.38229e-14 -4.63215e-16 0 2.38208e-14 0 2.38221e-14)
(2.39815e-14 -4.59201e-16 0 2.39858e-14 0 2.39835e-14)
(2.41238e-14 -4.52741e-16 0 2.41273e-14 0 2.41257e-14)
(2.41843e-14 -4.5135e-16 0 2.41846e-14 0 2.41845e-14)
(2.78906e-14 -5.40653e-16 0 2.78883e-14 0 2.78898e-14)
(2.80744e-14 -5.34862e-16 0 2.80792e-14 0 2.80765e-14)
(2.82404e-14 -5.2636e-16 0 2.82443e-14 0 2.82425e-14)
(2.83123e-14 -5.25588e-16 0 2.83125e-14 0 2.83124e-14)
(3.25552e-14 -6.38034e-16 0 3.2553e-14 0 3.25544e-14)
(3.27675e-14 -6.31188e-16 0 3.2773e-14 0 3.27697e-14)
(3.29606e-14 -6.21072e-16 0 3.29651e-14 0 3.29629e-14)
(3.3046e-14 -6.22391e-16 0 3.30459e-14 0 3.30458e-14)
(3.78981e-14 -7.66559e-16 0 3.7895e-14 0 3.78974e-14)
(3.81426e-14 -7.63847e-16 0 3.81475e-14 0 3.81448e-14)
(3.83661e-14 -7.43852e-16 0 3.83711e-14 0 3.83687e-14)
(3.84674e-14 -7.51149e-16 0 3.84663e-14 0 3.84669e-14)
(4.40106e-14 -9.33952e-16 0 4.401e-14 0 4.40106e-14)
(4.42923e-14 -9.33434e-16 0 4.42976e-14 0 4.42944e-14)
(4.45506e-14 -8.95937e-16 0 4.45569e-14 0 4.45534e-14)
(4.46707e-14 -9.08273e-16 0 4.46686e-14 0 4.46695e-14)
(5.09985e-14 -1.15068e-15 0 5.10001e-14 0 5.09992e-14)
(5.13229e-14 -1.14289e-15 0 5.13257e-14 0 5.13242e-14)
(5.16204e-14 -1.09848e-15 0 5.16261e-14 0 5.1623e-14)
(5.17614e-14 -1.10957e-15 0 5.17579e-14 0 5.17598e-14)
(5.89812e-14 -1.44092e-15 0 5.89838e-14 0 5.89826e-14)
(5.9353e-14 -1.42599e-15 0 5.93529e-14 0 5.93532e-14)
(5.96952e-14 -1.38375e-15 0 5.96997e-14 0 5.96975e-14)
(5.98604e-14 -1.39265e-15 0 5.98552e-14 0 5.98581e-14)
(6.80943e-14 -1.83032e-15 0 6.80988e-14 0 6.80962e-14)
(6.8519e-14 -1.81156e-15 0 6.85167e-14 0 6.85177e-14)
(6.89121e-14 -1.76939e-15 0 6.8916e-14 0 6.8914e-14)
(6.91053e-14 -1.7767e-15 0 6.90991e-14 0 6.91023e-14)
(7.84941e-14 -2.35368e-15 0 7.84986e-14 0 7.84965e-14)
(7.89782e-14 -2.33448e-15 0 7.8971e-14 0 7.8975e-14)
(7.94286e-14 -2.29163e-15 0 7.94309e-14 0 7.94298e-14)
(7.96544e-14 -2.29678e-15 0 7.96458e-14 0 7.96504e-14)
(9.03575e-14 -3.05474e-15 0 9.03626e-14 0 9.03602e-14)
(9.09077e-14 -3.04138e-15 0 9.08966e-14 0 9.0902e-14)
(9.14234e-14 -2.99565e-15 0 9.14242e-14 0 9.14237e-14)
(9.16866e-14 -2.99808e-15 0 9.16765e-14 0 9.16818e-14)
(1.03887e-13 -3.99069e-15 0 1.03894e-13 0 1.0389e-13)
(1.04512e-13 -3.98652e-15 0 1.04495e-13 0 1.04504e-13)
(1.05102e-13 -3.93834e-15 0 1.051e-13 0 1.05101e-13)
(1.05408e-13 -3.93973e-15 0 1.05396e-13 0 1.05402e-13)
(1.19317e-13 -5.22998e-15 0 1.19323e-13 0 1.1932e-13)
(1.20025e-13 -5.23861e-15 0 1.20001e-13 0 1.20013e-13)
(1.20699e-13 -5.19098e-15 0 1.20693e-13 0 1.20696e-13)
(1.21054e-13 -5.19296e-15 0 1.2104e-13 0 1.21047e-13)
(1.36912e-13 -6.85826e-15 0 1.36919e-13 0 1.36916e-13)
(1.37713e-13 -6.88562e-15 0 1.37681e-13 0 1.37697e-13)
(1.38482e-13 -6.84115e-15 0 1.38472e-13 0 1.38477e-13)
(1.38895e-13 -6.84301e-15 0 1.38878e-13 0 1.38887e-13)
(1.5698e-13 -8.97519e-15 0 1.56987e-13 0 1.56983e-13)
(1.57883e-13 -9.02965e-15 0 1.57844e-13 0 1.57863e-13)
(1.58762e-13 -8.9932e-15 0 1.58746e-13 0 1.58753e-13)
(1.5924e-13 -8.99399e-15 0 1.5922e-13 0 1.59231e-13)
(1.79872e-13 -1.1703e-14 0 1.79877e-13 0 1.79875e-13)
(1.8089e-13 -1.17923e-14 0 1.8084e-13 0 1.80865e-13)
(1.81892e-13 -1.17697e-14 0 1.81869e-13 0 1.8188e-13)
(1.82446e-13 -1.17694e-14 0 1.82423e-13 0 1.82435e-13)
(2.05993e-13 -1.51741e-14 0 2.05997e-13 0 2.05995e-13)
(2.07139e-13 -1.53098e-14 0 2.07077e-13 0 2.07109e-13)
(2.08281e-13 -1.53075e-14 0 2.08249e-13 0 2.08265e-13)
(2.08923e-13 -1.53076e-14 0 2.08894e-13 0 2.0891e-13)
(2.35809e-13 -1.9551e-14 0 2.35816e-13 0 2.35812e-13)
(2.37096e-13 -1.97409e-14 0 2.3703e-13 0 2.37062e-13)
(2.384e-13 -1.97556e-14 0 2.38359e-13 0 2.38379e-13)
(2.39145e-13 -1.9762e-14 0 2.3911e-13 0 2.39128e-13)
(2.69865e-13 -2.5001e-14 0 2.69869e-13 0 2.69868e-13)
(2.7131e-13 -2.52568e-14 0 2.71229e-13 0 2.7127e-13)
(2.72796e-13 -2.52968e-14 0 2.72742e-13 0 2.72769e-13)
(2.73656e-13 -2.53168e-14 0 2.73617e-13 0 2.73637e-13)
(3.08782e-13 -3.17263e-14 0 3.08791e-13 0 3.08786e-13)
(3.10401e-13 -3.20785e-14 0 3.10314e-13 0 3.10358e-13)
(3.12096e-13 -3.2108e-14 0 3.1203e-13 0 3.12063e-13)
(3.13094e-13 -3.2144e-14 0 3.13045e-13 0 3.1307e-13)
(3.53288e-13 -3.98043e-14 0 3.53312e-13 0 3.53298e-13)
(3.55103e-13 -4.02305e-14 0 3.55015e-13 0 3.55055e-13)
(3.5704e-13 -4.02934e-14 0 3.56957e-13 0 3.56998e-13)
(3.58192e-13 -4.03275e-14 0 3.58139e-13 0 3.58164e-13)
(4.04247e-13 -4.94298e-14 0 4.04272e-13 0 4.04262e-13)
(4.06281e-13 -4.98685e-14 0 4.0617e-13 0 4.0623e-13)
(4.08486e-13 -5.00366e-14 0 4.08381e-13 0 4.08435e-13)
(4.09819e-13 -5.00928e-14 0 4.09753e-13 0 4.09784e-13)
(4.62656e-13 -6.08852e-14 0 4.62692e-13 0 4.62672e-13)
(4.64926e-13 -6.13357e-14 0 4.64815e-13 0 4.6487e-13)
(4.67442e-13 -6.15833e-14 0 4.67321e-13 0 4.67382e-13)
(4.68986e-13 -6.16909e-14 0 4.68907e-13 0 4.68947e-13)
(5.29699e-13 -7.43789e-14 0 5.29739e-13 0 5.29718e-13)
(5.32231e-13 -7.48611e-14 0 5.32114e-13 0 5.32172e-13)
(5.35099e-13 -7.51944e-14 0 5.3496e-13 0 5.3503e-13)
(5.36886e-13 -7.53513e-14 0 5.36799e-13 0 5.36842e-13)
(6.06772e-13 -9.01514e-14 0 6.06811e-13 0 6.06792e-13)
(6.09595e-13 -9.06531e-14 0 6.09462e-13 0 6.09532e-13)
(6.12862e-13 -9.10768e-14 0 6.12703e-13 0 6.12784e-13)
(6.14929e-13 -9.12882e-14 0 6.14834e-13 0 6.14882e-13)
(6.95523e-13 -1.08427e-13 0 6.9557e-13 0 6.95544e-13)
(6.98667e-13 -1.08959e-13 0 6.98537e-13 0 6.98601e-13)
(7.02395e-13 -1.09479e-13 0 7.0222e-13 0 7.02308e-13)
(7.04789e-13 -1.09744e-13 0 7.04686e-13 0 7.04737e-13)
(7.97933e-13 -1.29461e-13 0 7.97977e-13 0 7.97952e-13)
(8.01435e-13 -1.29996e-13 0 8.01292e-13 0 8.01364e-13)
(8.05687e-13 -1.30622e-13 0 8.05492e-13 0 8.0559e-13)
(8.08457e-13 -1.30938e-13 0 8.08348e-13 0 8.08402e-13)
(9.16363e-13 -1.53523e-13 0 9.16401e-13 0 9.16381e-13)
(9.20265e-13 -1.5405e-13 0 9.20109e-13 0 9.20188e-13)
(9.2512e-13 -1.5477e-13 0 9.24902e-13 0 9.25012e-13)
(9.28329e-13 -1.55134e-13 0 9.2821e-13 0 9.28269e-13)
(1.05367e-12 -1.80887e-13 0 1.0537e-12 0 1.05368e-12)
(1.05802e-12 -1.81357e-13 0 1.05785e-12 0 1.05793e-12)
(1.06357e-12 -1.82184e-13 0 1.06333e-12 0 1.06345e-12)
(1.06729e-12 -1.82591e-13 0 1.06716e-12 0 1.06722e-12)
(1.21332e-12 -2.11856e-13 0 1.21334e-12 0 1.21332e-12)
(1.21817e-12 -2.12231e-13 0 1.21798e-12 0 1.21807e-12)
(1.22453e-12 -2.13124e-13 0 1.22426e-12 0 1.22439e-12)
(1.22884e-12 -2.13583e-13 0 1.2287e-12 0 1.22877e-12)
(1.39956e-12 -2.46722e-13 0 1.39956e-12 0 1.39956e-12)
(1.40498e-12 -2.46942e-13 0 1.40475e-12 0 1.40487e-12)
(1.41228e-12 -2.47883e-13 0 1.41198e-12 0 1.41213e-12)
(1.41729e-12 -2.48395e-13 0 1.41714e-12 0 1.41721e-12)
(1.61764e-12 -2.85923e-13 0 1.6176e-12 0 1.61762e-12)
(1.6237e-12 -2.85907e-13 0 1.62342e-12 0 1.62357e-12)
(1.6321e-12 -2.86788e-13 0 1.63176e-12 0 1.63193e-12)
(1.63794e-12 -2.8736e-13 0 1.63776e-12 0 1.63785e-12)
(1.87405e-12 -3.29734e-13 0 1.87401e-12 0 1.87402e-12)
(1.88087e-12 -3.29399e-13 0 1.88056e-12 0 1.8807e-12)
(1.89058e-12 -3.30104e-13 0 1.8902e-12 0 1.89038e-12)
(1.89739e-12 -3.30707e-13 0 1.89718e-12 0 1.89729e-12)
(2.17703e-12 -3.81556e-13 0 2.17696e-12 0 2.17697e-12)
(2.18471e-12 -3.81374e-13 0 2.18433e-12 0 2.1845e-12)
(2.19597e-12 -3.825e-13 0 2.19558e-12 0 2.19574e-12)
(2.20396e-12 -3.83107e-13 0 2.20373e-12 0 2.20383e-12)
(2.53689e-12 -5.98474e-13 0 2.53684e-12 0 2.53683e-12)
(2.54556e-12 -6.01644e-13 0 2.54523e-12 0 2.54532e-12)
(2.55873e-12 -6.06158e-13 0 2.55835e-12 0 2.55848e-12)
(2.56812e-12 -6.07655e-13 0 2.56788e-12 0 2.56797e-12)
(2.98839e-12 -2.24764e-12 0 2.98816e-12 0 2.98825e-12)
(2.97815e-12 -2.22709e-12 0 2.97814e-12 0 2.97821e-12)
(2.96255e-12 -2.18154e-12 0 2.96276e-12 0 2.96284e-12)
(2.9558e-12 -2.13494e-12 0 2.95607e-12 0 2.95604e-12)
(3.40641e-12 -3.84717e-12 0 3.40552e-12 0 3.40587e-12)
(3.39731e-12 -3.83571e-12 0 3.39501e-12 0 3.39584e-12)
(3.38368e-12 -3.81647e-12 0 3.38015e-12 0 3.38135e-12)
(3.37908e-12 -3.81296e-12 0 3.3772e-12 0 3.3778e-12)
(3.64778e-12 -3.98659e-12 0 3.64652e-12 0 3.64721e-12)
(3.64009e-12 -3.97978e-12 0 3.63734e-12 0 3.63887e-12)
(3.63041e-12 -3.98219e-12 0 3.62673e-12 0 3.6288e-12)
(3.63166e-12 -4.00761e-12 0 3.63005e-12 0 3.63099e-12)
(3.69864e-12 -3.63685e-12 0 3.69757e-12 0 3.69812e-12)
(3.69239e-12 -3.63285e-12 0 3.69046e-12 0 3.69149e-12)
(3.68522e-12 -3.63387e-12 0 3.68302e-12 0 3.68423e-12)
(3.68897e-12 -3.65223e-12 0 3.68839e-12 0 3.68872e-12)
(3.61326e-12 -3.27373e-12 0 3.61241e-12 0 3.61281e-12)
(3.60858e-12 -3.27181e-12 0 3.60736e-12 0 3.60795e-12)
(3.60317e-12 -3.2712e-12 0 3.60214e-12 0 3.60263e-12)
(3.60728e-12 -3.28308e-12 0 3.60741e-12 0 3.60734e-12)
(3.43453e-12 -2.91651e-12 0 3.43382e-12 0 3.43417e-12)
(3.43152e-12 -2.91635e-12 0 3.43067e-12 0 3.43112e-12)
(3.42758e-12 -2.91503e-12 0 3.42709e-12 0 3.42734e-12)
(3.43095e-12 -2.92129e-12 0 3.4314e-12 0 3.43117e-12)
(3.19499e-12 -2.56831e-12 0 3.19449e-12 0 3.19473e-12)
(3.19364e-12 -2.56919e-12 0 3.19325e-12 0 3.19345e-12)
(3.19109e-12 -2.56792e-12 0 3.19101e-12 0 3.19105e-12)
(3.19347e-12 -2.57044e-12 0 3.19405e-12 0 3.19374e-12)
(2.92093e-12 -2.136e-12 0 2.9206e-12 0 2.92075e-12)
(2.92106e-12 -2.14092e-12 0 2.921e-12 0 2.92103e-12)
(2.91953e-12 -2.14569e-12 0 2.9197e-12 0 2.91961e-12)
(2.92077e-12 -2.14929e-12 0 2.9213e-12 0 2.92105e-12)
(2.63838e-12 -1.699e-12 0 2.63822e-12 0 2.63829e-12)
(2.63996e-12 -1.70348e-12 0 2.64014e-12 0 2.64006e-12)
(2.63922e-12 -1.7072e-12 0 2.63947e-12 0 2.63935e-12)
(2.63944e-12 -1.70875e-12 0 2.63987e-12 0 2.63964e-12)
(2.36365e-12 -1.35995e-12 0 2.36364e-12 0 2.36364e-12)
(2.36679e-12 -1.36403e-12 0 2.36715e-12 0 2.36698e-12)
(2.36668e-12 -1.36672e-12 0 2.36696e-12 0 2.36683e-12)
(2.3661e-12 -1.36706e-12 0 2.36636e-12 0 2.36624e-12)
(2.10567e-12 -1.10752e-12 0 2.10575e-12 0 2.10571e-12)
(2.11058e-12 -1.11147e-12 0 2.11108e-12 0 2.11083e-12)
(2.11101e-12 -1.11329e-12 0 2.11131e-12 0 2.11116e-12)
(2.10987e-12 -1.113e-12 0 2.11002e-12 0 2.10993e-12)
(1.86808e-12 -9.23146e-13 0 1.86827e-12 0 1.86816e-12)
(1.87544e-12 -9.27516e-13 0 1.87601e-12 0 1.87572e-12)
(1.87628e-12 -9.28698e-13 0 1.87655e-12 0 1.87641e-12)
(1.87477e-12 -9.28081e-13 0 1.87479e-12 0 1.87479e-12)
(1.65161e-12 -7.87057e-13 0 1.65181e-12 0 1.65171e-12)
(1.66229e-12 -7.92514e-13 0 1.66288e-12 0 1.6626e-12)
(1.6634e-12 -7.93307e-13 0 1.66361e-12 0 1.66351e-12)
(1.66168e-12 -7.92525e-13 0 1.66167e-12 0 1.66165e-12)
(1.45529e-12 -6.81918e-13 0 1.45556e-12 0 1.4554e-12)
(1.47031e-12 -6.89126e-13 0 1.47091e-12 0 1.47059e-12)
(1.47158e-12 -6.89754e-13 0 1.4718e-12 0 1.47168e-12)
(1.46979e-12 -6.88897e-13 0 1.46976e-12 0 1.4698e-12)
(1.27754e-12 -5.95118e-13 0 1.27777e-12 0 1.27766e-12)