/*--------------------------------*- C++ -*----------------------------------*\
  =========                 |
  \\      /  F ield         | OpenFOAM: The Open Source CFD Toolbox
   \\    /   O peration     | Website:  https://openfoam.org
    \\  /    A nd           | Version:  dev
     \\/     M anipulation  |

   OpenFOAM for Windows 20.09 (v1)
   Built by CFD Support, www.cfdsupport.com (based on Symscape).
\*---------------------------------------------------------------------------*/
FoamFile
{
    version     2.0;
    format      ascii;
    class       volVectorField;
    location    "10";
    object      U;
}
// * * * * * * * * * * * * * * * * * * * * * * * * * * * * * * * * * * * * * //

dimensions      [0 1 -1 0 0 0 0];

internalField   nonuniform List<vector> 
960
(
(0.00283447 1.16139e-06 0)
(0.00282796 -1.71882e-07 0)
(0.00284405 -3.15893e-08 0)
(0.00285128 -5.37537e-08 0)
(0.00810146 6.42434e-07 0)
(0.00810216 -4.56615e-07 0)
(0.00810844 -1.64646e-07 0)
(0.00811186 1.40425e-09 0)
(0.0129445 1.00716e-06 0)
(0.0129498 -4.79311e-07 0)
(0.0129491 -1.35016e-07 0)
(0.0129454 2.80584e-07 0)
(0.0173863 1.17905e-07 0)
(0.0173935 -4.93365e-07 0)
(0.0173874 1.95279e-08 0)
(0.0173754 8.3258e-07 0)
(0.0214492 1.0369e-07 0)
(0.0214566 -4.52752e-07 0)
(0.0214457 2.84678e-07 0)
(0.0214257 1.62084e-06 0)
(0.0251557 -8.21768e-07 0)
(0.0251622 -4.15936e-07 0)
(0.0251471 6.43036e-07 0)
(0.02512 2.62255e-06 0)
(0.0285282 -8.97677e-07 0)
(0.0285331 -2.90007e-07 0)
(0.0285139 1.0996e-06 0)
(0.0284808 3.78247e-06 0)
(0.0315883 -1.82e-06 0)
(0.0315917 -1.577e-07 0)
(0.0315687 1.61753e-06 0)
(0.0315307 5.08088e-06 0)
(0.0343572 -2.17316e-06 0)
(0.0343595 6.67491e-08 0)
(0.0343328 2.22623e-06 0)
(0.0342907 6.47143e-06 0)
(0.0368559 -2.91615e-06 0)
(0.0368576 2.79313e-07 0)
(0.0368275 2.86181e-06 0)
(0.036782 7.93234e-06 0)
(0.0391044 -3.50789e-06 0)
(0.0391062 5.71276e-07 0)
(0.039073 3.59002e-06 0)
(0.0390245 9.45293e-06 0)
(0.0411224 -4.03544e-06 0)
(0.0411249 8.5313e-07 0)
(0.0410886 4.32e-06 0)
(0.0410375 1.09646e-05 0)
(0.0429286 -4.89316e-06 0)
(0.0429323 1.06413e-06 0)
(0.0428925 5.14908e-06 0)
(0.042839 1.25078e-05 0)
(0.0445411 -5.22997e-06 0)
(0.0445463 1.44188e-06 0)
(0.0445035 5.96459e-06 0)
(0.0444478 1.40194e-05 0)
(0.0459765 -5.93275e-06 0)
(0.045984 1.78425e-06 0)
(0.0459386 6.91253e-06 0)
(0.0458801 1.54673e-05 0)
(0.0472513 -6.38711e-06 0)
(0.0472612 2.19033e-06 0)
(0.0472144 7.8146e-06 0)
(0.0471527 1.69673e-05 0)
(0.0483801 -6.9164e-06 0)
(0.0483941 2.54889e-06 0)
(0.0483436 8.78141e-06 0)
(0.0482797 1.8403e-05 0)
(0.0493777 -7.46233e-06 0)
(0.0493956 2.89033e-06 0)
(0.0493423 9.80517e-06 0)
(0.0492773 1.97567e-05 0)
(0.0502574 -8.16038e-06 0)
(0.0502792 3.12733e-06 0)
(0.0502233 1.08183e-05 0)
(0.0501579 2.10881e-05 0)
(0.0510324 -8.61212e-06 0)
(0.0510578 3.40677e-06 0)
(0.0509997 1.1912e-05 0)
(0.0509348 2.23252e-05 0)
(0.0517141 -9.25523e-06 0)
(0.051743 3.71067e-06 0)
(0.051683 1.29591e-05 0)
(0.0516193 2.34872e-05 0)
(0.052314 -9.7387e-06 0)
(0.0523461 3.97086e-06 0)
(0.0522845 1.40531e-05 0)
(0.0522227 2.45938e-05 0)
(0.0528421 -1.03262e-05 0)
(0.0528773 4.2515e-06 0)
(0.0528143 1.5103e-05 0)
(0.0527551 2.55797e-05 0)
(0.0533085 -1.08371e-05 0)
(0.0533463 4.4822e-06 0)
(0.0532822 1.61812e-05 0)
(0.0532264 2.65001e-05 0)
(0.0537216 -1.1392e-05 0)
(0.0537619 4.74072e-06 0)
(0.0536972 1.71789e-05 0)
(0.0536457 2.72996e-05 0)
(0.0540908 -1.19321e-05 0)
(0.054133 4.91182e-06 0)
(0.0540677 1.8165e-05 0)
(0.0540214 2.79844e-05 0)
(0.0544235 -1.24586e-05 0)
(0.0544671 5.18324e-06 0)
(0.054402 1.92132e-05 0)
(0.0543618 2.85361e-05 0)
(0.0547287 -1.28771e-05 0)
(0.0547722 5.37008e-06 0)
(0.0547072 1.99707e-05 0)
(0.0546739 2.89524e-05 0)
(0.0550127 -1.34882e-05 0)
(0.0550549 5.51736e-06 0)
(0.0549908 2.09653e-05 0)
(0.0549657 2.91844e-05 0)
(0.0552847 -1.37052e-05 0)
(0.0553228 5.8177e-06 0)
(0.0552595 2.17147e-05 0)
(0.0552428 2.92027e-05 0)
(0.0555469 -1.40462e-05 0)
(0.0555709 6.0006e-06 0)
(0.0555168 2.22894e-05 0)
(0.0555125 2.90595e-05 0)
(0.0558105 -1.41671e-05 0)
(0.0558238 6.35169e-06 0)
(0.0557769 2.2772e-05 0)
(0.0557837 2.88468e-05 0)
(0.0560804 -1.39265e-05 0)
(0.056087 6.88566e-06 0)
(0.0560464 2.27956e-05 0)
(0.0560636 2.84715e-05 0)
(0.0563653 -1.39271e-05 0)
(0.0563672 7.13485e-06 0)
(0.0563319 2.29548e-05 0)
(0.0563582 2.78901e-05 0)
(0.0566708 -1.36104e-05 0)
(0.0566703 7.61344e-06 0)
(0.0566403 2.28522e-05 0)
(0.0566743 2.72252e-05 0)
(0.0570051 -1.34086e-05 0)
(0.057003 7.94129e-06 0)
(0.0569781 2.26808e-05 0)
(0.0570185 2.64087e-05 0)
(0.0573747 -1.31558e-05 0)
(0.0573725 8.25017e-06 0)
(0.0573528 2.24167e-05 0)
(0.057398 2.55814e-05 0)
(0.0577879 -1.29261e-05 0)
(0.0577857 8.52108e-06 0)
(0.0577715 2.20935e-05 0)
(0.0578206 2.46413e-05 0)
(0.0582522 -1.26862e-05 0)
(0.058251 8.76304e-06 0)
(0.0582426 2.16651e-05 0)
(0.058294 2.3735e-05 0)
(0.0587766 -1.2479e-05 0)
(0.0587762 8.91077e-06 0)
(0.0587742 2.12138e-05 0)
(0.0588273 2.27766e-05 0)
(0.0593696 -1.22739e-05 0)
(0.0593703 9.07318e-06 0)
(0.0593752 2.06735e-05 0)
(0.0594288 2.18503e-05 0)
(0.0600412 -1.21377e-05 0)
(0.0600422 9.01087e-06 0)
(0.0600545 2.00308e-05 0)
(0.0601088 2.09635e-05 0)
(0.0608012 -1.19146e-05 0)
(0.0608031 9.04205e-06 0)
(0.0608229 1.94182e-05 0)
(0.0608762 2.00617e-05 0)
(0.0616608 -1.17807e-05 0)
(0.0616633 8.89975e-06 0)
(0.0616911 1.86266e-05 0)
(0.0617428 1.92331e-05 0)
(0.0626305 -1.16483e-05 0)
(0.0626352 8.69354e-06 0)
(0.0626718 1.7895e-05 0)
(0.0627184 1.85022e-05 0)
(0.0637245 -1.1348e-05 0)
(0.0637314 8.49299e-06 0)
(0.0637743 1.72688e-05 0)
(0.063814 1.77203e-05 0)
(0.0649536 -1.11894e-05 0)
(0.0649608 7.99352e-06 0)
(0.0650097 1.65422e-05 0)
(0.0650462 1.70603e-05 0)
(0.0663341 -1.09134e-05 0)
(0.0663405 7.5121e-06 0)
(0.0663951 1.58635e-05 0)
(0.0664299 1.64321e-05 0)
(0.0678789 -1.06576e-05 0)
(0.0678854 6.99793e-06 0)
(0.0679446 1.51041e-05 0)
(0.0679776 1.58114e-05 0)
(0.0696037 -1.0474e-05 0)
(0.0696097 6.38742e-06 0)
(0.0696733 1.42754e-05 0)
(0.069705 1.52774e-05 0)
(0.071523 -1.02397e-05 0)
(0.0715301 5.7996e-06 0)
(0.0715969 1.35225e-05 0)
(0.0716271 1.47896e-05 0)
(0.0736539 -1.00657e-05 0)
(0.0736615 5.22451e-06 0)
(0.0737317 1.266e-05 0)
(0.0737607 1.43066e-05 0)
(0.0760116 -9.90975e-06 0)
(0.0760221 4.53265e-06 0)
(0.0760946 1.18759e-05 0)
(0.0761229 1.3898e-05 0)
(0.0786151 -9.82041e-06 0)
(0.0786276 3.84724e-06 0)
(0.0787039 1.09805e-05 0)
(0.078732 1.35048e-05 0)
(0.0814795 -9.75539e-06 0)
(0.0814969 3.05281e-06 0)
(0.0815767 1.01327e-05 0)
(0.0816065 1.31508e-05 0)
(0.0846258 -9.68684e-06 0)
(0.0846454 2.36627e-06 0)
(0.0847321 9.20654e-06 0)
(0.0847659 1.2751e-05 0)
(0.0880688 -9.79015e-06 0)
(0.0880936 1.20289e-06 0)
(0.0881876 8.10418e-06 0)
(0.0882294 1.24722e-05 0)
(0.0918319 -9.81188e-06 0)
(0.0918566 2.28989e-07 0)
(0.0919621 6.7653e-06 0)
(0.0920188 1.18702e-05 0)
(0.0959278 -9.46731e-06 0)
(0.0959544 -7.28312e-07 0)
(0.0960701 5.38992e-06 0)
(0.0961493 1.12855e-05 0)
(0.100478 -9.57795e-06 0)
(0.100491 -1.86794e-06 0)
(0.100611 3.70231e-06 0)
(0.10072 1.05281e-05 0)
(0.00283845 7.45086e-08 0)
(0.0028373 -4.65327e-08 0)
(0.00284894 -4.75719e-09 0)
(0.00285023 -3.96147e-08 0)
(0.00807251 4.37575e-07 0)
(0.00807199 -3.05592e-07 0)
(0.00810168 -1.44429e-07 0)
(0.00809975 -6.5539e-08 0)
(0.0128813 1.01727e-06 0)
(0.0128844 -7.28001e-07 0)
(0.0129293 -4.00899e-07 0)
(0.0129263 -1.08754e-07 0)
(0.0172893 1.77259e-06 0)
(0.0172979 -1.31731e-06 0)
(0.0173563 -7.83795e-07 0)
(0.0173543 -3.00371e-07 0)
(0.0213211 2.64137e-06 0)
(0.0213354 -2.06885e-06 0)
(0.0214057 -1.28418e-06 0)
(0.0214056 -5.8818e-07 0)
(0.0250002 3.60805e-06 0)
(0.0250199 -2.95007e-06 0)
(0.0251005 -1.89976e-06 0)
(0.025103 -1.01641e-06 0)
(0.0283493 4.64079e-06 0)
(0.0283737 -3.96336e-06 0)
(0.0284632 -2.61203e-06 0)
(0.0284683 -1.49758e-06 0)
(0.0313902 5.72315e-06 0)
(0.0314184 -5.06759e-06 0)
(0.0315157 -3.42383e-06 0)
(0.0315234 -2.09024e-06 0)
(0.0341443 6.84272e-06 0)
(0.0341754 -6.27916e-06 0)
(0.0342795 -4.30142e-06 0)
(0.0342891 -2.68732e-06 0)
(0.0366321 7.97487e-06 0)
(0.0366652 -7.54012e-06 0)
(0.0367751 -5.26883e-06 0)
(0.0367865 -3.3764e-06 0)
(0.0388737 9.12431e-06 0)
(0.038908 -8.88062e-06 0)
(0.0390226 -6.26143e-06 0)
(0.0390353 -4.01045e-06 0)
(0.040888 1.02535e-05 0)
(0.0409225 -1.02372e-05 0)
(0.041041 -7.3452e-06 0)
(0.041055 -4.71541e-06 0)
(0.0426936 1.14409e-05 0)
(0.0427282 -1.15585e-05 0)
(0.0428488 -8.34239e-06 0)
(0.0428636 -5.33203e-06 0)
(0.0443075 1.25699e-05 0)
(0.0443413 -1.27833e-05 0)
(0.0444632 -9.43278e-06 0)
(0.0444789 -5.98511e-06 0)
(0.0457467 1.35075e-05 0)
(0.0457809 -1.45051e-05 0)
(0.0459017 -1.06719e-05 0)
(0.0459172 -6.62469e-06 0)
(0.0470258 1.44741e-05 0)
(0.0470609 -1.58698e-05 0)
(0.0471813 -1.17694e-05 0)
(0.0471962 -7.25507e-06 0)
(0.0481615 1.53179e-05 0)
(0.048196 -1.73845e-05 0)
(0.0483153 -1.29372e-05 0)
(0.0483288 -7.86372e-06 0)
(0.0491669 1.60862e-05 0)
(0.0491991 -1.89835e-05 0)
(0.0493178 -1.39771e-05 0)
(0.0493303 -8.37256e-06 0)
(0.0500559 1.69656e-05 0)
(0.0500859 -2.00475e-05 0)
(0.0502037 -1.49027e-05 0)
(0.0502147 -8.88812e-06 0)
(0.0508404 1.77482e-05 0)
(0.0508677 -2.146e-05 0)
(0.0509844 -1.58658e-05 0)
(0.0509938 -9.2629e-06 0)
(0.0515329 1.83929e-05 0)
(0.0515574 -2.27608e-05 0)
(0.0516725 -1.68656e-05 0)
(0.0516799 -9.69198e-06 0)
(0.0521441 1.90848e-05 0)
(0.0521655 -2.40397e-05 0)
(0.0522783 -1.77664e-05 0)
(0.0522836 -1.00003e-05 0)
(0.0526849 1.96728e-05 0)
(0.0527029 -2.52657e-05 0)
(0.0528124 -1.86819e-05 0)
(0.0528153 -1.02912e-05 0)
(0.0531647 2.02514e-05 0)
(0.0531789 -2.64453e-05 0)
(0.0532843 -1.9502e-05 0)
(0.0532847 -1.05269e-05 0)
(0.053593 2.07996e-05 0)
(0.0536029 -2.7522e-05 0)
(0.0537033 -2.02896e-05 0)
(0.0537013 -1.06976e-05 0)
(0.0539781 2.13366e-05 0)
(0.0539832 -2.85063e-05 0)
(0.0540776 -2.10012e-05 0)
(0.0540734 -1.08483e-05 0)
(0.0543285 2.16009e-05 0)
(0.0543283 -2.95957e-05 0)
(0.0544163 -2.16872e-05 0)
(0.05441 -1.09472e-05 0)
(0.0546516 2.22549e-05 0)
(0.0546459 -3.01096e-05 0)
(0.0547262 -2.21285e-05 0)
(0.0547187 -1.0932e-05 0)
(0.0549549 2.24582e-05 0)
(0.0549434 -3.10972e-05 0)
(0.055017 -2.27144e-05 0)
(0.0550086 -1.09873e-05 0)
(0.0552447 2.29396e-05 0)
(0.0552283 -3.1613e-05 0)
(0.0552949 -2.31085e-05 0)
(0.0552874 -1.09561e-05 0)
(0.0555304 2.33946e-05 0)
(0.0555126 -3.20786e-05 0)
(0.0555671 -2.35965e-05 0)
(0.0555629 -1.0758e-05 0)
(0.0558151 2.31425e-05 0)
(0.0557942 -3.2604e-05 0)
(0.0558338 -2.41433e-05 0)
(0.0558326 -1.06623e-05 0)
(0.0561058 2.31761e-05 0)
(0.05608 -3.24398e-05 0)
(0.0561082 -2.43512e-05 0)
(0.0561083 -1.02932e-05 0)
(0.0564087 2.2899e-05 0)
(0.0563775 -3.25523e-05 0)
(0.0563955 -2.45925e-05 0)
(0.0563967 -1.00695e-05 0)
(0.0567308 2.27332e-05 0)
(0.0566944 -3.22604e-05 0)
(0.0567037 -2.46916e-05 0)
(0.056705 -9.75402e-06 0)
(0.0570789 2.26017e-05 0)
(0.0570379 -3.19871e-05 0)
(0.0570389 -2.47466e-05 0)
(0.05704 -9.4257e-06 0)
(0.0574607 2.24384e-05 0)
(0.0574163 -3.16163e-05 0)
(0.0574096 -2.47552e-05 0)
(0.0574097 -9.13635e-06 0)
(0.0578838 2.22779e-05 0)
(0.0578368 -3.11393e-05 0)
(0.0578226 -2.46704e-05 0)
(0.0578219 -8.79822e-06 0)
(0.0583565 2.21759e-05 0)
(0.0583082 -3.05938e-05 0)
(0.0582872 -2.45313e-05 0)
(0.0582852 -8.47536e-06 0)
(0.0588878 2.2031e-05 0)
(0.0588388 -2.99756e-05 0)
(0.0588113 -2.43139e-05 0)
(0.0588082 -8.16566e-06 0)
(0.0594865 2.19242e-05 0)
(0.0594384 -2.93816e-05 0)
(0.0594054 -2.40614e-05 0)
(0.0594004 -7.81847e-06 0)
(0.0601629 2.19138e-05 0)
(0.0601165 -2.85988e-05 0)
(0.0600783 -2.36973e-05 0)
(0.0600714 -7.52609e-06 0)
(0.0609266 2.18762e-05 0)
(0.0608835 -2.78516e-05 0)
(0.0608411 -2.32928e-05 0)
(0.0608318 -7.09533e-06 0)
(0.0617895 2.17458e-05 0)
(0.0617502 -2.72839e-05 0)
(0.061703 -2.28718e-05 0)
(0.0616917 -6.7659e-06 0)
(0.0627615 2.18361e-05 0)
(0.0627279 -2.63297e-05 0)
(0.062677 -2.23215e-05 0)
(0.0626634 -6.37088e-06 0)
(0.0638577 2.16006e-05 0)
(0.0638312 -2.58656e-05 0)
(0.0637734 -2.17988e-05 0)
(0.0637578 -5.97957e-06 0)
(0.0650886 2.14179e-05 0)
(0.0650688 -2.5177e-05 0)
(0.0650077 -2.11351e-05 0)
(0.0649886 -5.66031e-06 0)
(0.0664692 2.132e-05 0)
(0.0664539 -2.42867e-05 0)
(0.0663896 -2.03999e-05 0)
(0.0663684 -5.16672e-06 0)
(0.0680132 2.09498e-05 0)
(0.0680023 -2.38459e-05 0)
(0.0679363 -1.96774e-05 0)
(0.0679124 -4.71791e-06 0)
(0.0697365 2.0848e-05 0)
(0.0697288 -2.30095e-05 0)
(0.0696607 -1.8868e-05 0)
(0.0696352 -4.23172e-06 0)
(0.0716548 2.05635e-05 0)
(0.0716496 -2.24372e-05 0)
(0.0715805 -1.80675e-05 0)
(0.0715527 -3.76573e-06 0)
(0.0737846 2.03559e-05 0)
(0.0737813 -2.18202e-05 0)
(0.0737106 -1.72475e-05 0)
(0.073681 -3.29402e-06 0)
(0.0761432 2.01371e-05 0)
(0.0761403 -2.11948e-05 0)
(0.0760691 -1.63797e-05 0)
(0.0760367 -2.83558e-06 0)
(0.0787489 2.00232e-05 0)
(0.0787455 -2.05455e-05 0)
(0.0786724 -1.54866e-05 0)
(0.0786375 -2.35285e-06 0)
(0.0816201 1.98552e-05 0)
(0.0816134 -1.98906e-05 0)
(0.0815396 -1.45666e-05 0)
(0.0815009 -1.90145e-06 0)
(0.0847766 1.97925e-05 0)
(0.0847651 -1.92479e-05 0)
(0.0846879 -1.35774e-05 0)
(0.0846457 -1.3639e-06 0)
(0.0882375 1.98774e-05 0)
(0.0882172 -1.83018e-05 0)
(0.0881371 -1.25224e-05 0)
(0.0880902 -8.83395e-07 0)
(0.0920262 2.01086e-05 0)
(0.0919943 -1.73221e-05 0)
(0.0919059 -1.13921e-05 0)
(0.0918546 -2.36113e-07 0)
(0.0961607 1.99219e-05 0)
(0.0961118 -1.66296e-05 0)
(0.0960132 -1.03311e-05 0)
(0.0959557 4.23705e-07 0)
(0.100734 2.02891e-05 0)
(0.100677 -1.54754e-05 0)
(0.100576 -9.53112e-06 0)
(0.100512 9.29958e-07 0)
(0.108978 -9.11378e-06 0)
(0.108946 -1.69384e-06 0)
(0.109013 3.58737e-06 0)
(0.109125 1.02928e-05 0)
(0.14689 -8.61659e-06 0)
(0.146622 -1.17414e-06 0)
(0.145983 4.48906e-06 0)
(0.14519 1.02165e-05 0)
(0.187928 -5.53885e-06 0)
(0.187688 6.7661e-06 0)
(0.187208 1.59295e-05 0)
(0.186726 1.64637e-05 0)
(0.225608 -1.83451e-06 0)
(0.225412 1.39959e-05 0)
(0.22507 2.50743e-05 0)
(0.224817 1.95846e-05 0)
(0.260102 -1.51389e-07 0)
(0.25996 1.69853e-05 0)
(0.259718 2.7988e-05 0)
(0.259631 1.97277e-05 0)
(0.291597 2.16857e-06 0)
(0.291511 1.98964e-05 0)
(0.291349 3.00467e-05 0)
(0.291367 1.88653e-05 0)
(0.320271 3.54506e-06 0)
(0.320246 2.1583e-05 0)
(0.320145 3.06348e-05 0)
(0.32022 1.73486e-05 0)
(0.346303 4.74972e-06 0)
(0.346324 2.20156e-05 0)
(0.346279 3.04329e-05 0)
(0.346384 1.56215e-05 0)
(0.369874 5.30181e-06 0)
(0.369955 2.19258e-05 0)
(0.369955 2.96365e-05 0)
(0.370061 1.43794e-05 0)
(0.39116 5.76722e-06 0)
(0.391283 2.08818e-05 0)
(0.391326 2.88429e-05 0)
(0.391419 1.26122e-05 0)
(0.410319 5.31638e-06 0)
(0.410486 1.94504e-05 0)
(0.410568 2.76036e-05 0)
(0.410634 1.25386e-05 0)
(0.427524 5.09283e-06 0)
(0.427711 1.67465e-05 0)
(0.427815 2.63387e-05 0)
(0.42785 1.10913e-05 0)
(0.442907 3.42809e-06 0)
(0.443123 1.43402e-05 0)
(0.443247 2.51257e-05 0)
(0.443246 1.25701e-05 0)
(0.456655 3.33242e-06 0)
(0.456858 1.14686e-05 0)
(0.45697 2.45203e-05 0)
(0.456974 1.07535e-05 0)
(0.468842 4.09253e-07 0)
(0.469064 8.27759e-06 0)
(0.469189 2.29379e-05 0)
(0.46915 1.33299e-05 0)
(0.479688 1.36561e-06 0)
(0.479862 6.6912e-06 0)
(0.479981 2.33153e-05 0)
(0.479977 1.09127e-05 0)
(0.489199 -1.69314e-06 0)
(0.489384 3.82822e-06 0)
(0.489532 2.13425e-05 0)
(0.489491 1.34772e-05 0)
(0.497628 -5.97927e-07 0)
(0.497734 1.31447e-06 0)
(0.497885 2.112e-05 0)
(0.497901 1.15736e-05 0)
(0.504936 -2.52e-06 0)
(0.50502 -5.87056e-07 0)
(0.505222 1.87601e-05 0)
(0.505238 1.29609e-05 0)
(0.511369 -1.31918e-06 0)
(0.511343 -3.09059e-06 0)
(0.511543 1.74367e-05 0)
(0.511602 1.19867e-05 0)
(0.516884 -2.14446e-06 0)
(0.5168 -4.2195e-06 0)
(0.517025 1.44494e-05 0)
(0.517098 1.24999e-05 0)
(0.52165 -3.09272e-07 0)
(0.521485 -4.79004e-06 0)
(0.5217 1.26372e-05 0)
(0.521811 1.15774e-05 0)
(0.525667 -4.87695e-07 0)
(0.525457 -5.15196e-06 0)
(0.525683 9.22919e-06 0)
(0.525807 1.15087e-05 0)
(0.52905 1.1976e-06 0)
(0.528787 -4.8883e-06 0)
(0.529004 6.8029e-06 0)
(0.529151 1.05481e-05 0)
(0.531807 1.41074e-06 0)
(0.531522 -4.34809e-06 0)
(0.531741 3.33881e-06 0)
(0.531894 1.0339e-05 0)
(0.534024 2.8163e-06 0)
(0.53371 -3.90426e-06 0)
(0.533922 3.79244e-07 0)
(0.534083 9.5101e-06 0)
(0.535695 2.83118e-06 0)
(0.535388 -2.6604e-06 0)
(0.535596 -2.29459e-06 0)
(0.535756 9.18267e-06 0)
(0.536894 4.91533e-06 0)
(0.53658 -1.38389e-06 0)
(0.536785 -5.76051e-06 0)
(0.536941 8.78897e-06 0)
(0.537587 3.60598e-06 0)
(0.537317 -1.11508e-06 0)
(0.537513 -8.13897e-06 0)
(0.537659 8.6316e-06 0)
(0.537853 5.58468e-06 0)
(0.537598 4.40018e-07 0)
(0.537789 -1.09905e-05 0)
(0.537923 8.79104e-06 0)
(0.537609 4.02319e-06 0)
(0.537443 -3.12379e-07 0)
(0.537617 -1.41442e-05 0)
(0.537732 8.93517e-06 0)
(0.536973 3.58981e-06 0)
(0.536839 -8.55614e-07 0)
(0.536995 -1.56325e-05 0)
(0.537094 9.41098e-06 0)
(0.535816 3.24871e-06 0)
(0.53579 -2.20123e-07 0)
(0.535902 -1.7916e-05 0)
(0.535967 9.17207e-06 0)
(0.534271 1.51533e-06 0)
(0.534275 -1.95347e-06 0)
(0.534327 -1.87198e-05 0)
(0.534369 1.00842e-05 0)
(0.532129 1.2478e-07 0)
(0.532216 -1.18494e-06 0)
(0.5322 -1.8856e-05 0)
(0.532205 9.4781e-06 0)
(0.529494 -1.44197e-06 0)
(0.529553 -2.0808e-06 0)
(0.529501 -1.87064e-05 0)
(0.529527 1.00547e-05 0)
(0.526182 -3.92528e-06 0)
(0.526282 -1.98887e-06 0)
(0.526206 -1.82312e-05 0)
(0.526218 9.05041e-06 0)
(0.522254 -5.06258e-06 0)
(0.522326 -2.38332e-06 0)
(0.522272 -1.76966e-05 0)
(0.522264 9.36566e-06 0)
(0.517541 -7.13565e-06 0)
(0.517631 -2.20589e-06 0)
(0.517579 -1.70361e-05 0)
(0.517533 8.87027e-06 0)
(0.512053 -7.61933e-06 0)
(0.512101 -2.85435e-06 0)
(0.512069 -1.6078e-05 0)
(0.512009 9.05711e-06 0)
(0.505632 -8.6211e-06 0)
(0.50567 -2.4693e-06 0)
(0.505645 -1.52583e-05 0)
(0.505565 8.55815e-06 0)
(0.498239 -7.7951e-06 0)
(0.49824 -2.93973e-06 0)
(0.498235 -1.43754e-05 0)
(0.49815 8.48599e-06 0)
(0.489726 -8.17534e-06 0)
(0.489757 -2.58724e-06 0)
(0.489726 -1.34973e-05 0)
(0.489629 7.70395e-06 0)
(0.480024 -6.59644e-06 0)
(0.480026 -2.71823e-06 0)
(0.480025 -1.24233e-05 0)
(0.479925 7.47878e-06 0)
(0.468997 -6.7567e-06 0)
(0.469033 -2.22966e-06 0)
(0.468979 -1.11779e-05 0)
(0.468866 6.79725e-06 0)
(0.45647 -5.42353e-06 0)
(0.45647 -2.6255e-06 0)
(0.456461 -9.95719e-06 0)
(0.456359 6.47642e-06 0)
(0.44235 -4.93592e-06 0)
(0.442382 -1.86586e-06 0)
(0.442328 -8.59412e-06 0)
(0.442216 5.95671e-06 0)
(0.426424 -3.84943e-06 0)
(0.42642 -2.23985e-06 0)
(0.426406 -7.48543e-06 0)
(0.426318 5.62898e-06 0)
(0.408582 -3.05272e-06 0)
(0.408601 -1.74078e-06 0)
(0.408556 -6.52864e-06 0)
(0.408468 5.12956e-06 0)
(0.388601 -1.71068e-06 0)
(0.388593 -1.54197e-06 0)
(0.388574 -5.46046e-06 0)
(0.388512 4.67708e-06 0)
(0.366333 -1.05296e-06 0)
(0.366338 -1.21752e-06 0)
(0.366301 -4.78653e-06 0)
(0.366251 4.20478e-06 0)
(0.341556 -9.28998e-08 0)
(0.341561 -9.96461e-07 0)
(0.341534 -4.07128e-06 0)
(0.341498 3.68089e-06 0)
(0.314095 4.23688e-07 0)
(0.314115 -7.4349e-07 0)
(0.314077 -3.51141e-06 0)
(0.314051 3.16552e-06 0)
(0.283735 8.72836e-07 0)
(0.283765 -6.21412e-07 0)
(0.283722 -2.92248e-06 0)
(0.283703 2.61033e-06 0)
(0.250264 1.01409e-06 0)
(0.250306 -4.53215e-07 0)
(0.250254 -2.34862e-06 0)
(0.250243 2.08922e-06 0)
(0.213464 1.0114e-06 0)
(0.213511 -3.69283e-07 0)
(0.213455 -1.77012e-06 0)
(0.213449 1.55137e-06 0)
(0.173108 8.26656e-07 0)
(0.173157 -2.29364e-07 0)
(0.1731 -1.19951e-06 0)
(0.173099 1.04977e-06 0)
(0.128969 5.70325e-07 0)
(0.129013 -1.50295e-07 0)
(0.128963 -6.95126e-07 0)
(0.128965 5.97101e-07 0)
(0.0808157 2.8485e-07 0)
(0.0808478 -7.5594e-08 0)
(0.0808123 -3.03306e-07 0)
(0.0808146 2.33889e-07 0)
(0.0284152 5.91173e-08 0)
(0.028428 -1.38295e-09 0)
(0.0284133 -3.51605e-08 0)
(0.0284138 4.04728e-08 0)
(0.109158 1.98131e-05 0)
(0.109149 -1.57073e-05 0)
(0.109093 -8.94602e-06 0)
(0.109029 1.41574e-06 0)
(0.145202 1.84611e-05 0)
(0.146036 -1.65251e-05 0)
(0.146644 -7.84028e-06 0)
(0.146955 2.80329e-06 0)
(0.186809 1.19528e-05 0)
(0.18738 -2.81543e-05 0)
(0.187791 -1.71185e-05 0)
(0.188025 -1.49008e-07 0)
(0.224922 4.74697e-06 0)
(0.225272 -3.8159e-05 0)
(0.225549 -2.24436e-05 0)
(0.225723 -6.11127e-07 0)
(0.259756 3.20189e-06 0)
(0.259925 -4.06738e-05 0)
(0.260105 -2.57122e-05 0)
(0.26023 -1.12292e-06 0)
(0.291486 6.13909e-07 0)
(0.291507 -4.30335e-05 0)
(0.291635 -2.79424e-05 0)
(0.29173 -7.9016e-07 0)
(0.32032 1.94632e-07 0)
(0.320236 -4.35221e-05 0)
(0.320337 -2.94109e-05 0)
(0.320408 -1.84304e-07 0)
(0.346469 5.28147e-07 0)
(0.346315 -4.30951e-05 0)
(0.346392 -3.07681e-05 0)
(0.346444 3.64544e-07 0)
(0.370114 1.59316e-06 0)
(0.369914 -4.21039e-05 0)
(0.369985 -3.17268e-05 0)
(0.37002 1.50078e-06 0)
(0.391447 2.85216e-06 0)
(0.391218 -4.08693e-05 0)
(0.391266 -3.26006e-05 0)
(0.391295 2.19734e-06 0)
(0.410625 4.8537e-06 0)
(0.410395 -3.93445e-05 0)
(0.410442 -3.31398e-05 0)
(0.41045 3.61118e-06 0)
(0.427842 6.75372e-06 0)
(0.427605 -3.74199e-05 0)
(0.427609 -3.36618e-05 0)
(0.427625 3.99071e-06 0)
(0.443213 9.65016e-06 0)
(0.443022 -3.53319e-05 0)
(0.443032 -3.33635e-05 0)
(0.443005 5.39119e-06 0)
(0.456982 9.85287e-06 0)
(0.456744 -3.40801e-05 0)
(0.456714 -3.35628e-05 0)
(0.456736 5.86761e-06 0)
(0.469129 1.43813e-05 0)
(0.468976 -3.0818e-05 0)
(0.468967 -3.3397e-05 0)
(0.468924 6.8489e-06 0)
(0.480003 1.20792e-05 0)
(0.479786 -3.14962e-05 0)
(0.47973 -3.29083e-05 0)
(0.479759 7.97672e-06 0)
(0.489461 1.69485e-05 0)
(0.489359 -2.72351e-05 0)
(0.489331 -3.28083e-05 0)
(0.489272 7.89492e-06 0)
(0.497933 1.49041e-05 0)
(0.497784 -2.85816e-05 0)
(0.497684 -3.21626e-05 0)
(0.497694 1.0082e-05 0)
(0.505162 1.86882e-05 0)
(0.505099 -2.36961e-05 0)
(0.505034 -3.10013e-05 0)
(0.504986 9.33816e-06 0)
(0.5116 1.73817e-05 0)
(0.511529 -2.51683e-05 0)
(0.511361 -3.05637e-05 0)
(0.511395 1.11794e-05 0)
(0.517005 2.02387e-05 0)
(0.516974 -2.06026e-05 0)
(0.516832 -2.90989e-05 0)
(0.516871 1.00972e-05 0)
(0.521793 1.9259e-05 0)
(0.521757 -2.10995e-05 0)
(0.521487 -2.8315e-05 0)
(0.52158 9.69901e-06 0)
(0.525695 2.13204e-05 0)
(0.525658 -1.67539e-05 0)
(0.525453 -2.69767e-05 0)
(0.525571 8.08759e-06 0)
(0.529115 2.12397e-05 0)
(0.529092 -1.59672e-05 0)
(0.52876 -2.62195e-05 0)
(0.528901 5.97787e-06 0)
(0.531752 2.32061e-05 0)
(0.531706 -1.14967e-05 0)
(0.531477 -2.47997e-05 0)
(0.531643 3.63555e-06 0)
(0.534027 2.38564e-05 0)
(0.534012 -1.01471e-05 0)
(0.533651 -2.41206e-05 0)
(0.533816 5.15897e-07 0)
(0.535581 2.46692e-05 0)
(0.535529 -6.70153e-06 0)
(0.535305 -2.32397e-05 0)
(0.535484 -2.51732e-06 0)
(0.536861 2.66735e-05 0)
(0.536856 -4.66059e-06 0)
(0.536497 -2.19916e-05 0)
(0.536652 -5.59554e-06 0)
(0.537445 2.72851e-05 0)
(0.537393 -1.29151e-06 0)
(0.537209 -2.15252e-05 0)
(0.537362 -9.18036e-06 0)
(0.537833 2.89702e-05 0)
(0.53784 -5.01144e-07 0)
(0.537502 -2.03137e-05 0)
(0.537609 -1.1785e-05 0)
(0.537529 3.18124e-05 0)
(0.537482 5.04486e-06 0)
(0.537332 -1.81539e-05 0)
(0.537413 -1.44233e-05 0)
(0.53702 3.15518e-05 0)
(0.537042 3.62029e-06 0)
(0.536754 -1.84496e-05 0)
(0.536767 -1.65391e-05 0)
(0.535813 3.34509e-05 0)
(0.535771 7.90536e-06 0)
(0.535695 -1.48832e-05 0)
(0.535686 -1.75879e-05 0)
(0.534331 3.4178e-05 0)
(0.534367 7.34917e-06 0)
(0.534178 -1.5651e-05 0)
(0.534099 -1.84984e-05 0)
(0.532144 3.35579e-05 0)
(0.532102 8.6185e-06 0)
(0.532069 -1.24127e-05 0)
(0.532007 -1.91421e-05 0)
(0.529547 3.50371e-05 0)
(0.52957 9.69708e-06 0)
(0.529453 -1.25696e-05 0)
(0.529344 -1.92026e-05 0)
(0.526241 3.42926e-05 0)
(0.526188 1.01488e-05 0)
(0.526148 -9.8431e-06 0)
(0.526079 -1.97039e-05 0)
(0.522287 3.47057e-05 0)
(0.522307 1.12283e-05 0)
(0.522233 -1.01705e-05 0)
(0.52215 -1.97243e-05 0)
(0.517579 3.39383e-05 0)
(0.517577 1.13932e-05 0)
(0.517526 -7.88688e-06 0)
(0.51748 -1.98406e-05 0)
(0.512083 3.37287e-05 0)
(0.512129 1.19278e-05 0)
(0.512056 -8.23852e-06 0)
(0.51203 -1.98948e-05 0)
(0.50567 3.22317e-05 0)
(0.505719 1.21034e-05 0)
(0.50565 -6.71549e-06 0)
(0.505653 -1.96181e-05 0)
(0.498276 3.10064e-05 0)
(0.498361 1.21966e-05 0)
(0.498297 -6.99302e-06 0)
(0.49832 -1.95063e-05 0)
(0.489779 2.88409e-05 0)
(0.489875 1.20564e-05 0)
(0.48979 -6.38361e-06 0)
(0.489787 -1.85438e-05 0)
(0.480071 2.68196e-05 0)
(0.480192 1.17198e-05 0)
(0.480145 -6.09817e-06 0)
(0.480159 -1.78956e-05 0)
(0.469027 2.42697e-05 0)
(0.469159 1.11013e-05 0)
(0.469088 -5.37788e-06 0)
(0.469078 -1.66387e-05 0)
(0.456505 2.1935e-05 0)
(0.45665 1.04807e-05 0)
(0.456625 -4.90758e-06 0)
(0.456635 -1.60569e-05 0)
(0.442369 1.93689e-05 0)
(0.442523 9.55838e-06 0)
(0.442468 -4.45624e-06 0)
(0.442452 -1.42456e-05 0)
(0.426451 1.69139e-05 0)
(0.426606 8.65483e-06 0)
(0.426594 -3.9884e-06 0)
(0.426594 -1.3815e-05 0)
(0.408599 1.45627e-05 0)
(0.408759 7.56766e-06 0)
(0.408716 -4.23179e-06 0)
(0.408689 -1.17322e-05 0)
(0.388624 1.21192e-05 0)
(0.388774 6.4717e-06 0)
(0.388767 -3.56919e-06 0)
(0.388752 -1.08801e-05 0)
(0.366355 1.00245e-05 0)
(0.366508 5.3931e-06 0)
(0.366475 -3.61565e-06 0)
(0.366429 -9.08798e-06 0)
(0.341589 7.9875e-06 0)
(0.341723 4.42984e-06 0)
(0.341718 -2.72061e-06 0)
(0.341674 -8.13171e-06 0)
(0.314135 6.17236e-06 0)
(0.314269 3.42994e-06 0)
(0.314253 -2.59254e-06 0)
(0.314178 -6.38255e-06 0)
(0.283778 4.46499e-06 0)
(0.283884 2.51322e-06 0)
(0.28389 -1.62162e-06 0)
(0.283817 -5.27362e-06 0)
(0.250312 3.09611e-06 0)
(0.250401 1.68597e-06 0)
(0.250406 -1.37069e-06 0)
(0.250322 -3.7173e-06 0)
(0.213509 1.91107e-06 0)
(0.213568 1.0084e-06 0)
(0.213587 -6.27735e-07 0)
(0.213514 -2.70737e-06 0)
(0.173151 1.07957e-06 0)
(0.173189 4.97233e-07 0)
(0.173206 -4.56607e-07 0)
(0.17314 -1.56477e-06 0)
(0.129005 4.59818e-07 0)
(0.12902 1.66634e-07 0)
(0.12904 -6.66195e-08 0)
(0.128992 -8.78845e-07 0)
(0.0808408 1.49288e-07 0)
(0.080844 3.4016e-08 0)
(0.0808564 -5.50424e-08 0)
(0.0808264 -2.65133e-07 0)
(0.0284232 -1.56433e-08 0)
(0.0284217 -4.3285e-08 0)
(0.0284272 4.90001e-08 0)
(0.0284179 -5.26936e-08 0)
)
;

boundaryField
{
    topWall
    {
        type            noSlip;
    }
    botWall
    {
        type            noSlip;
    }
    inlet
    {
        type            cyclic;
    }
    outlet
    {
        type            cyclic;
    }
    fixWall
    {
        type            empty;
    }
}


// ************************************************************************* //
