/*--------------------------------*- C++ -*----------------------------------*\
  =========                 |
  \\      /  F ield         | OpenFOAM: The Open Source CFD Toolbox
   \\    /   O peration     | Website:  https://openfoam.org
    \\  /    A nd           | Version:  dev
     \\/     M anipulation  |

   OpenFOAM for Windows 20.09 (v1)
   Built by CFD Support, www.cfdsupport.com (based on Symscape).
\*---------------------------------------------------------------------------*/
FoamFile
{
    version     2.0;
    format      ascii;
    class       volVectorField;
    location    "10";
    object      UMean;
}
// * * * * * * * * * * * * * * * * * * * * * * * * * * * * * * * * * * * * * //

dimensions      [0 1 -1 0 0 0 0];

internalField   nonuniform List<vector> 
960
(
(0.00202463 3.33972e-06 0)
(0.00201913 -1.40644e-07 0)
(0.00203473 2.25651e-09 0)
(0.00203453 -1.81601e-08 0)
(0.00565943 -3.94537e-07 0)
(0.0056579 -5.54209e-07 0)
(0.00567446 -8.16673e-08 0)
(0.00566799 9.12644e-08 0)
(0.00888513 2.9011e-06 0)
(0.00888688 -7.52562e-07 0)
(0.008905 -8.40936e-08 0)
(0.00889159 3.46642e-07 0)
(0.0117353 2.50973e-07 0)
(0.0117393 -1.08302e-06 0)
(0.011759 -7.64858e-08 0)
(0.011739 7.56183e-07 0)
(0.0142427 1.9838e-06 0)
(0.0142489 -1.32773e-06 0)
(0.0142691 2.39278e-08 0)
(0.0142434 1.29791e-06 0)
(0.0164389 6.35528e-07 0)
(0.0164473 -1.73844e-06 0)
(0.0164674 8.67997e-08 0)
(0.0164371 1.93369e-06 0)
(0.0183542 2.24875e-06 0)
(0.0183647 -1.97935e-06 0)
(0.0183843 3.00748e-07 0)
(0.0183506 2.63778e-06 0)
(0.0200175 1.07443e-06 0)
(0.0200299 -2.44599e-06 0)
(0.020049 3.82107e-07 0)
(0.0200132 3.40331e-06 0)
(0.0214557 2.23738e-06 0)
(0.0214704 -2.66391e-06 0)
(0.0214887 6.87982e-07 0)
(0.0214516 4.17028e-06 0)
(0.0226945 1.41251e-06 0)
(0.0227111 -3.17897e-06 0)
(0.0227288 7.51111e-07 0)
(0.0226917 4.98813e-06 0)
(0.0237567 2.17288e-06 0)
(0.0237762 -3.39476e-06 0)
(0.023793 1.1278e-06 0)
(0.0237562 5.74532e-06 0)
(0.0246647 1.67868e-06 0)
(0.0246863 -3.92827e-06 0)
(0.0247022 1.12254e-06 0)
(0.0246673 6.53485e-06 0)
(0.0254369 2.1119e-06 0)
(0.0254625 -4.18405e-06 0)
(0.0254766 1.53477e-06 0)
(0.0254434 7.18261e-06 0)
(0.0260913 1.87547e-06 0)
(0.0261201 -4.64273e-06 0)
(0.026133 1.55509e-06 0)
(0.0261032 7.89802e-06 0)
(0.026643 2.179e-06 0)
(0.0266778 -5.12687e-06 0)
(0.0266884 1.80678e-06 0)
(0.0266608 8.44061e-06 0)
(0.0271067 1.96475e-06 0)
(0.0271459 -5.53543e-06 0)
(0.0271547 2.03264e-06 0)
(0.0271318 8.88313e-06 0)
(0.0275009 2.2741e-06 0)
(0.0275437 -6.15833e-06 0)
(0.0275492 2.1032e-06 0)
(0.0275297 9.30772e-06 0)
(0.0278328 2.09434e-06 0)
(0.0278767 -6.54141e-06 0)
(0.0278811 2.42142e-06 0)
(0.0278657 9.44309e-06 0)
(0.0281119 2.32503e-06 0)
(0.0281575 -7.106e-06 0)
(0.0281601 2.43014e-06 0)
(0.0281475 9.73933e-06 0)
(0.0283464 2.2812e-06 0)
(0.028392 -7.4722e-06 0)
(0.028394 2.69518e-06 0)
(0.0283846 9.76207e-06 0)
(0.0285433 2.42003e-06 0)
(0.0285895 -8.05158e-06 0)
(0.0285902 2.70726e-06 0)
(0.0285831 9.93105e-06 0)
(0.0287089 2.4103e-06 0)
(0.0287544 -8.42358e-06 0)
(0.0287543 2.91027e-06 0)
(0.0287499 9.86667e-06 0)
(0.0288485 2.53235e-06 0)
(0.0288936 -8.92438e-06 0)
(0.028892 2.94658e-06 0)
(0.0288902 9.93994e-06 0)
(0.0289665 2.55414e-06 0)
(0.0290103 -9.33317e-06 0)
(0.0290076 3.06541e-06 0)
(0.0290085 9.76666e-06 0)
(0.0290671 2.67685e-06 0)
(0.0291099 -9.70781e-06 0)
(0.0291054 3.13997e-06 0)
(0.0291093 9.77059e-06 0)
(0.0291536 2.73355e-06 0)
(0.0291945 -1.01299e-05 0)
(0.0291885 3.16564e-06 0)
(0.0291955 9.51108e-06 0)
(0.0292296 2.75448e-06 0)
(0.0292684 -1.04681e-05 0)
(0.0292603 3.29094e-06 0)
(0.0292711 9.35266e-06 0)
(0.0292974 2.89505e-06 0)
(0.029333 -1.06887e-05 0)
(0.0293227 3.26258e-06 0)
(0.0293373 9.00516e-06 0)
(0.0293602 2.85513e-06 0)
(0.0293919 -1.10043e-05 0)
(0.0293791 3.34034e-06 0)
(0.029399 8.71654e-06 0)
(0.0294201 3.12785e-06 0)
(0.0294458 -1.11525e-05 0)
(0.02943 3.31271e-06 0)
(0.0294554 8.335e-06 0)
(0.0294769 3.2216e-06 0)
(0.0294967 -1.11389e-05 0)
(0.0294806 3.18821e-06 0)
(0.0295114 7.98677e-06 0)
(0.0295335 3.38665e-06 0)
(0.0295477 -1.12965e-05 0)
(0.029532 3.1254e-06 0)
(0.0295667 7.49663e-06 0)
(0.0295924 3.63595e-06 0)
(0.029603 -1.11618e-05 0)
(0.0295871 2.82446e-06 0)
(0.0296255 7.0327e-06 0)
(0.029655 3.74074e-06 0)
(0.029663 -1.10896e-05 0)
(0.0296466 2.73127e-06 0)
(0.0296875 6.44746e-06 0)
(0.0297246 3.94252e-06 0)
(0.0297309 -1.10385e-05 0)
(0.0297138 2.38347e-06 0)
(0.0297571 5.85537e-06 0)
(0.0298032 4.20492e-06 0)
(0.0298078 -1.08633e-05 0)
(0.0297904 2.25607e-06 0)
(0.0298352 5.28773e-06 0)
(0.029894 4.36595e-06 0)
(0.0298973 -1.07678e-05 0)
(0.0298796 1.89894e-06 0)
(0.0299257 4.72646e-06 0)
(0.0299999 4.59461e-06 0)
(0.0300018 -1.06581e-05 0)
(0.0299842 1.71754e-06 0)
(0.0300308 4.0141e-06 0)
(0.0301248 4.8013e-06 0)
(0.0301253 -1.0423e-05 0)
(0.030108 1.42428e-06 0)
(0.0301546 3.59083e-06 0)
(0.0302726 4.92554e-06 0)
(0.0302716 -1.04025e-05 0)
(0.0302547 1.14089e-06 0)
(0.0303009 2.69414e-06 0)
(0.0304484 5.19511e-06 0)
(0.0304456 -1.0112e-05 0)
(0.0304292 9.37069e-07 0)
(0.0304745 2.37521e-06 0)
(0.0306576 5.28698e-06 0)
(0.0306524 -1.00107e-05 0)
(0.0306367 6.40945e-07 0)
(0.0306809 1.66796e-06 0)
(0.0309067 5.46995e-06 0)
(0.0308988 -9.68181e-06 0)
(0.0308838 4.38901e-07 0)
(0.0309262 1.08855e-06 0)
(0.0312029 5.492e-06 0)
(0.0311918 -9.51e-06 0)
(0.0311776 1.81035e-07 0)
(0.0312178 6.78929e-07 0)
(0.0315543 5.79859e-06 0)
(0.0315402 -9.26846e-06 0)
(0.0315274 -3.99668e-09 0)
(0.0315638 4.44954e-08 0)
(0.0319706 5.6717e-06 0)
(0.0319544 -9.06618e-06 0)
(0.0319429 -3.23682e-07 0)
(0.0319712 -4.91281e-07 0)
(0.0324603 5.9363e-06 0)
(0.0324404 -8.92982e-06 0)
(0.0324282 -3.90044e-07 0)
(0.0324525 -5.92288e-07 0)
(0.0330366 5.81807e-06 0)
(0.0330127 -8.42994e-06 0)
(0.0329999 -5.76441e-07 0)
(0.033022 -9.92079e-07 0)
(0.0337125 5.86212e-06 0)
(0.0336854 -8.29417e-06 0)
(0.033672 -6.42874e-07 0)
(0.0336924 -1.28767e-06 0)
(0.0345031 5.71366e-06 0)
(0.0344732 -7.60521e-06 0)
(0.0344597 -7.21523e-07 0)
(0.0344789 -1.27221e-06 0)
(0.0354247 5.87989e-06 0)
(0.0353934 -7.47661e-06 0)
(0.0353794 -7.75977e-07 0)
(0.0353976 -1.86457e-06 0)
(0.0364965 5.54551e-06 0)
(0.0364638 -6.86077e-06 0)
(0.0364496 -9.40877e-07 0)
(0.036467 -1.7934e-06 0)
(0.0377369 5.90551e-06 0)
(0.0377048 -6.62357e-06 0)
(0.0376902 -8.29127e-07 0)
(0.0377065 -2.25704e-06 0)
(0.0391698 5.29569e-06 0)
(0.0391374 -6.02491e-06 0)
(0.039123 -1.08466e-06 0)
(0.0391383 -2.2681e-06 0)
(0.0408152 5.90213e-06 0)
(0.040785 -5.81596e-06 0)
(0.0407711 -8.76459e-07 0)
(0.0407848 -2.63173e-06 0)
(0.0427016 4.94605e-06 0)
(0.0426714 -4.94497e-06 0)
(0.0426589 -1.01609e-06 0)
(0.0426717 -2.66787e-06 0)
(0.04485 5.91983e-06 0)
(0.0448224 -5.50414e-06 0)
(0.0448124 -1.15155e-06 0)
(0.0448236 -3.01544e-06 0)
(0.0472949 4.77399e-06 0)
(0.0472651 -4.50329e-06 0)
(0.0472579 -1.46728e-06 0)
(0.0472703 -3.28707e-06 0)
(0.050055 5.85744e-06 0)
(0.050026 -3.84746e-06 0)
(0.0500216 -6.27746e-07 0)
(0.0500358 -2.77035e-06 0)
(0.0532028 5.76384e-06 0)
(0.0531658 -4.13971e-06 0)
(0.0531586 -1.94832e-06 0)
(0.0531791 -3.30139e-06 0)
(0.00202636 3.86337e-08 0)
(0.00202376 -1.0062e-08 0)
(0.00203176 -4.14103e-08 0)
(0.00204044 -4.64773e-08 0)
(0.00564516 2.74801e-07 0)
(0.00564081 -9.64848e-08 0)
(0.00566043 -2.57345e-07 0)
(0.00567353 -2.09214e-07 0)
(0.00885637 5.96649e-07 0)
(0.0088521 -2.6541e-07 0)
(0.00888045 -6.25192e-07 0)
(0.00889712 -2.4504e-07 0)
(0.0116938 1.08725e-06 0)
(0.0116902 -5.05814e-07 0)
(0.0117259 -1.0612e-06 0)
(0.0117462 -4.1586e-07 0)
(0.0141907 1.54376e-06 0)
(0.0141877 -8.07281e-07 0)
(0.014229 -1.63484e-06 0)
(0.0142522 -5.25812e-07 0)
(0.0163789 2.17838e-06 0)
(0.0163761 -1.16004e-06 0)
(0.0164222 -2.19725e-06 0)
(0.0164475 -7.83285e-07 0)
(0.0182886 2.69172e-06 0)
(0.0182856 -1.53754e-06 0)
(0.0183354 -2.89969e-06 0)
(0.0183621 -9.2357e-07 0)
(0.0199487 3.42165e-06 0)
(0.0199454 -1.95542e-06 0)
(0.0199981 -3.53466e-06 0)
(0.0200253 -1.2214e-06 0)
(0.021386 3.9558e-06 0)
(0.0213824 -2.36475e-06 0)
(0.0214371 -4.30269e-06 0)
(0.0214637 -1.34752e-06 0)
(0.0226263 4.72574e-06 0)
(0.0226223 -2.82219e-06 0)
(0.0226787 -4.96764e-06 0)
(0.0227035 -1.63482e-06 0)
(0.0236924 5.26251e-06 0)
(0.0236882 -3.24836e-06 0)
(0.0237454 -5.71422e-06 0)
(0.0237673 -1.69852e-06 0)
(0.0246062 5.99913e-06 0)
(0.0246018 -3.70732e-06 0)
(0.02466 -6.3985e-06 0)
(0.0246778 -1.89636e-06 0)
(0.0253868 6.50695e-06 0)
(0.0253822 -4.16314e-06 0)
(0.0254408 -6.9707e-06 0)
(0.0254531 -1.84958e-06 0)
(0.0260521 7.16487e-06 0)
(0.0260478 -4.58931e-06 0)
(0.0261077 -7.67027e-06 0)
(0.0261129 -1.74912e-06 0)
(0.026617 7.58841e-06 0)
(0.0266134 -5.10167e-06 0)
(0.0266743 -8.13521e-06 0)
(0.0266707 -1.76315e-06 0)
(0.0270989 8.01293e-06 0)
(0.0270956 -5.56327e-06 0)
(0.0271571 -8.69045e-06 0)
(0.0271438 -1.31409e-06 0)
(0.0275042 8.32479e-06 0)
(0.0275008 -5.99165e-06 0)
(0.0275595 -9.1817e-06 0)
(0.0275395 -9.77896e-07 0)
(0.0278456 8.53398e-06 0)
(0.0278421 -6.46023e-06 0)
(0.0278991 -9.44639e-06 0)
(0.027874 -4.16601e-07 0)
(0.0281323 8.84014e-06 0)
(0.0281281 -6.8699e-06 0)
(0.028183 -9.80396e-06 0)
(0.0281541 1.83704e-07 0)
(0.0283732 8.9585e-06 0)
(0.0283688 -7.25783e-06 0)
(0.0284221 -9.9816e-06 0)
(0.0283902 8.85883e-07 0)
(0.0285754 9.20951e-06 0)
(0.0285704 -7.66388e-06 0)
(0.0286218 -1.02296e-05 0)
(0.0285877 1.43872e-06 0)
(0.0287453 9.27026e-06 0)
(0.0287401 -8.02573e-06 0)
(0.0287899 -1.04008e-05 0)
(0.028754 2.20817e-06 0)
(0.0288886 9.46985e-06 0)
(0.0288826 -8.37391e-06 0)
(0.0289307 -1.05667e-05 0)
(0.0288934 2.81916e-06 0)
(0.0290095 9.50749e-06 0)
(0.0290031 -8.72782e-06 0)
(0.0290498 -1.0692e-05 0)
(0.0290116 3.58735e-06 0)
(0.029113 9.65396e-06 0)
(0.0291053 -9.00599e-06 0)
(0.0291503 -1.08099e-05 0)
(0.0291114 4.24713e-06 0)
(0.0292014 9.69872e-06 0)
(0.0291926 -9.35276e-06 0)
(0.0292365 -1.08981e-05 0)
(0.0291974 5.04666e-06 0)
(0.0292794 9.74215e-06 0)
(0.0292687 -9.6068e-06 0)
(0.0293106 -1.10781e-05 0)
(0.0292717 5.53275e-06 0)
(0.0293478 9.91227e-06 0)
(0.0293354 -9.75989e-06 0)
(0.0293759 -1.09076e-05 0)
(0.0293381 6.49695e-06 0)
(0.0294116 9.87726e-06 0)
(0.0293963 -1.0098e-05 0)
(0.0294343 -1.12397e-05 0)
(0.0293978 6.88934e-06 0)
(0.02947 1.00696e-05 0)
(0.0294526 -1.01211e-05 0)
(0.0294884 -1.10989e-05 0)
(0.0294546 7.6423e-06 0)
(0.0295296 1.01214e-05 0)
(0.0295087 -1.0374e-05 0)
(0.0295391 -1.11994e-05 0)
(0.0295092 8.32308e-06 0)
(0.0295864 1.00848e-05 0)
(0.0295634 -1.03975e-05 0)
(0.0295907 -1.14719e-05 0)
(0.0295645 8.51193e-06 0)
(0.0296467 1.0218e-05 0)
(0.0296211 -1.0363e-05 0)
(0.0296455 -1.12377e-05 0)
(0.0296216 9.24367e-06 0)
(0.0297097 1.01993e-05 0)
(0.0296825 -1.02901e-05 0)
(0.0297055 -1.14666e-05 0)
(0.0296834 9.4186e-06 0)
(0.0297802 1.02972e-05 0)
(0.0297514 -1.02765e-05 0)
(0.0297725 -1.13846e-05 0)
(0.0297514 9.90915e-06 0)
(0.0298587 1.03979e-05 0)
(0.0298291 -1.0014e-05 0)
(0.0298489 -1.13882e-05 0)
(0.0298288 1.02673e-05 0)
(0.0299495 1.03996e-05 0)
(0.0299195 -1.01104e-05 0)
(0.0299374 -1.14903e-05 0)
(0.0299178 1.06347e-05 0)
(0.0300545 1.054e-05 0)
(0.0300248 -9.76393e-06 0)
(0.0300409 -1.14267e-05 0)
(0.030022 1.0935e-05 0)
(0.0301782 1.0539e-05 0)
(0.0301494 -9.84365e-06 0)
(0.0301631 -1.14996e-05 0)
(0.0301447 1.13253e-05 0)
(0.030324 1.06394e-05 0)
(0.0302966 -9.46055e-06 0)
(0.0303078 -1.14077e-05 0)
(0.03029 1.14858e-05 0)
(0.0304972 1.06441e-05 0)
(0.0304719 -9.53296e-06 0)
(0.0304798 -1.14002e-05 0)
(0.0304629 1.1914e-05 0)
(0.0307025 1.08116e-05 0)
(0.0306798 -9.10238e-06 0)
(0.0306842 -1.13426e-05 0)
(0.0306683 1.20409e-05 0)
(0.030947 1.05582e-05 0)
(0.0309278 -9.24498e-06 0)
(0.0309276 -1.1369e-05 0)
(0.0309131 1.22581e-05 0)
(0.0312369 1.08554e-05 0)
(0.0312217 -8.76969e-06 0)
(0.0312166 -1.11249e-05 0)
(0.0312036 1.2476e-05 0)
(0.0315814 1.0653e-05 0)
(0.0315716 -8.76651e-06 0)
(0.0315602 -1.1172e-05 0)
(0.0315486 1.24114e-05 0)
(0.0319859 1.05845e-05 0)
(0.0319856 -8.4641e-06 0)
(0.0319662 -1.07571e-05 0)
(0.0319554 1.2379e-05 0)
(0.0324671 1.06847e-05 0)
(0.032474 -8.19308e-06 0)
(0.0324483 -1.04669e-05 0)
(0.0324385 1.23465e-05 0)
(0.0330361 1.01282e-05 0)
(0.033048 -8.19265e-06 0)
(0.0330172 -1.02646e-05 0)
(0.0330086 1.20757e-05 0)
(0.0337062 1.01258e-05 0)
(0.033722 -7.85119e-06 0)
(0.0336877 -9.73056e-06 0)
(0.0336804 1.18293e-05 0)
(0.0344921 9.67132e-06 0)
(0.0345107 -7.89031e-06 0)
(0.0344734 -9.56013e-06 0)
(0.0344671 1.17482e-05 0)
(0.0354106 9.4509e-06 0)
(0.0354312 -7.5621e-06 0)
(0.0353921 -9.04822e-06 0)
(0.0353869 1.1118e-05 0)
(0.0364795 9.06862e-06 0)
(0.0365016 -7.5205e-06 0)
(0.0364607 -8.6937e-06 0)
(0.0364558 1.1131e-05 0)
(0.037719 8.87054e-06 0)
(0.0377422 -7.29454e-06 0)
(0.0377005 -8.24882e-06 0)
(0.0376958 1.04296e-05 0)
(0.0391506 8.40263e-06 0)
(0.0391743 -7.06796e-06 0)
(0.0391311 -7.8524e-06 0)
(0.0391262 1.04414e-05 0)
(0.0407971 8.2392e-06 0)
(0.0408212 -7.13775e-06 0)
(0.0407781 -7.45894e-06 0)
(0.0407728 9.67293e-06 0)
(0.0426833 7.661e-06 0)
(0.0427069 -6.47064e-06 0)
(0.0426627 -7.00436e-06 0)
(0.0426568 9.40516e-06 0)
(0.0448343 7.76689e-06 0)
(0.0448573 -7.00609e-06 0)
(0.0448143 -6.4357e-06 0)
(0.0448082 9.55133e-06 0)
(0.0472784 7.16352e-06 0)
(0.047299 -6.02114e-06 0)
(0.0472559 -6.03584e-06 0)
(0.0472504 9.02041e-06 0)
(0.0500415 6.91862e-06 0)
(0.0500589 -6.52685e-06 0)
(0.0500196 -5.67587e-06 0)
(0.0500174 7.8873e-06 0)
(0.0531788 7.00015e-06 0)
(0.0531967 -5.94432e-06 0)
(0.0531565 -5.48803e-06 0)
(0.0531554 9.47982e-06 0)
(0.0592125 5.0018e-06 0)
(0.0591722 -3.05721e-06 0)
(0.0591344 -9.9398e-07 0)
(0.0591722 -3.2111e-06 0)
(0.0875715 3.20037e-06 0)
(0.0876884 -1.5933e-06 0)
(0.0873189 1.19009e-06 0)
(0.0874331 -3.73883e-06 0)
(0.115367 3.26186e-07 0)
(0.11544 -1.73121e-06 0)
(0.115124 -2.42919e-06 0)
(0.115262 -7.54929e-06 0)
(0.139945 3.098e-06 0)
(0.139985 2.51036e-06 0)
(0.139736 6.06048e-06 0)
(0.139877 -5.66733e-06 0)
(0.161572 -3.1674e-06 0)
(0.161609 5.48708e-06 0)
(0.161416 1.85361e-06 0)
(0.161545 -8.50865e-06 0)
(0.180537 2.62364e-06 0)
(0.180568 2.37732e-06 0)
(0.180423 4.74736e-06 0)
(0.180538 -9.52114e-06 0)
(0.197078 -4.67052e-06 0)
(0.197121 8.0272e-06 0)
(0.197018 3.30228e-06 0)
(0.197107 -9.37458e-06 0)
(0.211468 1.29921e-06 0)
(0.21151 4.19847e-06 0)
(0.211437 5.21676e-06 0)
(0.211513 -1.11347e-05 0)
(0.223919 -4.89072e-06 0)
(0.223972 8.02136e-06 0)
(0.223925 3.27273e-06 0)
(0.223983 -1.00991e-05 0)
(0.234662 -1.16155e-06 0)
(0.234716 4.52019e-06 0)
(0.234697 4.80041e-06 0)
(0.234743 -1.21244e-05 0)
(0.243887 -4.69386e-06 0)
(0.243949 6.87622e-06 0)
(0.243954 3.19348e-06 0)
(0.243984 -1.04829e-05 0)
(0.251793 -3.05109e-06 0)
(0.25184 4.50738e-06 0)
(0.251871 4.32536e-06 0)
(0.251896 -1.0285e-05 0)
(0.258532 -5.01205e-06 0)
(0.258571 5.30791e-06 0)
(0.25862 2.25959e-06 0)
(0.258638 -1.08824e-05 0)
(0.26427 -3.99145e-06 0)
(0.264285 3.56601e-06 0)
(0.264351 3.22577e-06 0)
(0.264372 -8.05943e-06 0)
(0.269121 -4.98789e-06 0)
(0.269124 4.20139e-06 0)
(0.269205 1.22777e-06 0)
(0.26922 -8.92408e-06 0)
(0.273232 -4.06105e-06 0)
(0.273201 1.60069e-06 0)
(0.273297 8.26952e-07 0)
(0.273323 -8.83872e-06 0)
(0.27669 -4.12897e-06 0)
(0.276632 2.42687e-06 0)
(0.276746 6.6634e-08 0)
(0.276769 -5.67988e-06 0)
(0.279601 -2.65005e-06 0)
(0.279508 1.87802e-06 0)
(0.279635 -1.33213e-06 0)
(0.279671 -6.85943e-06 0)
(0.28203 -2.58543e-06 0)
(0.28191 1.09281e-06 0)
(0.282053 -2.8253e-06 0)
(0.282093 -5.14367e-06 0)
(0.284061 -8.02365e-07 0)
(0.283907 2.5836e-06 0)
(0.284058 -3.88783e-06 0)
(0.284107 -3.15426e-06 0)
(0.285737 -2.12352e-07 0)
(0.28556 1.2567e-06 0)
(0.285722 -6.33525e-06 0)
(0.285776 -4.64375e-06 0)
(0.287124 1.21025e-06 0)
(0.286922 2.53943e-06 0)
(0.28709 -7.67959e-06 0)
(0.287149 -1.93435e-06 0)
(0.288257 2.50826e-06 0)
(0.288037 2.24658e-06 0)
(0.288209 -9.69158e-06 0)
(0.28827 -2.92586e-06 0)
(0.289176 3.54524e-06 0)
(0.288942 3.20847e-06 0)
(0.289111 -1.17292e-05 0)
(0.289174 -1.5292e-06 0)
(0.289905 5.21363e-06 0)
(0.289665 3.77661e-06 0)
(0.28983 -1.33817e-05 0)
(0.289892 -1.90478e-06 0)
(0.290474 6.31349e-06 0)
(0.290231 4.58064e-06 0)
(0.290388 -1.5584e-05 0)
(0.290447 -1.24799e-06 0)
(0.290895 7.02617e-06 0)
(0.29066 4.86898e-06 0)
(0.290805 -1.69939e-05 0)
(0.290863 -1.85272e-06 0)
(0.29119 9.09748e-06 0)
(0.290963 6.81469e-06 0)
(0.291096 -1.85678e-05 0)
(0.291145 -1.16103e-06 0)
(0.291361 9.11958e-06 0)
(0.291156 6.29659e-06 0)
(0.291273 -2.01386e-05 0)
(0.291313 -1.85769e-06 0)
(0.291425 1.03893e-05 0)
(0.291239 8.25971e-06 0)
(0.291338 -2.1025e-05 0)
(0.291364 -1.33915e-06 0)
(0.291371 1.14384e-05 0)
(0.291225 9.00665e-06 0)
(0.291303 -2.22117e-05 0)
(0.291316 -1.25584e-06 0)
(0.291214 1.07392e-05 0)
(0.2911 8.5192e-06 0)
(0.291163 -2.31372e-05 0)
(0.291147 -1.52255e-06 0)
(0.290934 1.16286e-05 0)
(0.290874 1.02103e-05 0)
(0.290915 -2.27614e-05 0)
(0.290872 -1.10209e-06 0)
(0.290538 1.08791e-05 0)
(0.290515 9.43612e-06 0)
(0.290536 -2.30233e-05 0)
(0.29046 -1.18683e-06 0)
(0.289998 1.0548e-05 0)
(0.290025 9.64185e-06 0)
(0.290024 -2.18779e-05 0)
(0.289921 -1.05994e-06 0)
(0.289313 9.75807e-06 0)
(0.289361 9.82821e-06 0)
(0.289348 -2.09368e-05 0)
(0.28923 -6.74917e-07 0)
(0.288445 9.07085e-06 0)
(0.288521 9.14414e-06 0)
(0.2885 -1.98572e-05 0)
(0.288371 -7.49225e-07 0)
(0.287372 8.05588e-06 0)
(0.287466 8.9243e-06 0)
(0.287449 -1.84434e-05 0)
(0.28731 -5.01153e-07 0)
(0.286058 7.36808e-06 0)
(0.286171 8.14825e-06 0)
(0.286158 -1.72579e-05 0)
(0.286011 -5.29417e-07 0)
(0.284473 6.66697e-06 0)
(0.284595 7.40476e-06 0)
(0.284586 -1.57639e-05 0)
(0.284433 -4.17389e-07 0)
(0.282561 6.22027e-06 0)
(0.282686 6.49875e-06 0)
(0.28268 -1.45394e-05 0)
(0.282526 -4.57665e-07 0)
(0.280264 5.96179e-06 0)
(0.28039 5.6138e-06 0)
(0.280387 -1.31033e-05 0)
(0.280231 -4.27342e-07 0)
(0.277511 5.66475e-06 0)
(0.277632 4.59528e-06 0)
(0.277627 -1.19504e-05 0)
(0.27748 -5.68427e-07 0)
(0.274219 5.84291e-06 0)
(0.274336 3.71798e-06 0)
(0.274333 -1.05428e-05 0)
(0.27419 -3.94583e-07 0)
(0.270302 5.59501e-06 0)
(0.270409 2.96475e-06 0)
(0.270402 -9.39768e-06 0)
(0.270268 -5.73035e-07 0)
(0.265635 5.62912e-06 0)
(0.265736 2.25627e-06 0)
(0.265731 -8.25352e-06 0)
(0.265605 -4.92362e-07 0)
(0.260113 5.62444e-06 0)
(0.2602 1.71109e-06 0)
(0.26019 -7.07814e-06 0)
(0.26008 -4.76754e-07 0)
(0.253575 5.44556e-06 0)
(0.253654 1.18752e-06 0)
(0.253645 -6.28751e-06 0)
(0.253547 -5.2923e-07 0)
(0.245882 5.46932e-06 0)
(0.245948 7.1485e-07 0)
(0.245935 -5.35327e-06 0)
(0.245855 -4.6195e-07 0)
(0.236839 5.40632e-06 0)
(0.2369 3.82667e-07 0)
(0.236884 -4.69145e-06 0)
(0.236818 -3.43502e-07 0)
(0.226261 5.08534e-06 0)
(0.22632 1.24597e-07 0)
(0.226296 -3.97534e-06 0)
(0.226246 -3.10771e-07 0)
(0.213927 4.70878e-06 0)
(0.213988 4.66656e-09 0)
(0.213955 -3.43938e-06 0)
(0.213918 -2.15791e-07 0)
(0.199606 4.1213e-06 0)
(0.199669 -1.4503e-07 0)
(0.199628 -2.7892e-06 0)
(0.1996 -1.51051e-07 0)
(0.183045 3.47111e-06 0)
(0.183108 -1.93873e-07 0)
(0.183063 -2.29544e-06 0)
(0.183043 -1.01626e-07 0)
(0.163971 2.7626e-06 0)
(0.16403 -2.55464e-07 0)
(0.163985 -1.71122e-06 0)
(0.163971 -5.02192e-08 0)
(0.142095 2.07393e-06 0)
(0.14215 -2.4409e-07 0)
(0.142105 -1.27923e-06 0)
(0.142096 -3.39177e-08 0)
(0.117113 1.40682e-06 0)
(0.11716 -2.2397e-07 0)
(0.11712 -8.09538e-07 0)
(0.117113 -1.51511e-08 0)
(0.0887057 8.35751e-07 0)
(0.0887441 -1.75385e-07 0)
(0.0887105 -4.75954e-07 0)
(0.0887061 -8.11836e-09 0)
(0.0565464 3.60602e-07 0)
(0.0565721 -1.19433e-07 0)
(0.0565486 -1.94913e-07 0)
(0.0565456 5.80736e-09 0)
(0.0202987 6.61307e-08 0)
(0.0203081 -2.96392e-08 0)
(0.0202978 -2.28751e-08 0)
(0.0202964 2.9464e-09 0)
(0.0591651 6.41401e-06 0)
(0.0591966 -6.18332e-06 0)
(0.0591662 -5.12097e-06 0)
(0.0591609 7.403e-06 0)
(0.087473 5.59046e-06 0)
(0.0876207 -6.32284e-06 0)
(0.0876611 -4.12652e-06 0)
(0.0874258 4.31229e-06 0)
(0.115283 5.14255e-06 0)
(0.115373 -7.404e-06 0)
(0.115433 -2.61201e-06 0)
(0.115279 1.34957e-05 0)
(0.139879 3.56579e-06 0)
(0.139929 -1.08817e-05 0)
(0.139993 -1.91633e-06 0)
(0.139875 5.25922e-06 0)
(0.16154 2.8015e-06 0)
(0.161563 -7.89393e-06 0)
(0.16163 -2.19657e-06 0)
(0.161538 1.08021e-05 0)
(0.180525 4.49817e-06 0)
(0.180528 -1.34339e-05 0)
(0.180585 -8.37524e-07 0)
(0.180503 9.58912e-06 0)
(0.19709 2.40236e-06 0)
(0.197087 -8.96092e-06 0)
(0.197139 -1.89099e-06 0)
(0.19706 1.05812e-05 0)
(0.211492 4.85904e-06 0)
(0.211481 -1.34224e-05 0)
(0.211525 -4.31118e-07 0)
(0.21145 9.86638e-06 0)
(0.223956 3.11766e-06 0)
(0.223943 -1.05603e-05 0)
(0.223983 -1.04106e-06 0)
(0.223912 1.22736e-05 0)
(0.2347 5.2129e-06 0)
(0.234683 -1.29838e-05 0)
(0.234723 -5.33047e-08 0)
(0.234657 1.03803e-05 0)
(0.243923 4.33018e-06 0)
(0.243911 -1.17911e-05 0)
(0.243957 1.27881e-07 0)
(0.243892 1.36411e-05 0)
(0.251811 6.83161e-06 0)
(0.251802 -1.26271e-05 0)
(0.251849 -1.61597e-07 0)
(0.251796 1.18089e-05 0)
(0.258536 5.29158e-06 0)
(0.258538 -1.36225e-05 0)
(0.258594 -3.80616e-07 0)
(0.258543 1.35539e-05 0)
(0.264259 8.74308e-06 0)
(0.264254 -1.2896e-05 0)
(0.264308 1.62923e-08 0)
(0.264281 1.37595e-05 0)
(0.269096 7.77601e-06 0)
(0.269103 -1.47117e-05 0)
(0.269166 -1.18516e-06 0)
(0.269144 1.35295e-05 0)
(0.273195 8.72195e-06 0)
(0.273191 -1.46284e-05 0)
(0.273244 1.76505e-07 0)
(0.273257 1.40119e-05 0)
(0.276628 1.20737e-05 0)
(0.276637 -1.43454e-05 0)
(0.276684 -6.23833e-07 0)
(0.276712 1.48091e-05 0)
(0.279532 9.96511e-06 0)
(0.279529 -1.62523e-05 0)
(0.279552 -1.71937e-06 0)
(0.279615 1.35003e-05 0)
(0.281937 1.44076e-05 0)
(0.28194 -1.46763e-05 0)
(0.281952 -2.02917e-06 0)
(0.282032 1.34226e-05 0)
(0.283966 1.3272e-05 0)
(0.283964 -1.63509e-05 0)
(0.283938 -3.56026e-06 0)
(0.284049 1.31775e-05 0)
(0.285625 1.59466e-05 0)
(0.285622 -1.4676e-05 0)
(0.285578 -4.06616e-06 0)
(0.28571 1.04841e-05 0)
(0.287023 1.6001e-05 0)
(0.287018 -1.54476e-05 0)
(0.286926 -4.45557e-06 0)
(0.287079 1.06441e-05 0)
(0.288141 1.8372e-05 0)
(0.288131 -1.29836e-05 0)
(0.28803 -5.0073e-06 0)
(0.288201 7.74283e-06 0)
(0.289079 1.81055e-05 0)
(0.289077 -1.37027e-05 0)
(0.288928 -5.49562e-06 0)
(0.289106 6.53551e-06 0)
(0.28979 2.0252e-05 0)
(0.289775 -1.04682e-05 0)
(0.289637 -5.62426e-06 0)
(0.28983 3.92376e-06 0)
(0.29038 2.0017e-05 0)
(0.290378 -1.11256e-05 0)
(0.290202 -6.03917e-06 0)
(0.29039 2.4681e-06 0)
(0.290785 2.10589e-05 0)
(0.290765 -7.9579e-06 0)
(0.290614 -6.89329e-06 0)
(0.29081 -1.5126e-06 0)
(0.291105 2.1961e-05 0)
(0.291102 -7.48921e-06 0)
(0.29092 -5.12265e-06 0)
(0.291101 -1.53238e-06 0)
(0.291257 2.1788e-05 0)
(0.291236 -5.56329e-06 0)
(0.291093 -7.60018e-06 0)
(0.291276 -5.94157e-06 0)
(0.291348 2.26415e-05 0)
(0.291347 -4.20801e-06 0)
(0.291178 -5.76986e-06 0)
(0.291339 -6.74344e-06 0)
(0.291293 2.34226e-05 0)
(0.291267 -2.57901e-06 0)
(0.291138 -6.52408e-06 0)
(0.291295 -7.89437e-06 0)
(0.291158 2.21786e-05 0)
(0.291157 -2.27906e-06 0)
(0.291012 -8.4973e-06 0)
(0.291142 -1.16899e-05 0)
(0.290889 2.37103e-05 0)
(0.290868 -5.24489e-08 0)
(0.290756 -5.80143e-06 0)
(0.290877 -1.10152e-05 0)
(0.290515 2.21928e-05 0)
(0.290522 2.39705e-07 0)
(0.290395 -8.15127e-06 0)
(0.290485 -1.40856e-05 0)
(0.289994 2.23413e-05 0)
(0.289986 1.4814e-06 0)
(0.289879 -6.07731e-06 0)
(0.289959 -1.42413e-05 0)
(0.289329 2.1456e-05 0)
(0.289343 2.73613e-06 0)
(0.289228 -6.35991e-06 0)
(0.289283 -1.52639e-05 0)
(0.288486 2.04656e-05 0)
(0.28849 3.08026e-06 0)
(0.288388 -5.75823e-06 0)
(0.288434 -1.56517e-05 0)
(0.287434 1.93934e-05 0)
(0.287453 4.16463e-06 0)
(0.287358 -5.42339e-06 0)
(0.287383 -1.60134e-05 0)
(0.286148 1.80948e-05 0)
(0.286165 4.51891e-06 0)
(0.286082 -4.69239e-06 0)
(0.286098 -1.57636e-05 0)
(0.284578 1.68214e-05 0)
(0.284604 5.14738e-06 0)
(0.284537 -4.34793e-06 0)
(0.284544 -1.54332e-05 0)
(0.282678 1.5238e-05 0)
(0.282706 5.28231e-06 0)
(0.282653 -3.81724e-06 0)
(0.282657 -1.45884e-05 0)
(0.280383 1.38463e-05 0)
(0.280418 5.57007e-06 0)
(0.280379 -3.47477e-06 0)
(0.280379 -1.37152e-05 0)
(0.277632 1.21399e-05 0)
(0.277671 5.36612e-06 0)
(0.277637 -3.25565e-06 0)
(0.277631 -1.26518e-05 0)
(0.274332 1.07924e-05 0)
(0.274377 5.43532e-06 0)
(0.274356 -2.89038e-06 0)
(0.274346 -1.1268e-05 0)
(0.270405 9.00147e-06 0)
(0.270455 5.14843e-06 0)
(0.270429 -2.74177e-06 0)
(0.270414 -1.01456e-05 0)
(0.265723 7.51096e-06 0)
(0.265771 4.82998e-06 0)
(0.265768 -2.55572e-06 0)
(0.265754 -9.04794e-06 0)
(0.260188 6.18268e-06 0)
(0.260241 4.61147e-06 0)
(0.260226 -2.3375e-06 0)
(0.260206 -7.64471e-06 0)
(0.253634 4.72451e-06 0)
(0.253684 4.07999e-06 0)
(0.253689 -2.22367e-06 0)
(0.25367 -7.03601e-06 0)
(0.24593 3.86772e-06 0)
(0.245983 3.76078e-06 0)
(0.245975 -2.02814e-06 0)
(0.245948 -5.78245e-06 0)
(0.23687 2.82089e-06 0)
(0.236918 3.26895e-06 0)
(0.236931 -1.82054e-06 0)
(0.2369 -5.07393e-06 0)
(0.226286 2.09969e-06 0)
(0.226335 2.83951e-06 0)
(0.226338 -1.66965e-06 0)
(0.22629 -4.17568e-06 0)
(0.213942 1.40761e-06 0)
(0.21398 2.33992e-06 0)
(0.214 -1.31942e-06 0)
(0.213948 -3.54581e-06 0)
(0.19962 9.68743e-07 0)
(0.199657 1.93246e-06 0)
(0.199672 -1.07177e-06 0)
(0.199608 -2.78844e-06 0)
(0.183053 5.30828e-07 0)
(0.183079 1.46083e-06 0)
(0.183105 -6.94179e-07 0)
(0.183043 -2.25066e-06 0)
(0.163978 3.04767e-07 0)
(0.164 1.10298e-06 0)
(0.164022 -4.6386e-07 0)
(0.163961 -1.62741e-06 0)
(0.142099 8.9695e-08 0)
(0.142111 7.40029e-07 0)
(0.142138 -1.96141e-07 0)
(0.142086 -1.19365e-06 0)
(0.117115 2.36552e-08 0)
(0.117122 4.78512e-07 0)
(0.117145 -7.95536e-08 0)
(0.117101 -7.47592e-07 0)
(0.0887059 -2.34527e-08 0)
(0.0887067 2.54104e-07 0)
(0.0887295 2.74233e-08 0)
(0.088697 -4.53617e-07 0)
(0.0565451 3.00162e-09 0)
(0.0565449 9.91382e-08 0)
(0.056561 1.80927e-08 0)
(0.0565397 -1.61212e-07 0)
(0.0202963 -7.1829e-09 0)
(0.0202961 2.00333e-08 0)
(0.0203032 2.56456e-08 0)
(0.0202957 -5.91629e-08 0)
)
;

boundaryField
{
    topWall
    {
        type            calculated;
        value           uniform (0 0 0);
    }
    botWall
    {
        type            calculated;
        value           uniform (0 0 0);
    }
    inlet
    {
        type            cyclic;
    }
    outlet
    {
        type            cyclic;
    }
    fixWall
    {
        type            empty;
    }
}


// ************************************************************************* //
