/*--------------------------------*- C++ -*----------------------------------*\
  =========                 |
  \\      /  F ield         | OpenFOAM: The Open Source CFD Toolbox
   \\    /   O peration     | Website:  https://openfoam.org
    \\  /    A nd           | Version:  dev
     \\/     M anipulation  |

   OpenFOAM for Windows 20.09 (v1)
   Built by CFD Support, www.cfdsupport.com (based on Symscape).
\*---------------------------------------------------------------------------*/
FoamFile
{
    version     2.0;
    format      ascii;
    class       volSymmTensorField;
    location    "10";
    object      UPrime2Mean;
}
// * * * * * * * * * * * * * * * * * * * * * * * * * * * * * * * * * * * * * //

dimensions      [0 2 -2 0 0 0 0];

internalField   nonuniform List<symmTensor> 
960
(
(1.67329e-07 -8.89595e-10 0 4.59106e-11 0 0)
(1.64594e-07 -3.11051e-11 0 1.17577e-14 0 0)
(1.67606e-07 3.05048e-13 0 5.89163e-16 0 0)
(1.72097e-07 -1.03426e-11 0 1.49627e-15 0 0)
(1.53856e-06 4.3836e-10 0 1.30192e-12 0 0)
(1.51897e-06 -2.24724e-11 0 8.89043e-14 0 0)
(1.51106e-06 -6.88898e-11 0 4.3141e-15 0 0)
(1.53922e-06 -1.57264e-10 0 6.15965e-14 0 0)
(4.25112e-06 -2.95725e-09 0 2.12347e-11 0 0)
(4.20292e-06 2.65715e-10 0 3.84768e-13 0 0)
(4.16702e-06 -1.70217e-10 0 1.88971e-14 0 0)
(4.23072e-06 -5.1543e-10 0 3.46807e-13 0 0)
(8.22273e-06 -9.16514e-10 0 1.68365e-12 0 0)
(8.13993e-06 1.21389e-09 0 1.28913e-12 0 0)
(8.06311e-06 -2.63508e-10 0 7.4916e-14 0 0)
(8.16477e-06 -1.05931e-09 0 9.93756e-13 0 0)
(1.33309e-05 -2.60223e-09 0 5.37462e-12 0 0)
(1.32111e-05 2.52868e-09 0 2.69853e-12 0 0)
(1.30883e-05 -3.11011e-10 0 1.74259e-13 0 0)
(1.32253e-05 -1.6749e-09 0 2.10402e-12 0 0)
(1.94329e-05 -3.39502e-09 0 7.57972e-12 0 0)
(1.92715e-05 4.76017e-09 0 5.08648e-12 0 0)
(1.9101e-05 -1.96084e-10 0 3.78081e-13 0 0)
(1.92693e-05 -2.32028e-09 0 3.64647e-12 0 0)
(2.636e-05 -6.75097e-09 0 1.26294e-11 0 0)
(2.61568e-05 7.15769e-09 0 7.79198e-12 0 0)
(2.59375e-05 -6.47139e-11 0 6.52624e-13 0 0)
(2.61319e-05 -2.80772e-09 0 5.75245e-12 0 0)
(3.39361e-05 -7.56852e-09 0 1.77979e-11 0 0)
(3.36918e-05 1.08065e-08 0 1.19457e-11 0 0)
(3.34235e-05 4.64955e-10 0 1.11231e-12 0 0)
(3.36386e-05 -3.30361e-09 0 8.31678e-12 0 0)
(4.19785e-05 -1.19124e-08 0 2.22062e-11 0 0)
(4.16974e-05 1.41881e-08 0 1.57689e-11 0 0)
(4.1377e-05 8.82464e-10 0 1.66093e-12 0 0)
(4.16069e-05 -3.40657e-09 0 1.15299e-11 0 0)
(5.03097e-05 -1.32045e-08 0 2.972e-11 0 0)
(4.9996e-05 1.91547e-08 0 2.17083e-11 0 0)
(4.96239e-05 1.99621e-09 0 2.50126e-12 0 0)
(4.98613e-05 -3.67138e-09 0 1.52271e-11 0 0)
(5.87641e-05 -1.79584e-08 0 3.50879e-11 0 0)
(5.84216e-05 2.33388e-08 0 2.62835e-11 0 0)
(5.79946e-05 2.85015e-09 0 3.42397e-12 0 0)
(5.82311e-05 -3.32161e-09 0 1.97173e-11 0 0)
(6.71858e-05 -1.9772e-08 0 4.30517e-11 0 0)
(6.68227e-05 2.94514e-08 0 3.4354e-11 0 0)
(6.63448e-05 4.73151e-09 0 4.80387e-12 0 0)
(6.65667e-05 -3.25565e-09 0 2.46354e-11 0 0)
(7.54505e-05 -2.47344e-08 0 4.95291e-11 0 0)
(7.50625e-05 3.41235e-08 0 3.98725e-11 0 0)
(7.45293e-05 6.31258e-09 0 6.26373e-12 0 0)
(7.4727e-05 -2.59953e-09 0 3.10117e-11 0 0)
(8.34446e-05 -2.6815e-08 0 5.72231e-11 0 0)
(8.30413e-05 4.06305e-08 0 4.87272e-11 0 0)
(8.24539e-05 8.85916e-09 0 8.33086e-12 0 0)
(8.26106e-05 -2.02834e-09 0 3.70235e-11 0 0)
(9.10937e-05 -3.13606e-08 0 6.46558e-11 0 0)
(9.06588e-05 4.74829e-08 0 5.76731e-11 0 0)
(9.00101e-05 1.18565e-08 0 1.06477e-11 0 0)
(9.01197e-05 -7.82754e-10 0 4.32097e-11 0 0)
(9.83191e-05 -3.34577e-08 0 6.97413e-11 0 0)
(9.78775e-05 5.36649e-08 0 6.62392e-11 0 0)
(9.71815e-05 1.50495e-08 0 1.3888e-11 0 0)
(9.72079e-05 7.87621e-10 0 4.99857e-11 0 0)
(0.00010503 -3.75278e-08 0 7.66885e-11 0 0)
(0.000104597 6.18019e-08 0 7.96411e-11 0 0)
(0.000103841 1.94036e-08 0 1.74747e-11 0 0)
(0.000103796 2.72055e-09 0 5.60413e-11 0 0)
(0.000111216 -3.99737e-08 0 8.09698e-11 0 0)
(0.000110808 6.81057e-08 0 8.99518e-11 0 0)
(0.000109994 2.37323e-08 0 2.18963e-11 0 0)
(0.000109892 5.28396e-09 0 6.35822e-11 0 0)
(0.000116881 -4.41021e-08 0 8.75005e-11 0 0)
(0.000116491 7.55785e-08 0 1.04242e-10 0 0)
(0.00011562 2.90783e-08 0 2.72561e-11 0 0)
(0.000115482 7.03397e-09 0 7.20778e-11 0 0)
(0.000122025 -4.70241e-08 0 9.32174e-11 0 0)
(0.00012166 8.21924e-08 0 1.1668e-10 0 0)
(0.000120737 3.43424e-08 0 3.30005e-11 0 0)
(0.00012058 9.86252e-09 0 8.11453e-11 0 0)
(0.000126673 -5.02634e-08 0 9.85729e-11 0 0)
(0.00012633 8.99798e-08 0 1.32481e-10 0 0)
(0.000125362 4.03869e-08 0 4.02168e-11 0 0)
(0.000125199 1.14264e-08 0 9.08486e-11 0 0)
(0.000130851 -5.3356e-08 0 1.04836e-10 0 0)
(0.000130534 9.66017e-08 0 1.4667e-10 0 0)
(0.000129527 4.61069e-08 0 4.75843e-11 0 0)
(0.000129368 1.3916e-08 0 1.02001e-10 0 0)
(0.000134596 -5.61853e-08 0 1.10566e-10 0 0)
(0.000134304 1.04084e-07 0 1.63748e-10 0 0)
(0.000133265 5.2298e-08 0 5.63274e-11 0 0)
(0.00013312 1.49568e-08 0 1.14095e-10 0 0)
(0.000137949 -5.93987e-08 0 1.16911e-10 0 0)
(0.000137685 1.10996e-07 0 1.81159e-10 0 0)
(0.000136621 5.84236e-08 0 6.52717e-11 0 0)
(0.000136497 1.69374e-08 0 1.2692e-10 0 0)
(0.00014095 -6.20578e-08 0 1.24269e-10 0 0)
(0.000140715 1.17679e-07 0 1.98073e-10 0 0)
(0.000139639 6.43293e-08 0 7.50253e-11 0 0)
(0.000139541 1.71875e-08 0 1.41561e-10 0 0)
(0.000143651 -6.55714e-08 0 1.30531e-10 0 0)
(0.000143449 1.24551e-07 0 2.17368e-10 0 0)
(0.000142368 7.04466e-08 0 8.49381e-11 0 0)
(0.000142304 1.83899e-08 0 1.55697e-10 0 0)
(0.00014609 -6.74705e-08 0 1.37279e-10 0 0)
(0.000145926 1.31282e-07 0 2.37824e-10 0 0)
(0.000144859 7.64888e-08 0 9.56234e-11 0 0)
(0.00014483 1.80749e-08 0 1.72458e-10 0 0)
(0.000148329 -7.08864e-08 0 1.45236e-10 0 0)
(0.000148208 1.3681e-07 0 2.57851e-10 0 0)
(0.000147167 8.10988e-08 0 1.05084e-10 0 0)
(0.000147178 1.79881e-08 0 1.89558e-10 0 0)
(0.000150396 -7.28921e-08 0 1.5053e-10 0 0)
(0.000150328 1.43086e-07 0 2.77007e-10 0 0)
(0.000149345 8.75297e-08 0 1.16265e-10 0 0)
(0.000149392 1.69393e-08 0 2.06167e-10 0 0)
(0.000152365 -7.66512e-08 0 1.60471e-10 0 0)
(0.000152361 1.4781e-07 0 2.92604e-10 0 0)
(0.00015146 9.15318e-08 0 1.25568e-10 0 0)
(0.000151531 1.54093e-08 0 2.22254e-10 0 0)
(0.000154231 -7.89711e-08 0 1.65966e-10 0 0)
(0.000154266 1.51016e-07 0 2.97597e-10 0 0)
(0.000153513 9.62125e-08 0 1.35516e-10 0 0)
(0.000153622 1.35622e-08 0 2.35469e-10 0 0)
(0.000156164 -8.22039e-08 0 1.73099e-10 0 0)
(0.000156232 1.5572e-07 0 3.05982e-10 0 0)
(0.000155578 1.00041e-07 0 1.43355e-10 0 0)
(0.00015574 1.188e-08 0 2.47867e-10 0 0)
(0.000158182 -8.38351e-08 0 1.78763e-10 0 0)
(0.000158275 1.5846e-07 0 3.09001e-10 0 0)
(0.00015771 1.01722e-07 0 1.49899e-10 0 0)
(0.000157935 9.69821e-09 0 2.58441e-10 0 0)
(0.000160364 -8.62679e-08 0 1.84702e-10 0 0)
(0.000160473 1.61194e-07 0 3.09704e-10 0 0)
(0.000159977 1.04454e-07 0 1.55886e-10 0 0)
(0.000160262 6.52303e-09 0 2.71e-10 0 0)
(0.000162738 -8.79366e-08 0 1.88967e-10 0 0)
(0.000162863 1.64515e-07 0 3.14518e-10 0 0)
(0.000162434 1.05938e-07 0 1.61042e-10 0 0)
(0.000162768 3.69347e-09 0 2.80096e-10 0 0)
(0.000165379 -9.11423e-08 0 1.98065e-10 0 0)
(0.000165518 1.66218e-07 0 3.09501e-10 0 0)
(0.000165143 1.06806e-07 0 1.63888e-10 0 0)
(0.000165516 -3.60694e-10 0 2.91229e-10 0 0)
(0.000168332 -9.32348e-08 0 2.04004e-10 0 0)
(0.00016849 1.68831e-07 0 3.09919e-10 0 0)
(0.000168173 1.08548e-07 0 1.67509e-10 0 0)
(0.000168569 -4.11882e-09 0 3.00178e-10 0 0)
(0.000171675 -9.7101e-08 0 2.11703e-10 0 0)
(0.000171849 1.71135e-07 0 3.06852e-10 0 0)
(0.000171589 1.08754e-07 0 1.69177e-10 0 0)
(0.000172 -7.67406e-09 0 3.10222e-10 0 0)
(0.000175461 -9.94301e-08 0 2.2148e-10 0 0)
(0.00017566 1.72629e-07 0 3.04476e-10 0 0)
(0.000175467 1.10057e-07 0 1.69573e-10 0 0)
(0.000175877 -1.25811e-08 0 3.19245e-10 0 0)
(0.000179777 -1.04089e-07 0 2.27753e-10 0 0)
(0.000179999 1.75484e-07 0 3.01768e-10 0 0)
(0.000179882 1.10103e-07 0 1.71994e-10 0 0)
(0.000180282 -1.49042e-08 0 3.29024e-10 0 0)
(0.000184686 -1.06891e-07 0 2.40535e-10 0 0)
(0.00018494 1.76035e-07 0 2.95385e-10 0 0)
(0.000184916 1.10796e-07 0 1.69415e-10 0 0)
(0.000185293 -2.06049e-08 0 3.38756e-10 0 0)
(0.000190285 -1.12113e-07 0 2.45939e-10 0 0)
(0.000190563 1.78757e-07 0 2.95329e-10 0 0)
(0.000190651 1.11267e-07 0 1.67649e-10 0 0)
(0.000190998 -2.14821e-08 0 3.32252e-10 0 0)
(0.000196644 -1.15939e-07 0 2.60786e-10 0 0)
(0.000196963 1.78296e-07 0 2.82789e-10 0 0)
(0.000197186 1.10725e-07 0 1.65883e-10 0 0)
(0.000197486 -2.77335e-08 0 3.60553e-10 0 0)
(0.000203872 -1.1955e-07 0 2.60541e-10 0 0)
(0.000204216 1.79808e-07 0 2.79747e-10 0 0)
(0.000204605 1.11423e-07 0 1.6052e-10 0 0)
(0.000204854 -2.78125e-08 0 3.35675e-10 0 0)
(0.000212042 -1.26661e-07 0 2.82266e-10 0 0)
(0.000212435 1.79529e-07 0 2.66827e-10 0 0)
(0.000213025 1.09929e-07 0 1.56295e-10 0 0)
(0.000213197 -3.12389e-08 0 3.51767e-10 0 0)
(0.000221274 -1.28235e-07 0 2.80169e-10 0 0)
(0.000221669 1.7821e-07 0 2.4905e-10 0 0)
(0.000222482 1.09304e-07 0 1.54476e-10 0 0)
(0.000222631 -3.27947e-08 0 3.49833e-10 0 0)
(0.000231685 -1.33718e-07 0 2.86271e-10 0 0)
(0.000232128 1.77849e-07 0 2.37882e-10 0 0)
(0.000233139 1.08138e-07 0 1.44005e-10 0 0)
(0.000233247 -3.21977e-08 0 3.16127e-10 0 0)
(0.000243411 -1.36185e-07 0 2.90318e-10 0 0)
(0.000243876 1.73397e-07 0 2.15266e-10 0 0)
(0.000245072 1.05261e-07 0 1.38213e-10 0 0)
(0.000245132 -3.61069e-08 0 3.30876e-10 0 0)
(0.000256516 -1.40158e-07 0 2.81612e-10 0 0)
(0.000257039 1.72572e-07 0 2.01552e-10 0 0)
(0.000258389 1.03247e-07 0 1.2989e-10 0 0)
(0.000258387 -3.34924e-08 0 2.98014e-10 0 0)
(0.000271136 -1.41953e-07 0 2.84289e-10 0 0)
(0.000271689 1.66107e-07 0 1.80207e-10 0 0)
(0.000273179 1.00202e-07 0 1.19294e-10 0 0)
(0.000273113 -3.68513e-08 0 2.90839e-10 0 0)
(0.000287312 -1.49266e-07 0 2.82623e-10 0 0)
(0.000287928 1.64377e-07 0 1.6527e-10 0 0)
(0.000289533 9.6604e-08 0 1.1351e-10 0 0)
(0.000289404 -3.35543e-08 0 2.77236e-10 0 0)
(0.00030516 -1.49009e-07 0 2.81148e-10 0 0)
(0.000305814 1.57143e-07 0 1.43939e-10 0 0)
(0.000307528 9.39861e-08 0 1.04475e-10 0 0)
(0.000307333 -3.4829e-08 0 2.57941e-10 0 0)
(0.000324681 -1.59626e-07 0 2.83489e-10 0 0)
(0.000325418 1.54282e-07 0 1.32341e-10 0 0)
(0.000327218 8.93661e-08 0 9.6629e-11 0 0)
(0.00032697 -3.12751e-08 0 2.43653e-10 0 0)
(0.000345957 -1.57579e-07 0 2.80706e-10 0 0)
(0.000346753 1.44855e-07 0 1.12376e-10 0 0)
(0.000348649 8.69277e-08 0 8.81555e-11 0 0)
(0.000348352 -3.06703e-08 0 2.25327e-10 0 0)
(0.000368917 -1.7353e-07 0 2.91868e-10 0 0)
(0.000369842 1.41893e-07 0 1.05232e-10 0 0)
(0.000371813 8.13696e-08 0 8.09663e-11 0 0)
(0.000371501 -2.66953e-08 0 2.09791e-10 0 0)
(0.000393594 -1.67181e-07 0 2.82943e-10 0 0)
(0.000394623 1.29353e-07 0 9.10329e-11 0 0)
(0.000396707 7.86057e-08 0 6.77981e-11 0 0)
(0.000396389 -2.43033e-08 0 1.90683e-10 0 0)
(0.000419828 -1.93142e-07 0 3.1694e-10 0 0)
(0.000421053 1.23906e-07 0 7.41923e-11 0 0)
(0.000423241 7.10161e-08 0 7.25291e-11 0 0)
(0.000422983 -2.05184e-08 0 1.80258e-10 0 0)
(0.000447569 -1.81825e-07 0 2.90028e-10 0 0)
(0.000448947 1.05518e-07 0 6.18919e-11 0 0)
(0.000451339 6.58415e-08 0 5.79586e-11 0 0)
(0.000451173 -1.74891e-08 0 1.69332e-10 0 0)
(0.00047657 -2.16951e-07 0 3.72292e-10 0 0)
(0.000478169 9.77807e-08 0 6.89563e-11 0 0)
(0.000480777 5.62287e-08 0 4.57616e-11 0 0)
(0.000480824 -1.26768e-08 0 1.26412e-10 0 0)
(0.000508086 -2.22007e-07 0 4.06532e-10 0 0)
(0.00050961 6.76321e-08 0 4.12855e-11 0 0)
(0.000512492 4.95486e-08 0 5.15207e-11 0 0)
(0.000512791 -1.42806e-08 0 1.36421e-10 0 0)
(1.71436e-07 6.68997e-12 0 3.55885e-16 0 0)
(1.72935e-07 -9.99047e-12 0 1.73868e-15 0 0)
(1.71345e-07 1.96503e-11 0 3.84548e-15 0 0)
(1.68375e-07 -1.1601e-11 0 3.86193e-15 0 0)
(1.52953e-06 5.56399e-11 0 7.98741e-15 0 0)
(1.53977e-06 -1.1924e-10 0 2.27539e-14 0 0)
(1.5311e-06 2.28776e-10 0 5.82729e-14 0 0)
(1.5136e-06 1.54344e-11 0 1.91782e-13 0 0)
(4.19817e-06 2.48386e-10 0 5.0428e-14 0 0)
(4.223e-06 -3.80388e-10 0 9.31786e-14 0 0)
(4.20883e-06 7.83071e-10 0 2.55529e-13 0 0)
(4.17039e-06 -1.59735e-10 0 5.83115e-13 0 0)
(8.0942e-06 5.11262e-10 0 1.65608e-13 0 0)
(8.1394e-06 -8.73824e-10 0 2.40781e-13 0 0)
(8.12444e-06 1.62137e-09 0 6.34034e-13 0 0)
(8.06288e-06 -4.65463e-10 0 1.33528e-12 0 0)
(1.3104e-05 1.15524e-09 0 4.26692e-13 0 0)
(1.3175e-05 -1.59691e-09 0 4.68022e-13 0 0)
(1.31665e-05 2.88055e-09 0 1.34629e-12 0 0)
(1.30814e-05 -1.35061e-09 0 2.4227e-12 0 0)
(1.90892e-05 1.71636e-09 0 8.23466e-13 0 0)
(1.91911e-05 -2.69328e-09 0 8.43134e-13 0 0)
(1.91957e-05 4.19853e-09 0 2.26802e-12 0 0)
(1.90902e-05 -2.37123e-09 0 3.805e-12 0 0)
(2.58903e-05 3.02219e-09 0 1.54189e-12 0 0)
(2.6027e-05 -4.12183e-09 0 1.34463e-12 0 0)
(2.60523e-05 5.97061e-09 0 3.70939e-12 0 0)
(2.59278e-05 -4.25916e-09 0 5.62155e-12 0 0)
(3.33365e-05 3.79646e-09 0 2.33275e-12 0 0)
(3.35083e-05 -6.02959e-09 0 2.08514e-12 0 0)
(3.35614e-05 7.49321e-09 0 5.27315e-12 0 0)
(3.34217e-05 -6.07982e-09 0 7.60304e-12 0 0)
(4.1251e-05 5.81736e-09 0 3.73271e-12 0 0)
(4.14583e-05 -8.38272e-09 0 3.02806e-12 0 0)
(4.15455e-05 9.53481e-09 0 7.50815e-12 0 0)
(4.13916e-05 -8.94744e-09 0 1.0058e-11 0 0)
(4.94586e-05 6.66478e-09 0 4.92214e-12 0 0)
(4.96972e-05 -1.11678e-08 0 4.30053e-12 0 0)
(4.98235e-05 1.09825e-08 0 9.69356e-12 0 0)
(4.96625e-05 -1.1502e-08 0 1.26179e-11 0 0)
(5.77934e-05 9.2064e-09 0 7.10969e-12 0 0)
(5.80634e-05 -1.45029e-08 0 5.87482e-12 0 0)
(5.82334e-05 1.29717e-08 0 1.26123e-11 0 0)
(5.80691e-05 -1.50895e-08 0 1.52551e-11 0 0)
(6.61014e-05 1.01318e-08 0 8.74017e-12 0 0)
(6.63966e-05 -1.81507e-08 0 7.78384e-12 0 0)
(6.6613e-05 1.41342e-08 0 1.52875e-11 0 0)
(6.64571e-05 -1.83199e-08 0 1.85207e-11 0 0)
(7.42502e-05 1.2994e-08 0 1.17625e-11 0 0)
(7.45765e-05 -2.21272e-08 0 9.90708e-12 0 0)
(7.48389e-05 1.56633e-08 0 1.85872e-11 0 0)
(7.46991e-05 -2.20458e-08 0 2.09494e-11 0 0)
(8.21233e-05 1.40762e-08 0 1.38345e-11 0 0)
(8.24719e-05 -2.62482e-08 0 1.25087e-11 0 0)
(8.2777e-05 1.68367e-08 0 2.19068e-11 0 0)
(8.26689e-05 -2.63137e-08 0 2.39216e-11 0 0)
(8.96364e-05 1.60336e-08 0 1.68625e-11 0 0)
(9.00155e-05 -3.18271e-08 0 1.60367e-11 0 0)
(9.0357e-05 1.65644e-08 0 2.44708e-11 0 0)
(9.02944e-05 -3.00423e-08 0 2.5929e-11 0 0)
(9.66784e-05 1.75137e-08 0 1.94483e-11 0 0)
(9.70982e-05 -3.72884e-08 0 1.9827e-11 0 0)
(9.75073e-05 1.70323e-08 0 2.83872e-11 0 0)
(9.74905e-05 -3.56109e-08 0 2.63255e-11 0 0)
(0.000103282 1.88713e-08 0 2.20723e-11 0 0)
(0.000103734 -4.35658e-08 0 2.42277e-11 0 0)
(0.000104199 1.61994e-08 0 3.15614e-11 0 0)
(0.00010421 -4.0217e-08 0 2.67781e-11 0 0)
(0.000109404 2.07999e-08 0 2.58598e-11 0 0)
(0.000109872 -5.04784e-08 0 2.93494e-11 0 0)
(0.000110379 1.54915e-08 0 3.51456e-11 0 0)
(0.000110403 -4.5532e-08 0 2.78242e-11 0 0)
(0.00011504 2.12741e-08 0 2.86852e-11 0 0)
(0.000115524 -5.59254e-08 0 3.36974e-11 0 0)
(0.000116064 1.47859e-08 0 3.87901e-11 0 0)
(0.000116089 -5.04057e-08 0 2.93808e-11 0 0)
(0.000120184 2.3441e-08 0 3.32477e-11 0 0)
(0.000120664 -6.28621e-08 0 3.94568e-11 0 0)
(0.000121228 1.38266e-08 0 4.27142e-11 0 0)
(0.000121251 -5.54094e-08 0 3.17582e-11 0 0)
(0.000124857 2.29458e-08 0 3.64809e-11 0 0)
(0.000125331 -6.93853e-08 0 4.54636e-11 0 0)
(0.00012591 1.2361e-08 0 4.65222e-11 0 0)
(0.000125922 -5.99307e-08 0 3.40479e-11 0 0)
(0.000129081 2.44447e-08 0 4.09971e-11 0 0)
(0.000129534 -7.60424e-08 0 5.19777e-11 0 0)
(0.000130115 1.13646e-08 0 5.10186e-11 0 0)
(0.000130118 -6.49729e-08 0 3.75079e-11 0 0)
(0.000132892 2.40364e-08 0 4.51723e-11 0 0)
(0.000133322 -8.25653e-08 0 5.86193e-11 0 0)
(0.000133893 9.91565e-09 0 5.52969e-11 0 0)
(0.000133881 -6.89838e-08 0 4.06521e-11 0 0)
(0.00013633 2.46229e-08 0 4.96555e-11 0 0)
(0.000136724 -8.86521e-08 0 6.54081e-11 0 0)
(0.000137272 8.94821e-09 0 6.03651e-11 0 0)
(0.000137246 -7.37484e-08 0 4.51216e-11 0 0)
(0.000139438 2.46046e-08 0 5.45413e-11 0 0)
(0.000139794 -9.48141e-08 0 7.22745e-11 0 0)
(0.000140309 7.84499e-09 0 6.49574e-11 0 0)
(0.000140266 -7.74592e-08 0 4.90375e-11 0 0)
(0.000142268 2.45766e-08 0 5.90002e-11 0 0)
(0.000142572 -9.96255e-08 0 7.84377e-11 0 0)
(0.000143037 7.26612e-09 0 7.09476e-11 0 0)
(0.00014298 -8.22191e-08 0 5.449e-11 0 0)
(0.000144863 2.4325e-08 0 6.3851e-11 0 0)
(0.000145112 -1.05765e-07 0 8.57576e-11 0 0)
(0.000145526 6.7198e-09 0 7.58149e-11 0 0)
(0.00014545 -8.46464e-08 0 5.78962e-11 0 0)
(0.000147287 2.38305e-08 0 6.80926e-11 0 0)
(0.000147465 -1.09264e-07 0 9.04502e-11 0 0)
(0.000147807 6.10192e-09 0 8.08176e-11 0 0)
(0.000147719 -8.91985e-08 0 6.41615e-11 0 0)
(0.000149572 2.41133e-08 0 7.29661e-11 0 0)
(0.000149678 -1.13743e-07 0 9.68557e-11 0 0)
(0.000149964 6.98214e-09 0 8.76949e-11 0 0)
(0.000149859 -9.15517e-08 0 6.7891e-11 0 0)
(0.000151788 2.36423e-08 0 7.79527e-11 0 0)
(0.000151812 -1.17348e-07 0 1.01638e-10 0 0)
(0.00015203 6.62437e-09 0 9.25517e-11 0 0)
(0.00015192 -9.51189e-08 0 7.32852e-11 0 0)
(0.00015397 2.42776e-08 0 8.23025e-11 0 0)
(0.000153968 -1.18583e-07 0 1.043e-10 0 0)
(0.000154094 7.06033e-09 0 1.00559e-10 0 0)
(0.000153932 -9.8205e-08 0 7.83349e-11 0 0)
(0.000156191 2.29602e-08 0 8.49826e-11 0 0)
(0.000156128 -1.21043e-07 0 1.081e-10 0 0)
(0.00015611 8.16102e-09 0 1.09673e-10 0 0)
(0.000155924 -9.82046e-08 0 7.95101e-11 0 0)
(0.000158459 2.08466e-08 0 8.63117e-11 0 0)
(0.000158341 -1.20317e-07 0 1.07425e-10 0 0)
(0.000158211 8.27498e-09 0 1.16469e-10 0 0)
(0.000157993 -9.96756e-08 0 8.31802e-11 0 0)
(0.000160841 1.98195e-08 0 8.80726e-11 0 0)
(0.000160668 -1.20715e-07 0 1.0894e-10 0 0)
(0.000160423 1.08178e-08 0 1.27116e-10 0 0)
(0.000160184 -9.89954e-08 0 8.44303e-11 0 0)
(0.000163385 1.71371e-08 0 8.85212e-11 0 0)
(0.000163168 -1.1896e-07 0 1.07873e-10 0 0)
(0.000162828 1.26761e-08 0 1.36424e-10 0 0)
(0.00016257 -9.93867e-08 0 8.63914e-11 0 0)
(0.000166156 1.6237e-08 0 9.02204e-11 0 0)
(0.000165901 -1.18423e-07 0 1.07638e-10 0 0)
(0.000165468 1.53826e-08 0 1.46571e-10 0 0)
(0.000165195 -9.97036e-08 0 8.88787e-11 0 0)
(0.000169216 1.45659e-08 0 9.02839e-11 0 0)
(0.000168935 -1.15219e-07 0 1.06416e-10 0 0)
(0.000168423 1.90946e-08 0 1.5946e-10 0 0)
(0.000168136 -1.00449e-07 0 9.03719e-11 0 0)
(0.000172637 1.30674e-08 0 9.11564e-11 0 0)
(0.000172336 -1.1429e-07 0 1.0535e-10 0 0)
(0.000171748 2.23164e-08 0 1.70333e-10 0 0)
(0.000171455 -1.00681e-07 0 9.25478e-11 0 0)
(0.00017649 1.21212e-08 0 9.12315e-11 0 0)
(0.000176176 -1.1025e-07 0 1.04297e-10 0 0)
(0.000175527 2.68952e-08 0 1.84005e-10 0 0)
(0.000175228 -1.0186e-07 0 9.44392e-11 0 0)
(0.000180856 1.04711e-08 0 9.07396e-11 0 0)
(0.000180535 -1.09169e-07 0 1.02465e-10 0 0)
(0.000179827 3.07496e-08 0 1.95847e-10 0 0)
(0.00017953 -1.02385e-07 0 9.55075e-11 0 0)
(0.000185813 9.94874e-09 0 9.06205e-11 0 0)
(0.000185489 -1.05005e-07 0 1.01829e-10 0 0)
(0.000184742 3.56755e-08 0 2.09377e-10 0 0)
(0.000184446 -1.03582e-07 0 9.85435e-11 0 0)
(0.000191456 9.31006e-09 0 9.10663e-11 0 0)
(0.000191134 -1.02854e-07 0 1.00974e-10 0 0)
(0.000190349 4.08341e-08 0 2.2349e-10 0 0)
(0.000190063 -1.04969e-07 0 1.00328e-10 0 0)
(0.000197862 8.96949e-09 0 8.63369e-11 0 0)
(0.000197539 -9.8751e-08 0 9.80014e-11 0 0)
(0.000196746 4.6528e-08 0 2.34802e-10 0 0)
(0.000196477 -1.07344e-07 0 9.97762e-11 0 0)
(0.000205144 9.33776e-09 0 8.87098e-11 0 0)
(0.000204818 -9.72142e-08 0 9.8992e-11 0 0)
(0.000204015 5.10843e-08 0 2.47753e-10 0 0)
(0.000203779 -1.07426e-07 0 1.05024e-10 0 0)
(0.00021337 9.10873e-09 0 8.24714e-11 0 0)
(0.000213026 -9.32575e-08 0 9.75093e-11 0 0)
(0.000212266 5.80029e-08 0 2.59818e-10 0 0)
(0.000212084 -1.10587e-07 0 1.02121e-10 0 0)
(0.000222746 9.94157e-09 0 7.93932e-11 0 0)
(0.00022235 -9.21042e-08 0 9.64042e-11 0 0)
(0.000221613 6.08671e-08 0 2.63125e-10 0 0)
(0.000221506 -1.09773e-07 0 1.03297e-10 0 0)
(0.000233263 1.12101e-08 0 7.95407e-11 0 0)
(0.000232841 -8.95098e-08 0 9.90767e-11 0 0)
(0.000232151 6.63035e-08 0 2.7155e-10 0 0)
(0.000232069 -1.09994e-07 0 1.06675e-10 0 0)
(0.000245053 1.34478e-08 0 7.1386e-11 0 0)
(0.000244627 -8.47644e-08 0 9.78048e-11 0 0)
(0.000243947 7.12115e-08 0 2.69987e-10 0 0)
(0.000243892 -1.12345e-07 0 1.0191e-10 0 0)
(0.000258215 1.5801e-08 0 7.09748e-11 0 0)
(0.00025779 -8.49245e-08 0 9.80321e-11 0 0)
(0.000257122 7.49796e-08 0 2.71197e-10 0 0)
(0.000257078 -1.09951e-07 0 1.039e-10 0 0)
(0.000272853 1.95228e-08 0 6.56535e-11 0 0)
(0.000272443 -7.87223e-08 0 1.00735e-10 0 0)
(0.000271763 8.13561e-08 0 2.71995e-10 0 0)
(0.000271734 -1.13238e-07 0 1.04159e-10 0 0)
(0.000289056 2.15853e-08 0 6.16625e-11 0 0)
(0.000288656 -7.97799e-08 0 9.95875e-11 0 0)
(0.000287967 8.56995e-08 0 2.69042e-10 0 0)
(0.000287942 -1.1094e-07 0 9.99193e-11 0 0)
(0.000306901 2.659e-08 0 5.90812e-11 0 0)
(0.000306515 -7.42243e-08 0 1.02845e-10 0 0)
(0.000305805 9.14332e-08 0 2.69936e-10 0 0)
(0.000305788 -1.13145e-07 0 1.04941e-10 0 0)
(0.000326449 2.89486e-08 0 5.53188e-11 0 0)
(0.000326055 -7.44442e-08 0 1.04395e-10 0 0)
(0.000325331 9.7212e-08 0 2.66134e-10 0 0)
(0.000325312 -1.10765e-07 0 1.0094e-10 0 0)
(0.000347742 3.56678e-08 0 5.43294e-11 0 0)
(0.000347331 -6.98599e-08 0 1.04308e-10 0 0)
(0.00034659 1.03363e-07 0 2.66655e-10 0 0)
(0.000346564 -1.14366e-07 0 1.06407e-10 0 0)
(0.000370795 3.87235e-08 0 5.12067e-11 0 0)
(0.000370321 -6.72611e-08 0 1.13003e-10 0 0)
(0.000369565 1.10765e-07 0 2.63187e-10 0 0)
(0.000369512 -1.10929e-07 0 1.03385e-10 0 0)
(0.000395603 4.64583e-08 0 5.10936e-11 0 0)
(0.000395043 -6.65166e-08 0 1.032e-10 0 0)
(0.000394267 1.15194e-07 0 2.53828e-10 0 0)
(0.00039417 -1.16474e-07 0 1.01024e-10 0 0)
(0.000422122 5.27933e-08 0 5.35331e-11 0 0)
(0.000421402 -5.68917e-08 0 1.25512e-10 0 0)
(0.000420592 1.27875e-07 0 2.69877e-10 0 0)
(0.000420406 -1.09899e-07 0 1.24845e-10 0 0)
(0.000450309 6.25609e-08 0 5.68179e-11 0 0)
(0.000449382 -5.62517e-08 0 1.06386e-10 0 0)
(0.000448526 1.34049e-07 0 2.59492e-10 0 0)
(0.000448191 -1.15629e-07 0 1.15353e-10 0 0)
(0.000480015 6.9206e-08 0 5.5183e-11 0 0)
(0.000478812 -4.79171e-08 0 1.30358e-10 0 0)
(0.000477839 1.37347e-07 0 2.32705e-10 0 0)
(0.000477208 -1.13605e-07 0 1.00066e-10 0 0)
(0.000512123 8.36126e-08 0 7.15849e-11 0 0)
(0.000510676 -4.5863e-08 0 1.16965e-10 0 0)
(0.000509822 1.53068e-07 0 2.53604e-10 0 0)
(0.00050895 -1.23616e-07 0 1.35974e-10 0 0)
(0.00056645 -2.23104e-07 0 3.51972e-10 0 0)
(0.000566721 8.09793e-08 0 5.6438e-11 0 0)
(0.000569577 4.7447e-08 0 3.91116e-11 0 0)
(0.000570174 -1.21042e-08 0 1.15327e-10 0 0)
(0.000822059 -2.20539e-07 0 1.69284e-10 0 0)
(0.000804027 1.3925e-07 0 1.4467e-10 0 0)
(0.000801141 3.60664e-08 0 3.14103e-11 0 0)
(0.000796611 -6.92954e-09 0 8.61869e-11 0 0)
(0.00125298 -9.9107e-08 0 1.13778e-10 0 0)
(0.00123578 1.64157e-07 0 2.94812e-11 0 0)
(0.00123562 9.01197e-08 0 2.24905e-10 0 0)
(0.0012335 -2.40178e-08 0 3.43365e-10 0 0)
(0.00176755 -2.20526e-07 0 1.34317e-10 0 0)
(0.00175282 4.53816e-07 0 2.24899e-10 0 0)
(0.00175521 9.25607e-08 0 1.9083e-10 0 0)
(0.00175533 2.31366e-08 0 2.06275e-10 0 0)
(0.00235666 1.4671e-07 0 3.67198e-11 0 0)
(0.00234513 3.75239e-07 0 9.62364e-11 0 0)
(0.00234917 1.16743e-07 0 3.41589e-10 0 0)
(0.00235182 -3.21856e-08 0 4.08794e-10 0 0)
(0.00300935 -1.39068e-07 0 4.01716e-11 0 0)
(0.00300142 6.34097e-07 0 1.51119e-10 0 0)
(0.00300691 3.61943e-08 0 5.03977e-10 0 0)
(0.00301114 -4.49879e-08 0 3.58477e-10 0 0)
(0.00371323 3.11854e-07 0 3.50201e-11 0 0)
(0.0037092 5.24183e-07 0 1.23994e-10 0 0)
(0.00371503 6.05082e-08 0 4.31986e-10 0 0)
(0.00372053 -8.83011e-08 0 4.08637e-10 0 0)
(0.00445421 -2.16054e-08 0 9.33165e-12 0 0)
(0.00445364 7.36897e-07 0 1.32724e-10 0 0)
(0.00446038 -6.86533e-08 0 6.01538e-10 0 0)
(0.0044661 -1.15252e-07 0 3.93685e-10 0 0)
(0.00521921 3.83723e-07 0 3.06939e-11 0 0)
(0.00522242 5.7982e-07 0 9.07159e-11 0 0)
(0.00522945 -4.63895e-08 0 5.16755e-10 0 0)
(0.00523473 -1.66555e-07 0 3.98479e-10 0 0)
(0.00599443 9.09008e-08 0 1.01987e-11 0 0)
(0.00600097 7.47087e-07 0 9.88763e-11 0 0)
(0.00600845 -1.84052e-07 0 6.33008e-10 0 0)
(0.00601215 -1.55818e-07 0 3.72765e-10 0 0)
(0.00676669 3.82739e-07 0 2.32253e-11 0 0)
(0.00677671 5.52833e-07 0 5.87442e-11 0 0)
(0.00678404 -1.7753e-07 0 5.70894e-10 0 0)
(0.00678612 -2.16597e-07 0 3.71161e-10 0 0)
(0.00752482 1.66674e-07 0 1.18196e-11 0 0)
(0.0075385 6.71876e-07 0 6.61534e-11 0 0)
(0.00754468 -2.42324e-07 0 5.38829e-10 0 0)
(0.007544 -1.33795e-07 0 2.63462e-10 0 0)
(0.00825837 2.59867e-07 0 1.91713e-11 0 0)
(0.00827564 4.59835e-07 0 2.96773e-11 0 0)
(0.00828049 -2.67056e-07 0 5.91355e-10 0 0)
(0.00827737 -2.5176e-07 0 3.97869e-10 0 0)
(0.00896099 1.87884e-07 0 1.02627e-11 0 0)
(0.00897986 4.91483e-07 0 3.18856e-11 0 0)
(0.0089823 -2.60179e-07 0 4.74005e-10 0 0)
(0.00897858 -1.48745e-07 0 2.21112e-10 0 0)
(0.00962371 1.08954e-07 0 2.00409e-11 0 0)
(0.00964472 3.56748e-07 0 1.87267e-11 0 0)
(0.00964617 -2.63331e-07 0 5.07549e-10 0 0)
(0.00963978 -1.85772e-07 0 2.99719e-10 0 0)
(0.0102446 1.22613e-07 0 1.57459e-11 0 0)
(0.0102647 2.8559e-07 0 1.25949e-11 0 0)
(0.0102648 -2.90695e-07 0 5.48723e-10 0 0)
(0.0102598 -2.56819e-07 0 2.92158e-10 0 0)
(0.0108155 3.81507e-08 0 7.20415e-12 0 0)
(0.0108371 2.6931e-07 0 1.4801e-11 0 0)
(0.0108379 -2.35273e-07 0 4.21632e-10 0 0)
(0.0108308 -6.02216e-08 0 1.89535e-10 0 0)
(0.0113415 3.10737e-08 0 1.59783e-11 0 0)
(0.0113593 8.53237e-08 0 4.06336e-12 0 0)
(0.0113601 -2.36033e-07 0 4.88167e-10 0 0)
(0.0113562 -3.14558e-07 0 2.90122e-10 0 0)
(0.0118147 -7.23784e-08 0 7.61062e-12 0 0)
(0.0118308 1.39778e-07 0 1.02905e-11 0 0)
(0.011834 -2.35016e-07 0 4.18031e-10 0 0)
(0.0118307 -8.44173e-08 0 1.77747e-10 0 0)
(0.0122424 -7.60747e-09 0 1.17683e-11 0 0)
(0.0122519 -8.19143e-08 0 1.11577e-11 0 0)
(0.0122551 -1.98781e-07 0 3.82424e-10 0 0)
(0.0122546 -3.03261e-07 0 2.08691e-10 0 0)
(0.0126184 -1.54375e-07 0 9.83715e-12 0 0)
(0.012624 1.57353e-09 0 1.40786e-11 0 0)
(0.0126291 -2.70327e-07 0 4.10493e-10 0 0)
(0.0126299 -1.62092e-07 0 1.81457e-10 0 0)
(0.0129498 -2.75071e-08 0 1.08706e-11 0 0)
(0.0129497 -1.4321e-07 0 1.3371e-11 0 0)
(0.0129549 -2.54822e-07 0 3.67955e-10 0 0)
(0.0129584 -2.93124e-07 0 1.74274e-10 0 0)
(0.0132349 -1.42148e-07 0 8.40115e-12 0 0)
(0.0132308 -8.13215e-08 0 1.69173e-11 0 0)
(0.0132371 -3.43233e-07 0 3.75869e-10 0 0)
(0.0132416 -2.17116e-07 0 1.57274e-10 0 0)
(0.0134783 -5.05282e-08 0 1.05509e-11 0 0)
(0.0134697 -1.33462e-07 0 1.66465e-11 0 0)
(0.0134759 -3.47212e-07 0 3.52031e-10 0 0)
(0.0134821 -3.00285e-07 0 1.4962e-10 0 0)
(0.0136793 -1.17213e-07 0 1.29226e-11 0 0)
(0.0136682 -1.02543e-07 0 1.86124e-11 0 0)
(0.0136746 -4.45254e-07 0 3.51545e-10 0 0)
(0.0136813 -2.68844e-07 0 1.37163e-10 0 0)
(0.0138423 -7.69728e-08 0 1.22133e-11 0 0)
(0.0138286 -9.70353e-08 0 2.03129e-11 0 0)
(0.0138348 -4.66436e-07 0 3.31197e-10 0 0)
(0.0138421 -3.06519e-07 0 1.2691e-10 0 0)
(0.0139667 -6.38864e-08 0 1.43834e-11 0 0)
(0.0139524 -1.485e-08 0 2.35521e-11 0 0)
(0.0139583 -5.31784e-07 0 3.27011e-10 0 0)
(0.0139655 -2.80976e-07 0 1.20416e-10 0 0)
(0.0140565 -7.21045e-08 0 1.8978e-11 0 0)
(0.0140412 -5.13016e-08 0 2.24467e-11 0 0)
(0.0140469 -6.14102e-07 0 3.15164e-10 0 0)
(0.0140539 -3.01084e-07 0 1.08168e-10 0 0)
(0.0141096 -7.84254e-08 0 1.97312e-11 0 0)
(0.014096 7.04589e-08 0 3.10731e-11 0 0)
(0.0141011 -6.2782e-07 0 3.01365e-10 0 0)
(0.0141071 -2.71404e-07 0 1.06625e-10 0 0)
(0.0141305 -3.39451e-08 0 1.93904e-11 0 0)
(0.0141176 4.91139e-08 0 3.30982e-11 0 0)
(0.0141225 -6.93409e-07 0 2.73816e-10 0 0)
(0.0141278 -2.58085e-07 0 9.87075e-11 0 0)
(0.0141144 -1.4987e-07 0 2.92504e-11 0 0)
(0.0141062 3.24118e-08 0 3.85084e-11 0 0)
(0.0141107 -7.33512e-07 0 2.51384e-10 0 0)
(0.0141143 -2.6238e-07 0 9.86089e-11 0 0)
(0.0140684 -9.54081e-08 0 2.20632e-11 0 0)
(0.0140624 1.1724e-07 0 5.31912e-11 0 0)
(0.0140668 -7.02692e-07 0 2.1953e-10 0 0)
(0.0140691 -1.97382e-07 0 9.48479e-11 0 0)
(0.0139848 -1.79589e-07 0 2.79493e-11 0 0)
(0.0139839 4.66771e-08 0 5.15604e-11 0 0)
(0.0139869 -7.88519e-07 0 2.05024e-10 0 0)
(0.0139868 -1.93643e-07 0 8.56436e-11 0 0)
(0.0138722 -1.86177e-07 0 3.22683e-11 0 0)
(0.0138714 7.00345e-08 0 6.18207e-11 0 0)
(0.0138718 -7.41327e-07 0 1.80735e-10 0 0)
(0.0138711 -1.17154e-07 0 7.95094e-11 0 0)
(0.013717 -2.65213e-07 0 2.96185e-11 0 0)
(0.0137183 1.02685e-07 0 6.53296e-11 0 0)
(0.0137154 -7.5787e-07 0 1.65976e-10 0 0)
(0.0137138 -9.44835e-08 0 6.80521e-11 0 0)
(0.0135257 -2.60419e-07 0 3.51116e-11 0 0)
(0.0135236 6.10334e-08 0 6.70214e-11 0 0)
(0.0135186 -7.30882e-07 0 1.46963e-10 0 0)
(0.0135192 -4.16402e-08 0 5.88547e-11 0 0)
(0.0132873 -3.71343e-07 0 3.57851e-11 0 0)
(0.0132867 1.34646e-07 0 7.50882e-11 0 0)
(0.0132804 -6.91542e-07 0 1.28204e-10 0 0)
(0.0132812 -3.6865e-08 0 4.93675e-11 0 0)
(0.0130059 -3.54853e-07 0 3.50628e-11 0 0)
(0.0130041 1.27674e-07 0 7.62734e-11 0 0)
(0.0129995 -6.78392e-07 0 1.16132e-10 0 0)
(0.0129998 9.6017e-10 0 4.4231e-11 0 0)
(0.0126732 -4.35401e-07 0 3.83788e-11 0 0)
(0.0126737 1.70869e-07 0 7.80501e-11 0 0)
(0.0126702 -6.3988e-07 0 1.0224e-10 0 0)
(0.0126683 1.20458e-08 0 3.88741e-11 0 0)
(0.0122934 -4.26564e-07 0 3.48103e-11 0 0)
(0.0122928 1.57414e-07 0 7.50672e-11 0 0)
(0.0122909 -6.19869e-07 0 9.39529e-11 0 0)
(0.0122882 3.60657e-08 0 3.69244e-11 0 0)
(0.01186 -4.66633e-07 0 3.69634e-11 0 0)
(0.0118604 1.77358e-07 0 6.96318e-11 0 0)
(0.0118593 -5.7638e-07 0 8.25384e-11 0 0)
(0.0118548 4.08142e-08 0 3.37393e-11 0 0)
(0.0113747 -4.39714e-07 0 3.03819e-11 0 0)
(0.0113746 1.56796e-07 0 6.29913e-11 0 0)
(0.0113749 -5.58848e-07 0 7.67e-11 0 0)
(0.0113692 5.4183e-08 0 3.20894e-11 0 0)
(0.010834 -4.55497e-07 0 3.22043e-11 0 0)
(0.0108371 1.56131e-07 0 5.37742e-11 0 0)
(0.0108361 -5.06121e-07 0 6.67521e-11 0 0)
(0.0108288 4.71991e-08 0 2.98166e-11 0 0)
(0.010241 -4.14484e-07 0 2.58641e-11 0 0)
(0.0102429 1.35493e-07 0 4.43821e-11 0 0)
(0.0102436 -4.7351e-07 0 6.04112e-11 0 0)
(0.0102359 5.91501e-08 0 2.62159e-11 0 0)
(0.00959569 -4.0871e-07 0 2.59806e-11 0 0)
(0.00959996 1.34172e-07 0 3.88486e-11 0 0)
(0.00959798 -4.11317e-07 0 5.17099e-11 0 0)
(0.00958922 6.18267e-08 0 2.3584e-11 0 0)
(0.0089003 -3.51686e-07 0 2.16742e-11 0 0)
(0.00890212 1.04171e-07 0 3.20921e-11 0 0)
(0.00890235 -3.57005e-07 0 4.43508e-11 0 0)
(0.00889444 6.41949e-08 0 2.12687e-11 0 0)
(0.00816068 -3.34523e-07 0 2.08673e-11 0 0)
(0.00816477 1.07782e-07 0 2.71714e-11 0 0)
(0.00816281 -3.06193e-07 0 3.84525e-11 0 0)