/*--------------------------------*- C++ -*----------------------------------*\
  =========                 |
  \\      /  F ield         | OpenFOAM: The Open Source CFD Toolbox
   \\    /   O peration     | Website:  https://openfoam.org
    \\  /    A nd           | Version:  dev
     \\/     M anipulation  |

   OpenFOAM for Windows 20.09 (v1)
   Built by CFD Support, www.cfdsupport.com (based on Symscape).
\*---------------------------------------------------------------------------*/
FoamFile
{
    version     2.0;
    format      ascii;
    class       surfaceScalarField;
    location    "2";
    object      alphaPhi0.water;
}
// * * * * * * * * * * * * * * * * * * * * * * * * * * * * * * * * * * * * * //

dimensions      [0 3 -1 0 0 0 0];

internalField   nonuniform List<scalar> 
217
(
1.35955e-08
-2.28187e-10
1.35832e-08
-1.08821e-09
1.35947e-08
-6.34224e-11
7.22138e-10
1.36074e-08
1.37024e-08
-2.19696e-10
1.3691e-08
-1.07679e-09
1.36991e-08
-7.14678e-11
7.05775e-10
1.37154e-08
1.38467e-08
-2.10412e-10
1.38327e-08
-1.06271e-09
1.38411e-08
-7.98201e-11
6.86689e-10
1.38601e-08
1.40357e-08
-2.00435e-10
1.40202e-08
-1.04712e-09
1.4029e-08
-8.85799e-11
6.66654e-10
1.4049e-08
1.42809e-08
-1.89945e-10
1.42642e-08
-1.0304e-09
1.42739e-08
-9.82541e-11
6.45571e-10
1.4295e-08
1.45955e-08
-1.79074e-10
1.45785e-08
-1.01328e-09
1.45889e-08
-1.08664e-10
6.24485e-10
1.461e-08
1.49951e-08
-1.68234e-10
1.49777e-08
-9.95843e-10
1.49889e-08
-1.19824e-10
6.02941e-10
1.50104e-08
1.54969e-08
-1.57495e-10
1.54802e-08
-9.79029e-10
1.54912e-08
-1.30788e-10
5.80984e-10
1.55132e-08
1.61209e-08
-1.46828e-10
1.61047e-08
-9.6284e-10
1.61164e-08
-1.42423e-10
5.59877e-10
1.61375e-08
1.68884e-08
-1.36101e-10
1.68734e-08
-9.47778e-10
1.68859e-08
-1.54873e-10
5.39551e-10
1.69063e-08
1.78239e-08
-1.25079e-10
1.78103e-08
-9.34113e-10
1.78239e-08
-1.68507e-10
5.20412e-10
1.78431e-08
1.89525e-08
-1.136e-10
1.89407e-08
-9.22251e-10
1.89564e-08
-1.84153e-10
5.02583e-10
1.89742e-08
2.03029e-08
-1.00228e-10
2.02927e-08
-9.12011e-10
2.03114e-08
-2.02886e-10
4.86021e-10
2.0328e-08
2.19018e-08
-8.50908e-11
2.18926e-08
-9.02945e-10
2.19166e-08
-2.26515e-10
4.69274e-10
2.19335e-08
2.34961e-08
2.34554e-08
2.37535e-08
2.37972e-08
1.36016e-08
3.29249e-10
1.3594e-08
9.19554e-11
1.35958e-08
-3.8748e-10
6.0929e-10
1.37139e-08
3.30833e-10
1.37042e-08
1.01593e-10
1.37036e-08
-3.86892e-10
6.02024e-10
1.38596e-08
3.31364e-10
1.38498e-08
1.11436e-10
1.38479e-08
-3.84984e-10
5.93896e-10
1.40494e-08
3.3102e-10
1.40395e-08
1.21362e-10
1.40371e-08
-3.82589e-10
5.85217e-10
1.42952e-08
3.30871e-10
1.42853e-08
1.31219e-10
1.42826e-08
-3.79894e-10
5.76412e-10
1.46099e-08
3.30943e-10
1.46003e-08
1.40863e-10
1.45975e-08
-3.77177e-10
5.67523e-10
1.50097e-08
3.31733e-10
1.50002e-08
1.50315e-10
1.49973e-08
-3.74363e-10
5.58955e-10
1.55113e-08
3.33572e-10
1.55021e-08
1.59512e-10
1.54993e-08
-3.71601e-10
5.50607e-10
1.61353e-08
3.35836e-10
1.61263e-08
1.68422e-10
1.61236e-08
-3.68854e-10
5.42676e-10
1.69028e-08
3.39327e-10
1.68941e-08
1.77094e-10
1.68916e-08
-3.66403e-10
5.35167e-10
1.78381e-08
3.44361e-10
1.783e-08
1.85169e-10
1.78281e-08
-3.64589e-10
5.2845e-10
1.89667e-08
3.51897e-10
1.89585e-08
1.93327e-10
1.89575e-08
-3.63575e-10
5.2198e-10
2.03168e-08
3.63079e-10
2.03093e-08
2.00858e-10
2.03106e-08
-3.64848e-10
5.16296e-10
2.19168e-08
3.797e-10
2.19081e-08
2.09543e-10
2.19112e-08
-3.67886e-10
5.1056e-10
2.37399e-08
2.37129e-08
2.36978e-08
)
;

boundaryField
{
    topWall
    {
        type            calculated;
        value           nonuniform List<scalar> 0();
    }
    botWall
    {
        type            calculated;
        value           nonuniform List<scalar> 0();
    }
    inlet
    {
        type            cyclic;
        value           nonuniform List<scalar> 
15
(
-2.37301e-08
-2.1917e-08
-2.03163e-08
-1.8964e-08
-1.78349e-08
-1.68991e-08
-1.61315e-08
-1.55077e-08
-1.50059e-08
-1.46064e-08
-1.42914e-08
-1.40457e-08
-1.3856e-08
-1.37109e-08
-1.36001e-08
)
;
    }
    outlet
    {
        type            cyclic;
        value           nonuniform List<scalar> 
15
(
2.37301e-08
2.1917e-08
2.03163e-08
1.8964e-08
1.78349e-08
1.68991e-08
1.61315e-08
1.55077e-08
1.50059e-08
1.46064e-08
1.42914e-08
1.40457e-08
1.3856e-08
1.37109e-08
1.36001e-08
)
;
    }
    fixWall
    {
        type            empty;
        value           nonuniform List<scalar> 0();
    }
    procBoundary3to2
    {
        type            processor;
        value           nonuniform List<scalar> 8(2.32524e-10 1.10017e-09 5.23932e-11 -7.34006e-10 -3.23856e-10 -8.55678e-11 3.84687e-10 -6.12892e-10);
    }
    procBoundary3to4
    {
        type            processor;
        value           nonuniform List<scalar> 8(-3.86473e-13 -3.79455e-12 -3.101e-12 4.52214e-10 3.99851e-10 2.15803e-10 -2.39647e-12 4.99721e-10);
    }
}


// ************************************************************************* //
