/*--------------------------------*- C++ -*----------------------------------*\
  =========                 |
  \\      /  F ield         | OpenFOAM: The Open Source CFD Toolbox
   \\    /   O peration     | Website:  https://openfoam.org
    \\  /    A nd           | Version:  dev
     \\/     M anipulation  |

   OpenFOAM for Windows 20.09 (v1)
   Built by CFD Support, www.cfdsupport.com (based on Symscape).
\*---------------------------------------------------------------------------*/
FoamFile
{
    version     2.0;
    format      ascii;
    class       volSymmTensorField;
    location    "2";
    object      devReff;
}
// * * * * * * * * * * * * * * * * * * * * * * * * * * * * * * * * * * * * * //

dimensions      [0 2 -2 0 0 0 0];

internalField   nonuniform List<symmTensor> 
120
(
(8.04789e-08 -2.99428e-05 -0 -8.55846e-08 -0 5.10566e-09)
(9.99677e-08 -2.84469e-05 -0 -1.11191e-07 -0 1.12228e-08)
(-8.27889e-08 -2.68451e-05 -0 8.27409e-08 -0 4.79681e-11)
(-1.79308e-07 -2.78218e-05 -0 2.08721e-07 -0 -2.94133e-08)
(8.32203e-08 -3.85193e-05 -0 -7.98167e-08 -0 -3.40356e-09)
(1.40784e-07 -3.7389e-05 -0 -1.49543e-07 -0 8.75874e-09)
(-8.96457e-08 -3.65152e-05 -0 1.01451e-07 -0 -1.18055e-08)
(-1.72885e-07 -3.72316e-05 -0 1.6526e-07 -0 7.62499e-09)
(1.0204e-07 -4.98893e-05 -0 -1.12011e-07 -0 9.9706e-09)
(1.62014e-07 -4.90632e-05 -0 -1.64161e-07 -0 2.14714e-09)
(-7.1967e-08 -4.85725e-05 -0 6.73795e-08 -0 4.5875e-09)
(-2.17351e-07 -4.91756e-05 -0 2.34054e-07 -0 -1.6703e-08)
(8.90845e-08 -6.42055e-05 -0 -7.85047e-08 -0 -1.05798e-08)
(1.90823e-07 -6.36087e-05 -0 -2.01508e-07 -0 1.06851e-08)
(-8.39577e-08 -6.33981e-05 -0 8.73894e-08 -0 -3.43165e-09)
(-2.15602e-07 -6.39028e-05 -0 2.15351e-07 -0 2.51212e-10)
(1.1953e-07 -8.19412e-05 -0 -1.36182e-07 -0 1.66522e-08)
(1.92824e-07 -8.157e-05 -0 -1.94744e-07 -0 1.92042e-09)
(-8.84485e-08 -8.15499e-05 -0 9.16348e-08 -0 -3.18635e-09)
(-2.27174e-07 -8.19545e-05 -0 2.30052e-07 -0 -2.87835e-09)
(9.66349e-08 -0.000103654 -0 -8.66998e-08 -0 -9.93508e-09)
(2.10589e-07 -0.000103427 -0 -2.23978e-07 -0 1.3389e-08)
(-9.0785e-08 -0.000103527 -0 8.935e-08 -0 1.435e-09)
(-2.42382e-07 -0.000103852 -0 2.54948e-07 -0 -1.25659e-08)
(1.21737e-07 -0.000129857 -0 -1.35236e-07 -0 1.34991e-08)
(2.0375e-07 -0.000129803 -0 -2.08451e-07 -0 4.70161e-09)
(-1.01525e-07 -0.000129991 -0 1.04798e-07 -0 -3.27293e-09)
(-2.33899e-07 -0.000130201 -0 2.35583e-07 -0 -1.68401e-09)
(9.36862e-08 -0.000161129 -0 -7.90633e-08 -0 -1.46229e-08)
(2.13967e-07 -0.000161187 -0 -2.3143e-07 -0 1.74636e-08)
(-1.02647e-07 -0.000161502 -0 1.00984e-07 -0 1.66245e-09)
(-2.47947e-07 -0.000161585 -0 2.64591e-07 -0 -1.66447e-08)
(1.30685e-07 -0.000198063 -0 -1.5304e-07 -0 2.23543e-08)
(1.80197e-07 -0.000198132 -0 -1.70098e-07 -0 -1.00994e-08)
(-1.18183e-07 -0.000198603 -0 1.2616e-07 -0 -7.97696e-09)
(-2.22632e-07 -0.000198661 -0 2.18805e-07 -0 3.82684e-09)
(8.73291e-08 -0.000241126 -0 -6.3297e-08 -0 -2.40321e-08)
(2.21604e-07 -0.000241183 -0 -2.61195e-07 -0 3.95911e-08)
(-1.07151e-07 -0.000241805 -0 9.3609e-08 -0 1.35419e-08)
(-2.43335e-07 -0.000242029 -0 2.67182e-07 -0 -2.38473e-08)
(1.44361e-07 -0.00029097 -0 -1.73014e-07 -0 2.86528e-08)
(1.47987e-07 -0.000290914 -0 -1.24794e-07 -0 -2.3193e-08)
(-1.53158e-07 -0.000291667 -0 1.69302e-07 -0 -1.61443e-08)
(-2.00243e-07 -0.000292126 -0 1.8825e-07 -0 1.1993e-08)
(1.22148e-07 -0.000347921 -0 -1.1521e-07 -0 -6.93881e-09)
(1.63202e-07 -0.000347838 -0 -1.64367e-07 -0 1.165e-09)
(-1.72655e-07 -0.00034857 -0 1.85514e-07 -0 -1.28587e-08)
(-2.31953e-07 -0.000349669 -0 2.59904e-07 -0 -2.7951e-08)
(1.59176e-07 -0.000412394 -0 -1.76883e-07 -0 1.77074e-08)
(1.97589e-07 -0.000412213 -0 -2.42252e-07 -0 4.46626e-08)
(-1.7025e-07 -0.000412819 -0 1.44041e-07 -0 2.6209e-08)
(-2.0292e-07 -0.000414747 -0 2.02538e-07 -0 3.81729e-10)
(2.16716e-07 -0.000485734 -0 -2.57223e-07 -0 4.0507e-08)
(1.35186e-07 -0.000485993 -0 -1.1943e-07 -0 -1.57554e-08)
(-2.65382e-07 -0.000485212 -0 2.87979e-07 -0 -2.25968e-08)
(-1.92188e-07 -0.000487583 -0 1.65125e-07 -0 2.70632e-08)
(3.04441e-08 -0.000779294 -0 8.98778e-08 -0 -1.20322e-07)
(2.43638e-07 -0.000781201 -0 -3.13824e-07 -0 7.01861e-08)
(-1.94442e-07 -0.000775306 -0 1.4112e-07 -0 5.3322e-08)
(-2.30834e-07 -0.000776205 -0 2.38023e-07 -0 -7.18838e-09)
(1.18984e-08 -2.86887e-05 -0 -3.10386e-09 -0 -8.79456e-09)
(1.13006e-07 -2.91914e-05 -0 -1.11925e-07 -0 -1.08094e-09)
(8.42088e-09 -2.84394e-05 -0 -3.00712e-08 -0 2.16503e-08)
(-7.7768e-08 -2.84424e-05 -0 1.02599e-07 -0 -2.48308e-08)
(1.75844e-08 -3.79551e-05 -0 -3.8982e-08 -0 2.13977e-08)
(1.17469e-07 -3.82982e-05 -0 -1.18396e-07 -0 9.26945e-10)
(-4.80582e-09 -3.78612e-05 -0 4.64132e-09 -0 1.64501e-10)
(-6.8729e-08 -3.79104e-05 -0 6.94005e-08 -0 -6.71478e-10)
(-2.25128e-08 -4.95524e-05 -0 2.76658e-08 -0 -5.15307e-09)
(1.15921e-07 -4.97722e-05 -0 -1.13634e-07 -0 -2.28655e-09)
(1.31511e-08 -4.95115e-05 -0 -2.44579e-08 -0 1.13068e-08)
(-9.29356e-08 -4.94751e-05 -0 1.08445e-07 -0 -1.55095e-08)
(-2.36369e-08 -6.40313e-05 -0 2.10484e-08 -0 2.58855e-09)
(1.09926e-07 -6.41416e-05 -0 -1.00989e-07 -0 -8.93719e-09)
(1.47929e-08 -6.40324e-05 -0 -2.24985e-08 -0 7.70561e-09)
(-8.56649e-08 -6.39557e-05 -0 8.81818e-08 -0 -2.51697e-09)
(-1.64866e-08 -8.18945e-05 -0 5.16531e-09 -0 1.13213e-08)
(1.24696e-07 -8.18866e-05 -0 -1.30398e-07 -0 5.70168e-09)
(1.0715e-08 -8.19216e-05 -0 -1.12374e-08 -0 5.22413e-10)
(-9.65993e-08 -8.17995e-05 -0 1.07596e-07 -0 -1.0997e-08)
(-2.99107e-08 -0.000103695 -0 3.33268e-08 -0 -3.41616e-09)
(1.13096e-07 -0.00010358 -0 -1.07413e-07 -0 -5.68277e-09)
(2.71079e-08 -0.000103721 -0 -4.20712e-08 -0 1.49633e-08)
(-9.53476e-08 -0.000103614 -0 1.04532e-07 -0 -9.18472e-09)
(-1.83726e-08 -0.000129969 -0 1.54964e-08 -0 2.87623e-09)
(1.18985e-07 -0.000129778 -0 -1.19187e-07 -0 2.01053e-10)
(1.55534e-08 -0.000130027 -0 -1.98433e-08 -0 4.28993e-09)
(-1.0329e-07 -0.000129879 -0 1.20963e-07 -0 -1.76726e-08)
(-1.10761e-08 -0.000161267 -0 7.25901e-09 -0 3.81713e-09)
(1.13195e-07 -0.000161056 -0 -1.08896e-07 -0 -4.29884e-09)
(2.3854e-08 -0.000161343 -0 -3.68146e-08 -0 1.29606e-08)
(-8.55068e-08 -0.000161219 -0 8.83186e-08 -0 -2.81175e-09)
(-2.68417e-09 -0.00019819 -0 -7.75445e-10 -0 3.45962e-09)
(1.18601e-07 -0.00019798 -0 -1.2049e-07 -0 1.88837e-09)
(8.98638e-09 -0.000198361 -0 -9.95437e-09 -0 9.67986e-10)
(-1.00307e-07 -0.000198249 -0 1.20063e-07 -0 -1.97563e-08)
(4.7459e-09 -0.000241321 -0 -4.20177e-09 -0 -5.44136e-10)
(1.05187e-07 -0.000241046 -0 -9.80834e-08 -0 -7.10411e-09)
(2.17188e-08 -0.000241424 -0 -3.9396e-08 -0 1.76772e-08)
(-7.78729e-08 -0.000241437 -0 8.09285e-08 -0 -3.05561e-09)
(3.64331e-08 -0.000291151 -0 -4.87901e-08 -0 1.23569e-08)
(1.21848e-07 -0.000290755 -0 -1.30095e-07 -0 8.24731e-09)
(-2.9682e-09 -0.000291251 -0 3.16499e-09 -0 -1.96791e-10)
(-8.717e-08 -0.000291472 -0 1.01796e-07 -0 -1.46256e-08)
(6.99141e-08 -0.00034825 -0 -9.13867e-08 -0 2.14726e-08)
(1.01991e-07 -0.000347771 -0 -9.46681e-08 -0 -7.32303e-09)
(-1.64625e-08 -0.000348036 -0 1.51927e-08 -0 1.2698e-09)
(-7.8681e-08 -0.000348649 -0 9.00126e-08 -0 -1.13316e-08)
(6.45747e-08 -0.000413232 -0 -4.44484e-08 -0 -2.01263e-08)
(1.11962e-07 -0.000412167 -0 -1.03049e-07 -0 -8.91248e-09)
(1.25614e-08 -0.00041237 -0 -5.48328e-08 -0 4.22714e-08)
(-7.78269e-08 -0.000413656 -0 8.51552e-08 -0 -7.32833e-09)
(1.18334e-07 -0.000485777 -0 -1.04875e-07 -0 -1.34592e-08)
(1.46586e-07 -0.00048487 -0 -1.54956e-07 -0 8.37082e-09)
(-7.60551e-08 -0.000484734 -0 8.68932e-08 -0 -1.08382e-08)
(-4.74124e-08 -0.000486313 -0 2.49202e-08 -0 2.24922e-08)
(1.286e-07 -0.000776854 -0 -8.47361e-08 -0 -4.38636e-08)
(9.45216e-08 -0.000776266 -0 -3.33628e-08 -0 -6.11588e-08)
(-5.86833e-08 -0.000776117 -0 4.19014e-08 -0 1.6782e-08)
(-7.32714e-08 -0.000777291 -0 4.10564e-08 -0 3.2215e-08)
)
;

boundaryField
{
    topWall
    {
        type            calculated;
        value           nonuniform List<symmTensor> 0();
    }
    botWall
    {
        type            calculated;
        value           nonuniform List<symmTensor> 0();
    }
    inlet
    {
        type            cyclic;
    }
    outlet
    {
        type            cyclic;
    }
    fixWall
    {
        type            empty;
    }
    procBoundary3to2
    {
        type            processor;
        value           nonuniform List<symmTensor> 8((8.40925e-08 -2.2928e-05 -0 -8.07985e-08 -0 -3.29395e-09) (5.04894e-08 -2.14515e-05 -0 -7.65801e-08 -0 2.60906e-08) (-9.39753e-08 -1.96193e-05 -0 8.83151e-08 -0 5.66017e-09) (-1.17015e-07 -2.07873e-05 -0 1.1782e-07 -0 -8.04303e-10) (5.21615e-08 -2.1802e-05 -0 -6.00225e-08 -0 7.86095e-09) (1.04223e-07 -2.22781e-05 -0 -1.01303e-07 -0 -2.9205e-09) (-2.53501e-08 -2.11897e-05 -0 1.86486e-08 -0 6.70144e-09) (-2.29761e-08 -2.10148e-05 -0 3.06209e-08 -0 -7.64481e-09));
    }
    procBoundary3to4
    {
        type            processor;
        value           nonuniform List<symmTensor> 8((1.58642e-07 -0.0031117 -0 -2.72658e-07 -0 1.14017e-07) (1.85172e-07 -0.00311892 -0 -8.35033e-08 -0 -1.01669e-07) (1.50119e-07 -0.00307647 -0 -3.74736e-07 -0 2.24617e-07) (-2.94224e-07 -0.00303037 -0 3.16294e-07 -0 -2.20696e-08) (-2.89955e-08 -0.00308565 -0 1.84937e-07 -0 -1.55941e-07) (1.94894e-07 -0.00311284 -0 -2.2698e-07 -0 3.2086e-08) (5.57054e-08 -0.0031073 -0 -2.08484e-07 -0 1.52779e-07) (-4.01579e-07 -0.00307308 -0 6.25665e-07 -0 -2.24086e-07));
    }
}


// ************************************************************************* //
