/*--------------------------------*- C++ -*----------------------------------*\
  =========                 |
  \\      /  F ield         | OpenFOAM: The Open Source CFD Toolbox
   \\    /   O peration     | Website:  https://openfoam.org
    \\  /    A nd           | Version:  dev
     \\/     M anipulation  |

   OpenFOAM for Windows 20.09 (v1)
   Built by CFD Support, www.cfdsupport.com (based on Symscape).
\*---------------------------------------------------------------------------*/
FoamFile
{
    version     2.0;
    format      ascii;
    class       volScalarField;
    location    "2";
    object      epsilon;
}
// * * * * * * * * * * * * * * * * * * * * * * * * * * * * * * * * * * * * * //

dimensions      [0 2 -3 0 0 0 0];

internalField   nonuniform List<scalar> 
120
(
3.79508e-16
3.79354e-16
3.79306e-16
3.79368e-16
3.78371e-16
3.78215e-16
3.78155e-16
3.78223e-16
3.78338e-16
3.7818e-16
3.78107e-16
3.78181e-16
3.79437e-16
3.79278e-16
3.79188e-16
3.7927e-16
3.81713e-16
3.81552e-16
3.81443e-16
3.81533e-16
3.85227e-16
3.85066e-16
3.84934e-16
3.85033e-16
3.90063e-16
3.89901e-16
3.89742e-16
3.89851e-16
3.96324e-16
3.96161e-16
3.9597e-16
3.96089e-16
4.04134e-16
4.03971e-16
4.03743e-16
4.03873e-16
4.13647e-16
4.13484e-16
4.1321e-16
4.13351e-16
4.25043e-16
4.24881e-16
4.24553e-16
4.24703e-16
4.38537e-16
4.38377e-16
4.37985e-16
4.3814e-16
4.54381e-16
4.54225e-16
4.53756e-16
4.53911e-16
4.82829e-16
4.82809e-16
4.82122e-16
4.82001e-16
5.27734e-16
5.27736e-16
5.2687e-16
5.26658e-16
3.79347e-16
3.79345e-16
3.79353e-16
3.79372e-16
3.78205e-16
3.78206e-16
3.78212e-16
3.78232e-16
3.78168e-16
3.78172e-16
3.78175e-16
3.78196e-16
3.79263e-16
3.79269e-16
3.7927e-16
3.79291e-16
3.81533e-16
3.81543e-16
3.81542e-16
3.81562e-16
3.85043e-16
3.85056e-16
3.85053e-16
3.85073e-16
3.89873e-16
3.89892e-16
3.89885e-16
3.89904e-16
3.96127e-16
3.96153e-16
3.9614e-16
3.96158e-16
4.03931e-16
4.03965e-16
4.03945e-16
4.03962e-16
4.13437e-16
4.13481e-16
4.13451e-16
4.13466e-16
4.24825e-16
4.24881e-16
4.2484e-16
4.2485e-16
4.38308e-16
4.38381e-16
4.38324e-16
4.38326e-16
4.54139e-16
4.54235e-16
4.54159e-16
4.54147e-16
4.82474e-16
4.82812e-16
4.82757e-16
4.82485e-16
5.27308e-16
5.27753e-16
5.27668e-16
5.27297e-16
)
;

boundaryField
{
    topWall
    {
        type            epsilonWallFunction;
        value           nonuniform List<scalar> 0();
    }
    botWall
    {
        type            epsilonWallFunction;
        value           nonuniform List<scalar> 0();
    }
    inlet
    {
        type            cyclic;
    }
    outlet
    {
        type            cyclic;
    }
    fixWall
    {
        type            empty;
    }
    procBoundary3to2
    {
        type            processor;
        value           nonuniform List<scalar> 8(3.8064e-16 3.80488e-16 3.80451e-16 3.80507e-16 3.80483e-16 3.8048e-16 3.80489e-16 3.80508e-16);
    }
    procBoundary3to4
    {
        type            processor;
        value           nonuniform List<scalar> 8(5.81961e-16 5.81997e-16 5.8092e-16 5.8053e-16 5.81445e-16 5.82047e-16 5.81926e-16 5.81385e-16);
    }
}


// ************************************************************************* //
