/*--------------------------------*- C++ -*----------------------------------*\
  =========                 |
  \\      /  F ield         | OpenFOAM: The Open Source CFD Toolbox
   \\    /   O peration     | Website:  https://openfoam.org
    \\  /    A nd           | Version:  dev
     \\/     M anipulation  |

   OpenFOAM for Windows 20.09 (v1)
   Built by CFD Support, www.cfdsupport.com (based on Symscape).
\*---------------------------------------------------------------------------*/
FoamFile
{
    version     2.0;
    format      ascii;
    class       volTensorField;
    location    "2";
    object      gradU;
}
// * * * * * * * * * * * * * * * * * * * * * * * * * * * * * * * * * * * * * //

dimensions      [0 0 -1 0 0 0 0];

internalField   nonuniform List<tensor> 
120
(
(-0.000199739 -0.000338256 0 0.159035 0.000240329 0 0 0 0)
(-0.000235174 -2.91814e-06 0 0.150771 0.000324395 0 0 0 0)
(0.000219518 0.000356678 0 0.141922 -0.000219136 0 0 0 0)
(0.000397221 0.000149634 0 0.147306 -0.000631057 0 0 0 0)
(-0.000229553 -0.000335198 0 0.204487 0.000202495 0 0 0 0)
(-0.000349867 -1.01883e-05 0 0.198172 0.000419499 0 0 0 0)
(0.000206277 0.000351327 0 0.193179 -0.00030013 0 0 0 0)
(0.000478351 0.000154349 0 0.197173 -0.000417733 0 0 0 0)
(-0.000243985 -0.000328169 0 0.264741 0.000323251 0 0 0 0)
(-0.000423647 -1.12952e-05 0 0.260046 0.000440717 0 0 0 0)
(0.000202869 0.000342724 0 0.257091 -0.000166399 0 0 0 0)
(0.000531717 0.000157303 0 0.260473 -0.000664506 0 0 0 0)
(-0.00026411 -0.000322378 0 0.340612 0.000180001 0 0 0 0)
(-0.000477366 -1.83491e-05 0 0.337144 0.000562312 0 0 0 0)
(0.000213394 0.000332907 0 0.335677 -0.000240676 0 0 0 0)
(0.000572011 0.000155673 0 0.338529 -0.000570014 0 0 0 0)
(-0.000272625 -0.000314792 0 0.434603 0.000405011 0 0 0 0)
(-0.000505894 -1.83065e-05 0 0.432339 0.000521161 0 0 0 0)
(0.000225945 0.000323852 0 0.43189 -0.000251276 0 0 0 0)
(0.000594382 0.000160499 0 0.434199 -0.000617265 0 0 0 0)
(-0.00028241 -0.000308454 0 0.549675 0.000203426 0 0 0 0)
(-0.000522579 -2.92872e-05 0 0.548191 0.000629021 0 0 0 0)
(0.000244383 0.000313933 0 0.54838 -0.000232975 0 0 0 0)
(0.000609012 0.000160133 0 0.550257 -0.000708911 0 0 0 0)
(-0.000286829 -0.000299285 0 0.68854 0.000394147 0 0 0 0)
(-0.000527477 -2.55799e-05 0 0.687982 0.000564855 0 0 0 0)
(0.000260368 0.000301553 0 0.688651 -0.000286388 0 0 0 0)
(0.00061537 0.000162759 0 0.689905 -0.000628758 0 0 0 0)
(-0.000287019 -0.000292917 0 0.854277 0.000170767 0 0 0 0)
(-0.000520733 -4.06295e-05 0 0.854334 0.000659569 0 0 0 0)
(0.00027642 0.000294039 0 0.855668 -0.000263203 0 0 0 0)
(0.00061295 0.000164348 0 0.856235 -0.000745275 0 0 0 0)
(-0.000287077 -0.000284268 0 1.05002 0.000464794 0 0 0 0)
(-0.000504285 -3.28127e-05 0 1.05013 0.000423996 0 0 0 0)
(0.000292045 0.000278139 0 1.05232 -0.000355462 0 0 0 0)
(0.000600115 0.000166994 0 1.05274 -0.000569692 0 0 0 0)
(-0.000295107 -0.000279675 0 1.27825 0.000104052 0 0 0 0)
(-0.000482335 -5.43004e-05 0 1.27832 0.000797084 0 0 0 0)
(0.000319836 0.000277478 0 1.28129 -0.000212178 0 0 0 0)
(0.000581641 0.00017046 0 1.28259 -0.000771228 0 0 0 0)
(-0.000306628 -0.000267274 0 1.54241 0.000534418 0 0 0 0)
(-0.000453626 -3.80832e-05 0 1.54188 0.000269242 0 0 0 0)
(0.000363086 0.000252 0 1.54558 -0.000491433 0 0 0 0)
(0.000562424 0.000170692 0 1.5481 -0.00046708 0 0 0 0)
(-0.000342081 -0.000270046 0 1.84425 0.000286918 0 0 0 0)
(-0.000429398 -7.13979e-05 0 1.84361 0.00043866 0 0 0 0)
(0.000423461 0.000265206 0 1.84715 -0.000525688 0 0 0 0)
(0.000540605 0.000181351 0 1.85307 -0.000762815 0 0 0 0)
(-0.000374891 -0.000255487 0 2.18594 0.000515665 0 0 0 0)
(-0.000405255 -5.16266e-05 0 2.18478 0.000760323 0 0 0 0)
(0.000520617 0.000231976 0 2.18771 -0.000312256 0 0 0 0)
(0.00053875 0.000184438 0 2.19798 -0.000535715 0 0 0 0)
(-0.000466953 -0.000253289 0 2.57465 0.000788984 0 0 0 0)
(-0.000399995 -8.51966e-05 0 2.57585 0.000274739 0 0 0 0)
(0.000643381 0.000243605 0 2.57138 -0.000823025 0 0 0 0)
(0.000581017 0.00018763 0 2.584 -0.000365864 0 0 0 0)
(-0.00039953 -0.0002508 0 4.13051 -0.000557029 0 0 0 0)
(-0.000459647 -7.84934e-05 0 4.14044 0.00101763 0 0 0 0)
(0.000656575 0.000221299 0 4.1089 -0.000232665 0 0 0 0)
(0.000592662 0.000202192 0 4.11368 -0.000649809 0 0 0 0)
(-5.48364e-05 -9.55941e-05 0 0.152146 -1.50803e-05 0 0 0 0)
(-0.000302331 -0.000241481 0 0.154956 0.000293737 0 0 0 0)
(3.5058e-05 7.71723e-05 0 0.150652 0.000137062 0 0 0 0)
(0.000140284 9.47644e-05 0 0.15065 -0.000337688 0 0 0 0)
(1.01052e-05 -8.66608e-05 0 0.201249 0.000160006 0 0 0 0)
(-0.000308837 -0.000242789 0 0.203223 0.000316206 0 0 0 0)
(1.31713e-05 7.05319e-05 0 0.200594 -1.18636e-05 0 0 0 0)
(0.000180353 9.86286e-05 0 0.200827 -0.000185691 0 0 0 0)
(4.60032e-05 -8.33618e-05 0 0.262711 -8.69701e-05 0 0 0 0)
(-0.000313249 -0.000244345 0 0.264037 0.000295071 0 0 0 0)
(-4.88755e-06 6.88074e-05 0 0.262342 9.47763e-05 0 0 0 0)
(0.000205179 9.83371e-05 0 0.26212 -0.00032848 0 0 0 0)
(6.94975e-05 -7.06679e-05 0 0.339437 -4.89186e-05 0 0 0 0)
(-0.000314987 -0.00023976 0 0.34019 0.000243937 0 0 0 0)
(-1.87814e-05 6.01394e-05 0 0.339312 8.0041e-05 0 0 0 0)
(0.000220342 0.000102436 0 0.338863 -0.000240352 0 0 0 0)
(7.36911e-05 -6.9796e-05 0 0.43411 1.63135e-05 0 0 0 0)
(-0.000315335 -0.000242196 0 0.434241 0.000360663 0 0 0 0)
(-2.70104e-05 6.07359e-05 0 0.434124 3.11636e-05 0 0 0 0)
(0.000226846 0.000100003 0 0.433437 -0.000314272 0 0 0 0)
(7.02105e-05 -5.43691e-05 0 0.549639 -9.73689e-05 0 0 0 0)
(-0.000314764 -0.000239513 0 0.549214 0.000269586 0 0 0 0)
(-3.21831e-05 4.88905e-05 0 0.549672 0.000151142 0 0 0 0)
(0.000228332 0.000108667 0 0.549043 -0.00030135 0 0 0 0)
(5.63095e-05 -5.34877e-05 0 0.688887 -3.34435e-05 0 0 0 0)
(-0.000314779 -0.000238054 0 0.68806 0.000316377 0 0 0 0)
(-2.98481e-05 5.12203e-05 0 0.689091 6.39531e-05 0 0 0 0)
(0.000226886 0.000100875 0 0.688259 -0.000367383 0 0 0 0)
(3.94672e-05 -3.86168e-05 0 0.854753 -9.12096e-06 0 0 0 0)
(-0.000311359 -0.000237889 0 0.853833 0.000277183 0 0 0 0)
(-2.88677e-05 3.74945e-05 0 0.855082 0.000131904 0 0 0 0)
(0.000219142 0.00011417 0 0.854349 -0.000241495 0 0 0 0)
(1.6281e-05 -3.64467e-05 0 1.05044 1.12229e-05 0 0 0 0)
(-0.000309289 -0.000235703 0 1.04953 0.000324302 0 0 0 0)
(-2.12487e-05 4.25756e-05 0 1.05127 2.89442e-05 0 0 0 0)
(0.00021346 0.000101522 0 1.05062 -0.000370522 0 0 0 0)
(-1.40186e-05 -2.37169e-05 0 1.27903 9.69272e-06 0 0 0 0)
(-0.000297573 -0.000237594 0 1.27778 0.000241095 0 0 0 0)
(-1.07104e-05 2.59141e-05 0 1.27952 0.000151244 0 0 0 0)
(0.000198266 0.000121435 0 1.2795 -0.000222558 0 0 0 0)
(-6.3802e-05 -1.95747e-05 0 1.54312 0.00016204 0 0 0 0)
(-0.000301041 -0.000233344 0 1.54124 0.000366607 0 0 0 0)
(7.34424e-06 3.48481e-05 0 1.5436 -8.90873e-06 0 0 0 0)
(0.000192243 0.000100736 0 1.5447 -0.000308516 0 0 0 0)
(-0.00012837 -9.82214e-06 0 1.84573 0.000299077 0 0 0 0)
(-0.000289683 -0.000240443 0 1.84343 0.000231464 0 0 0 0)
(4.69907e-05 1.4662e-05 0 1.84458 -3.68958e-05 0 0 0 0)
(0.000178476 0.00013049 0 1.84771 -0.000268562 0 0 0 0)
(-0.000224457 -3.00335e-06 0 2.19013 6.44536e-05 0 0 0 0)
(-0.000320316 -0.000238944 0 2.18472 0.000249462 0 0 0 0)
(7.87314e-05 2.65143e-05 0 2.18554 0.000257326 0 0 0 0)
(0.000186821 0.000106133 0 2.19227 -0.000245081 0 0 0 0)
(-0.000349252 3.26414e-06 0 2.57462 0.000242251 0 0 0 0)
(-0.000366269 -0.000237229 0 2.57005 0.000432817 0 0 0 0)
(0.000172825 6.41965e-06 0 2.56908 -0.000258988 0 0 0 0)
(0.000185247 0.000134796 0 2.57732 -6.43428e-06 0 0 0 0)
(-0.000457028 1.0308e-05 0 4.11731 0.000108312 0 0 0 0)
(-0.000412553 -0.000247298 0 4.11446 -7.36595e-05 0 0 0 0)
(0.000199983 1.91934e-05 0 4.1134 -6.65664e-05 0 0 0 0)
(0.000279539 0.000123599 0 4.11952 -2.34297e-05 0 0 0 0)
)
;

boundaryField
{
    topWall
    {
        type            extrapolatedCalculated;
        value           nonuniform List<tensor> 0();
    }
    botWall
    {
        type            extrapolatedCalculated;
        value           nonuniform List<tensor> 0();
    }
    inlet
    {
        type            cyclic;
    }
    outlet
    {
        type            cyclic;
    }
    fixWall
    {
        type            empty;
    }
    procBoundary3to2
    {
        type            processor;
        value           nonuniform List<tensor> 8((-0.000231574 -0.000346233 0 0.121865 0.000205387 0 0 0 0) (-6.46568e-05 -2.53051e-06 0 0.113695 0.000272077 0 0 0 0) (0.000264034 0.000367251 0 0.103615 -0.000219036 0 0 0 0) (0.000307959 0.000150948 0 0.110022 -0.000314354 0 0 0 0) (-0.000117397 -0.000102074 0 0.115653 0.000179891 0 0 0 0) (-0.000283931 -0.000245325 0 0.118319 0.000260713 0 0 0 0) (8.49366e-05 8.10557e-05 0 0.112224 -3.16601e-05 0 0 0 0) (4.06279e-05 9.69074e-05 0 0.111281 -0.000101404 0 0 0 0));
    }
    procBoundary3to4
    {
        type            processor;
        value           nonuniform List<tensor> 8((-0.000118256 -0.000235938 0 16.4922 0.00102469 0 0 0 0) (-0.000760128 -7.97905e-05 0 16.5303 -4.81382e-05 0 0 0 0) (0.000197417 0.000215814 0 16.3051 0.00158828 0 0 0 0) (0.00072121 0.000193312 0 16.0608 -0.000896664 0 0 0 0) (-0.000336406 1.28666e-05 0 16.3539 -0.000903327 0 0 0 0) (-0.00043144 -0.000240143 0 16.4983 0.000686524 0 0 0 0) (0.000257245 7.25682e-06 0 16.4687 0.000957348 0 0 0 0) (0.000470357 0.000126621 0 16.2872 -0.00225184 0 0 0 0));
    }
}


// ************************************************************************* //
