/*--------------------------------*- C++ -*----------------------------------*\
  =========                 |
  \\      /  F ield         | OpenFOAM: The Open Source CFD Toolbox
   \\    /   O peration     | Website:  https://openfoam.org
    \\  /    A nd           | Version:  dev
     \\/     M anipulation  |

   OpenFOAM for Windows 20.09 (v1)
   Built by CFD Support, www.cfdsupport.com (based on Symscape).
\*---------------------------------------------------------------------------*/
FoamFile
{
    version     2.0;
    format      ascii;
    class       volVectorField;
    location    "2";
    object      gradp;
}
// * * * * * * * * * * * * * * * * * * * * * * * * * * * * * * * * * * * * * //

dimensions      [1 -2 -2 0 0 0 0];

internalField   nonuniform List<vector> 
120
(
(3.74693 -98.0715 0)
(-1.23256 -98.6444 0)
(-1.23399 -98.222 0)
(-1.24895 -98.3128 0)
(3.73485 -98.1602 0)
(-1.23926 -98.8203 0)
(-1.22197 -98.5614 0)
(-1.24131 -98.11 0)
(3.7349 -98.1075 0)
(-1.23925 -98.1118 0)
(-1.22215 -98.0945 0)
(-1.24155 -98.1181 0)
(3.73464 -98.0944 0)
(-1.23904 -98.1114 0)
(-1.22208 -98.0996 0)
(-1.24167 -98.1062 0)
(3.73458 -98.0744 0)
(-1.23933 -98.0991 0)
(-1.22207 -98.1063 0)
(-1.24181 -98.0955 0)
(3.73453 -98.0732 0)
(-1.23957 -98.0956 0)
(-1.22202 -98.1012 0)
(-1.24181 -98.0965 0)
(3.73454 -98.0785 0)
(-1.2398 -98.0989 0)
(-1.22208 -98.1014 0)
(-1.24182 -98.0984 0)
(3.73442 -98.0807 0)
(-1.23995 -98.103 0)
(-1.22201 -98.1016 0)
(-1.24175 -98.0969 0)
(3.73435 -98.0774 0)
(-1.24015 -98.1002 0)
(-1.22198 -98.1018 0)
(-1.24184 -98.0963 0)
(3.73424 -98.0778 0)
(-1.24036 -98.0998 0)
(-1.22194 -98.1018 0)
(-1.24183 -98.0961 0)
(3.73425 -98.0519 0)
(-1.24055 -98.0756 0)
(-1.22192 -98.1012 0)
(-1.24183 -98.0956 0)
(3.73458 -98.0891 0)
(-1.24118 -98.1088 0)
(-1.22228 -98.1004 0)
(-1.24182 -98.0801 0)
(3.73348 -98.1167 0)
(-1.24074 -98.1318 0)
(-1.22144 -98.0991 0)
(-1.24184 -98.0837 0)
(3.7341 -97.8643 0)
(-1.24089 -97.7943 0)
(-1.22148 -97.9913 0)
(-1.24188 -98.079 0)
(3.73793 -75.5911 0)
(-1.24285 -75.3285 0)
(-1.22619 -75.9559 0)
(-1.24303 -76.3663 0)
(-1.26092 -98.4615 0)
(-1.25803 -98.2319 0)
(-1.25201 -98.131 0)
(3.73954 -98.2324 0)
(-1.26158 -98.1174 0)
(-1.26267 -98.1411 0)
(-1.2513 -98.3888 0)
(3.74324 -98.0985 0)
(-1.26144 -98.1163 0)
(-1.26256 -98.1037 0)
(-1.2513 -98.1095 0)
(3.74335 -98.0992 0)
(-1.26134 -98.1156 0)
(-1.26256 -98.102 0)
(-1.25122 -98.0981 0)
(3.74327 -98.0924 0)
(-1.26137 -98.1147 0)
(-1.26226 -98.102 0)
(-1.25114 -98.095 0)
(3.74341 -98.093 0)
(-1.26144 -98.1015 0)
(-1.26223 -98.1018 0)
(-1.25107 -98.0955 0)
(3.74362 -98.0927 0)
(-1.26146 -98.0973 0)
(-1.26216 -98.1018 0)
(-1.25099 -98.0931 0)
(3.74378 -98.092 0)
(-1.2615 -98.1026 0)
(-1.26216 -98.0998 0)
(-1.25091 -98.0927 0)
(3.74386 -98.0917 0)
(-1.26151 -98.1068 0)
(-1.262 -98.1003 0)
(-1.25086 -98.0884 0)
(3.74398 -98.0891 0)
(-1.26157 -98.1016 0)
(-1.26185 -98.1031 0)
(-1.25072 -98.0903 0)
(3.74404 -98.0939 0)
(-1.26163 -98.101 0)
(-1.26181 -98.1031 0)
(-1.2507 -98.0944 0)
(3.74419 -98.0963 0)
(-1.26169 -98.1007 0)
(-1.26174 -98.1029 0)
(-1.25061 -98.0585 0)
(3.74475 -98.0623 0)
(-1.26201 -98.1024 0)
(-1.26111 -98.1034 0)
(-1.25003 -98.0905 0)
(3.74368 -98.1033 0)
(-1.26202 -98.0627 0)
(-1.26155 -98.0426 0)
(-1.25061 -98.0319 0)
(3.74432 -98.0616 0)
(-1.2614 -76.1048 0)
(-1.2606 -75.9172 0)
(-1.25034 -75.9066 0)
(3.74648 -76.1073 0)
)
;

boundaryField
{
    topWall
    {
        type            extrapolatedCalculated;
        value           nonuniform List<vector> 0();
    }
    botWall
    {
        type            extrapolatedCalculated;
        value           nonuniform List<vector> 0();
    }
    inlet
    {
        type            cyclic;
    }
    outlet
    {
        type            cyclic;
    }
    fixWall
    {
        type            empty;
    }
    procBoundary3to2
    {
        type            processor;
        value           nonuniform List<vector> 8((3.74171 -98.0032 0) (-1.23675 -97.922 0) (-1.2275 -97.7614 0) (-1.23732 -97.7501 0) (-1.26292 -97.6377 0) (-1.26818 -98.142 0) (-1.25129 -97.9097 0) (3.74225 -97.8764 0));
    }
    procBoundary3to4
    {
        type            processor;
        value           nonuniform List<vector> 8((3.74708 -31.7304 0) (-1.24697 -31.5305 0) (-1.23877 -32.0446 0) (-1.24436 -32.5069 0) (-1.25454 -32.1306 0) (-1.25824 -31.8926 0) (-1.25377 -31.9241 0) (3.74957 -32.1962 0));
    }
}


// ************************************************************************* //
