/*--------------------------------*- C++ -*----------------------------------*\
  =========                 |
  \\      /  F ield         | OpenFOAM: The Open Source CFD Toolbox
   \\    /   O peration     | Website:  https://openfoam.org
    \\  /    A nd           | Version:  dev
     \\/     M anipulation  |

   OpenFOAM for Windows 20.09 (v1)
   Built by CFD Support, www.cfdsupport.com (based on Symscape).
\*---------------------------------------------------------------------------*/
FoamFile
{
    version     2.0;
    format      ascii;
    class       volVectorField;
    location    "2";
    object      gradp_rgh;
}
// * * * * * * * * * * * * * * * * * * * * * * * * * * * * * * * * * * * * * //

dimensions      [1 -2 -2 0 0 0 0];

internalField   nonuniform List<vector> 
120
(
(-1.2534 0.0283887 0)
(-1.23284 -0.522972 0)
(-1.23375 -0.117255 0)
(-1.24893 -0.190601 0)
(-1.26516 -0.0578809 0)
(-1.23927 -0.691502 0)
(-1.22197 -0.442203 0)
(-1.24129 0.00356642 0)
(-1.2651 -0.00888796 0)
(-1.23924 -0.0123975 0)
(-1.22216 0.00651051 0)
(-1.24155 -0.0189791 0)
(-1.26537 0.00446719 0)
(-1.23902 -0.0122749 0)
(-1.22208 0.000508166 0)
(-1.24168 -0.00688446 0)
(-1.26543 0.0252024 0)
(-1.23931 0.000254123 0)
(-1.22207 -0.0066375 0)
(-1.24181 0.00405092 0)
(-1.26548 0.0265225 0)
(-1.23955 0.0038524 0)
(-1.22202 -0.00137458 0)
(-1.2418 0.00340893 0)
(-1.26549 0.0216077 0)
(-1.23977 0.00104205 0)
(-1.22208 -0.00144548 0)
(-1.2418 0.0018415 0)
(-1.2656 0.020092 0)
(-1.23993 -0.0024727 0)
(-1.22201 -0.00152911 0)
(-1.24172 0.00371908 0)
(-1.26566 0.0238649 0)
(-1.24013 0.000920615 0)
(-1.22198 -0.00182637 0)
(-1.24182 0.00417803 0)
(-1.26576 0.0236695 0)
(-1.24036 0.00165383 0)
(-1.22195 -0.00187769 0)
(-1.24181 0.00422092 0)
(-1.26574 0.0500994 0)
(-1.24056 0.0262509 0)
(-1.22194 -0.00158521 0)
(-1.24183 0.00457009 0)
(-1.26539 0.0104112 0)
(-1.24122 -0.00923169 0)
(-1.22231 -0.00018026 0)
(-1.24183 0.0206574 0)
(-1.26655 -0.0204778 0)
(-1.24073 -0.0371617 0)
(-1.22144 -0.00626999 0)
(-1.24187 0.0169014 0)
(-1.26595 -25.7934 0)
(-1.24098 -35.6654 0)
(-1.22141 -12.6349 0)
(-1.24178 -2.20282 0)
(-1.72185 -2641.1 0)
(-1.02143 -2642.67 0)
(-0.663729 -2633.17 0)
(-1.11691 -2617.09 0)
(-1.26071 -0.329302 0)
(-1.25755 -0.134637 0)
(-1.25213 -0.0324707 0)
(-1.26068 -0.117952 0)
(-1.26157 0.000771745 0)
(-1.26269 -0.0395775 0)
(-1.2513 -0.299737 0)
(-1.25675 0.0101705 0)
(-1.26143 -0.0170572 0)
(-1.26256 -0.0036782 0)
(-1.2513 -0.00878358 0)
(-1.25665 0.000525324 0)
(-1.26132 -0.0152374 0)
(-1.26255 -0.00189578 0)
(-1.25123 0.00218417 0)
(-1.25675 0.00768677 0)
(-1.26135 -0.0136369 0)
(-1.26227 -0.00168985 0)
(-1.25115 0.00492453 0)
(-1.25662 0.00697162 0)
(-1.26141 -0.000615709 0)
(-1.26224 -0.00137455 0)
(-1.25108 0.00422552 0)
(-1.25641 0.00715473 0)
(-1.26143 0.00328151 0)
(-1.26219 -0.00135658 0)
(-1.251 0.00637629 0)
(-1.25624 0.00782917 0)
(-1.26147 -0.00259516 0)
(-1.26219 0.000506667 0)
(-1.25093 0.00663465 0)
(-1.25616 0.00801127 0)
(-1.26148 -0.00729805 0)
(-1.26203 -0.000155566 0)
(-1.25088 0.0110387 0)
(-1.25602 0.0106024 0)
(-1.26154 -0.00267383 0)
(-1.26189 -0.00342154 0)
(-1.25075 0.00962043 0)
(-1.25594 0.00618005 0)
(-1.26161 -0.00269133 0)
(-1.26183 -0.00380053 0)
(-1.25072 0.00610862 0)
(-1.25579 0.00437251 0)
(-1.26168 -0.0025557 0)
(-1.26174 -0.00428842 0)
(-1.25061 0.0436304 0)
(-1.25521 0.0395313 0)
(-1.26202 -0.00325306 0)
(-1.26106 -0.00644992 0)
(-1.24999 0.00951868 0)
(-1.25634 -0.00391831 0)
(-1.26207 -5.13725 0)
(-1.26153 -7.1886 0)
(-1.25057 -11.045 0)
(-1.25571 -8.34756 0)
(-1.34512 -2633.23 0)
(-1.35952 -2641.16 0)
(-1.2693 -2640.43 0)
(-1.50215 -2629.44 0)
)
;

boundaryField
{
    topWall
    {
        type            extrapolatedCalculated;
        value           nonuniform List<vector> 0();
    }
    botWall
    {
        type            extrapolatedCalculated;
        value           nonuniform List<vector> 0();
    }
    inlet
    {
        type            cyclic;
    }
    outlet
    {
        type            cyclic;
    }
    fixWall
    {
        type            empty;
    }
    procBoundary3to2
    {
        type            processor;
        value           nonuniform List<vector> 8((-1.25841 0.0936017 0) (-1.23684 0.148874 0) (-1.22751 0.320866 0) (-1.23776 0.336066 0) (-1.26251 0.443696 0) (-1.26764 -0.0439778 0) (-1.25157 0.202671 0) (-1.25776 0.215202 0));
    }
    procBoundary3to4
    {
        type            processor;
        value           nonuniform List<vector> 8((-1.48644 -2622.51 0) (-1.1088 -2612.37 0) (-0.794972 -2636.12 0) (-1.24283 -2647.1 0) (-1.66321 -2643.76 0) (-1.38152 -2641.46 0) (-1.05539 -2637.63 0) (-1.26685 -2640.63 0));
    }
}


// ************************************************************************* //
