/*--------------------------------*- C++ -*----------------------------------*\
  =========                 |
  \\      /  F ield         | OpenFOAM: The Open Source CFD Toolbox
   \\    /   O peration     | Website:  https://openfoam.org
    \\  /    A nd           | Version:  dev
     \\/     M anipulation  |

   OpenFOAM for Windows 20.09 (v1)
   Built by CFD Support, www.cfdsupport.com (based on Symscape).
\*---------------------------------------------------------------------------*/
FoamFile
{
    version     2.0;
    format      ascii;
    class       volScalarField;
    location    "2";
    object      nut;
}
// * * * * * * * * * * * * * * * * * * * * * * * * * * * * * * * * * * * * * //

dimensions      [0 2 -1 0 0 0 0];

internalField   nonuniform List<scalar> 
120
(
1.16924e-17
1.16971e-17
1.16986e-17
1.16967e-17
1.17275e-17
1.17323e-17
1.17342e-17
1.17321e-17
1.17285e-17
1.17334e-17
1.17357e-17
1.17334e-17
1.16945e-17
1.16994e-17
1.17022e-17
1.16997e-17
1.16248e-17
1.16297e-17
1.1633e-17
1.16303e-17
1.15188e-17
1.15236e-17
1.15275e-17
1.15246e-17
1.1376e-17
1.13807e-17
1.13853e-17
1.13821e-17
1.11963e-17
1.12009e-17
1.12063e-17
1.12029e-17
1.09799e-17
1.09843e-17
1.09905e-17
1.0987e-17
1.07274e-17
1.07316e-17
1.07387e-17
1.0735e-17
1.04397e-17
1.04437e-17
1.04518e-17
1.04481e-17
1.01185e-17
1.01222e-17
1.01313e-17
1.01277e-17
9.76569e-18
9.76905e-18
9.77913e-18
9.7758e-18
9.58119e-18
9.58685e-18
9.59585e-18
9.58772e-18
9.58077e-18
9.58615e-18
9.5961e-18
9.58808e-18
1.16973e-17
1.16974e-17
1.16971e-17
1.16965e-17
1.17326e-17
1.17326e-17
1.17324e-17
1.17318e-17
1.17338e-17
1.17337e-17
1.17336e-17
1.17329e-17
1.16999e-17
1.16997e-17
1.16997e-17
1.16991e-17
1.16303e-17
1.163e-17
1.163e-17
1.16294e-17
1.15243e-17
1.15239e-17
1.1524e-17
1.15234e-17
1.13815e-17
1.1381e-17
1.13812e-17
1.13806e-17
1.12018e-17
1.12011e-17
1.12015e-17
1.12009e-17
1.09854e-17
1.09845e-17
1.0985e-17
1.09846e-17
1.07328e-17
1.07317e-17
1.07324e-17
1.07321e-17
1.04451e-17
1.04437e-17
1.04447e-17
1.04445e-17
1.01238e-17
1.01221e-17
1.01234e-17
1.01234e-17
9.77088e-18
9.76884e-18
9.77046e-18
9.77072e-18
9.58466e-18
9.58632e-18
9.58915e-18
9.58521e-18
9.58411e-18
9.58575e-18
9.58885e-18
9.58506e-18
)
;

boundaryField
{
    topWall
    {
        type            nutkWallFunction;
        Cmu             0.09;
        kappa           0.41;
        E               9.8;
        value           nonuniform List<scalar> 0();
    }
    botWall
    {
        type            nutkWallFunction;
        Cmu             0.09;
        kappa           0.41;
        E               9.8;
        value           nonuniform List<scalar> 0();
    }
    inlet
    {
        type            cyclic;
    }
    outlet
    {
        type            cyclic;
    }
    fixWall
    {
        type            empty;
    }
    procBoundary3to2
    {
        type            processor;
        value           nonuniform List<scalar> 8(1.16576e-17 1.16622e-17 1.16634e-17 1.16617e-17 1.16624e-17 1.16625e-17 1.16622e-17 1.16616e-17);
    }
    procBoundary3to4
    {
        type            processor;
        value           nonuniform List<scalar> 8(4.7961e-18 4.78598e-18 4.84883e-18 4.91955e-18 4.83477e-18 4.79565e-18 4.8042e-18 4.85459e-18);
    }
}


// ************************************************************************* //
