/*--------------------------------*- C++ -*----------------------------------*\
  =========                 |
  \\      /  F ield         | OpenFOAM: The Open Source CFD Toolbox
   \\    /   O peration     | Website:  https://openfoam.org
    \\  /    A nd           | Version:  dev
     \\/     M anipulation  |

   OpenFOAM for Windows 20.09 (v1)
   Built by CFD Support, www.cfdsupport.com (based on Symscape).
\*---------------------------------------------------------------------------*/
FoamFile
{
    version     2.0;
    format      ascii;
    class       volScalarField;
    location    "2";
    object      omega;
}
// * * * * * * * * * * * * * * * * * * * * * * * * * * * * * * * * * * * * * //

dimensions      [0 0 -1 0 0 0 0];

internalField   nonuniform List<scalar> 
120
(
18.9906
18.9829
18.9805
18.9836
18.9337
18.9259
18.9229
18.9263
18.932
18.9241
18.9205
18.9242
18.987
18.9791
18.9746
18.9787
19.1009
19.0929
19.0874
19.0919
19.2768
19.2687
19.2621
19.2671
19.5188
19.5107
19.5027
19.5081
19.832
19.8239
19.8143
19.8203
20.2229
20.2147
20.2033
20.2098
20.6989
20.6908
20.677
20.6841
21.2692
21.2611
21.2447
21.2522
21.9444
21.9364
21.9167
21.9245
22.7372
22.7294
22.706
22.7137
23.6628
23.6553
23.6274
23.6344
24.7392
24.7323
24.6992
24.7046
18.9825
18.9824
18.9828
18.9838
18.9254
18.9254
18.9257
18.9267
18.9235
18.9237
18.9239
18.9249
18.9783
18.9786
18.9787
18.9797
19.0919
19.0924
19.0923
19.0934
19.2675
19.2682
19.268
19.269
19.5092
19.5102
19.5098
19.5108
19.8222
19.8235
19.8228
19.8238
20.2127
20.2144
20.2134
20.2142
20.6884
20.6906
20.6891
20.6898
21.2582
21.2611
21.259
21.2595
21.9329
21.9366
21.9337
21.9339
22.7251
22.7299
22.7261
22.7255
23.6498
23.656
23.6512
23.6494
24.7249
24.7332
24.7273
24.7234
)
;

boundaryField
{
    topWall
    {
        beta1           0.075;
        blended         0;
        type            omegaWallFunction;
        value           nonuniform List<scalar> 0();
    }
    botWall
    {
        beta1           0.075;
        blended         0;
        type            omegaWallFunction;
        value           nonuniform List<scalar> 0();
    }
    inlet
    {
        type            cyclic;
    }
    outlet
    {
        type            cyclic;
    }
    fixWall
    {
        type            empty;
    }
    procBoundary3to2
    {
        type            processor;
        value           nonuniform List<scalar> 8(19.0472 19.0396 19.0378 19.0406 19.0394 19.0392 19.0397 19.0406);
    }
    procBoundary3to4
    {
        type            processor;
        value           nonuniform List<scalar> 8(25.9884 25.9829 25.9435 25.9439 25.9722 25.9839 25.9767 25.9686);
    }
}


// ************************************************************************* //
