/*--------------------------------*- C++ -*----------------------------------*\
  =========                 |
  \\      /  F ield         | OpenFOAM: The Open Source CFD Toolbox
   \\    /   O peration     | Website:  https://openfoam.org
    \\  /    A nd           | Version:  dev
     \\/     M anipulation  |

   OpenFOAM for Windows 20.09 (v1)
   Built by CFD Support, www.cfdsupport.com (based on Symscape).
\*---------------------------------------------------------------------------*/
FoamFile
{
    version     2.0;
    format      ascii;
    class       volScalarField;
    location    "2";
    object      p;
}
// * * * * * * * * * * * * * * * * * * * * * * * * * * * * * * * * * * * * * //

dimensions      [1 -1 -2 0 0 0 0];

internalField   nonuniform List<scalar> 
120
(
-3.68163
-3.74343
-3.80489
-3.86683
-3.76348
-3.82638
-3.88741
-3.94858
-3.84523
-3.90813
-3.96916
-4.03035
-3.92699
-3.9899
-4.0509
-4.11211
-4.00872
-4.07165
-4.13266
-4.19386
-4.09045
-4.1534
-4.21441
-4.2756
-4.17218
-4.23514
-4.29616
-4.35735
-4.25391
-4.3169
-4.37791
-4.4391
-4.33565
-4.39865
-4.45966
-4.52084
-4.41738
-4.4804
-4.54141
-4.60259
-4.49911
-4.56215
-4.62316
-4.68434
-4.5808
-4.64386
-4.70491
-4.76608
-4.66259
-4.72566
-4.78666
-4.84781
-4.74432
-4.80741
-4.86841
-4.92956
-4.8257
-4.88865
-4.94998
-5.01127
-3.92978
-3.99292
-4.05559
-4.11812
-4.01154
-4.07474
-4.1378
-4.19987
-4.09331
-4.15649
-4.21957
-4.28162
-4.17506
-4.23824
-4.30132
-4.36336
-4.25684
-4.31999
-4.38306
-4.44511
-4.33859
-4.40174
-4.46481
-4.52685
-4.42034
-4.4835
-4.54656
-4.6086
-4.50208
-4.56525
-4.6283
-4.69034
-4.58384
-4.647
-4.71004
-4.77208
-4.6656
-4.72875
-4.79178
-4.85382
-4.74735
-4.8105
-4.87353
-4.93557
-4.8291
-4.89225
-4.95527
-5.01731
-4.91085
-4.97401
-5.03696
-5.09901
-4.9926
-5.05576
-5.11876
-5.18082
-5.07429
-5.13741
-5.20034
-5.26244
)
;

boundaryField
{
    topWall
    {
        type            calculated;
        value           nonuniform List<scalar> 0();
    }
    botWall
    {
        type            calculated;
        value           nonuniform List<scalar> 0();
    }
    inlet
    {
        type            cyclic;
    }
    outlet
    {
        type            cyclic;
    }
    fixWall
    {
        type            empty;
    }
    procBoundary3to2
    {
        type            processor;
        value           nonuniform List<scalar> 8(-3.60003 -3.66197 -3.7237 -3.78472 -3.84743 -3.91102 -3.97425 -4.03614);
    }
    procBoundary3to4
    {
        type            processor;
        value           nonuniform List<scalar> 8(-4.87031 -4.93296 -4.99501 -5.05683 -5.11944 -5.18229 -5.24527 -5.30767);
    }
}


// ************************************************************************* //
