/*--------------------------------*- C++ -*----------------------------------*\
  =========                 |
  \\      /  F ield         | OpenFOAM: The Open Source CFD Toolbox
   \\    /   O peration     | Website:  https://openfoam.org
    \\  /    A nd           | Version:  dev
     \\/     M anipulation  |

   OpenFOAM for Windows 20.09 (v1)
   Built by CFD Support, www.cfdsupport.com (based on Symscape).
\*---------------------------------------------------------------------------*/
FoamFile
{
    version     2.0;
    format      ascii;
    class       volScalarField;
    location    "2";
    object      p_rgh;
}
// * * * * * * * * * * * * * * * * * * * * * * * * * * * * * * * * * * * * * //

dimensions      [1 -1 -2 0 0 0 0];

internalField   nonuniform List<scalar> 
120
(
0.0379897
-0.0238527
-0.0852938
-0.147228
0.0378957
-0.0250055
-0.0860316
-0.147203
0.0378933
-0.0250052
-0.0860308
-0.147222
0.0378809
-0.0250261
-0.0860207
-0.147234
0.0379007
-0.0250257
-0.08603
-0.147233
0.0379229
-0.0250257
-0.0860318
-0.147228
0.0379449
-0.0250192
-0.0860323
-0.147227
0.0379589
-0.025024
-0.0860342
-0.147225
0.0379784
-0.0250234
-0.0860348
-0.147221
0.0379986
-0.0250224
-0.0860372
-0.147218
0.0380178
-0.0250206
-0.086038
-0.147214
0.0380821
-0.0249787
-0.0860399
-0.14721
0.0380352
-0.025036
-0.0860383
-0.14718
0.038048
-0.0250406
-0.0860503
-0.147182
-0.00495387
-0.0844783
-0.107096
-0.150851
-0.210187
-0.273299
-0.335942
-0.398512
-0.210161
-0.27336
-0.33643
-0.39849
-0.210186
-0.273365
-0.336441
-0.398495
-0.210189
-0.273366
-0.336444
-0.398489
-0.210211
-0.273368
-0.336438
-0.398482
-0.210212
-0.273369
-0.336436
-0.398477
-0.210212
-0.27337
-0.336431
-0.398471
-0.210206
-0.273371
-0.336425
-0.398464
-0.210216
-0.273369
-0.33642
-0.398457
-0.210218
-0.273372
-0.336407
-0.398447
-0.210221
-0.273375
-0.336404
-0.398447
-0.210223
-0.273378
-0.336397
-0.398439
-0.210225
-0.273382
-0.336331
-0.398381
-0.210228
-0.273389
-0.336381
-0.398446
-0.218787
-0.285363
-0.354739
-0.412294
)
;

boundaryField
{
    topWall
    {
        type            zeroGradient;
    }
    botWall
    {
        type            zeroGradient;
    }
    inlet
    {
        type            fixedJump;
        patchType       cyclic;
        jump            uniform -0.5;
        value           nonuniform List<scalar> 
15
(
0.0413762
0.0698011
0.0698271
0.0698214
0.0697855
0.069776
0.0697606
0.0697473
0.0697372
0.0697228
0.0697091
0.069696
0.069699
0.069703
0.0697387
)
;
    }
    outlet
    {
        type            fixedJump;
        patchType       cyclic;
        value           nonuniform List<scalar> 
15
(
-0.458624
-0.430199
-0.430173
-0.430179
-0.430215
-0.430224
-0.430239
-0.430253
-0.430263
-0.430277
-0.430291
-0.430304
-0.430301
-0.430297
-0.430261
)
;
    }
    fixWall
    {
        type            empty;
    }
    procBoundary3to2
    {
        type            processor;
        value           nonuniform List<scalar> 8(0.0378483 -0.0241339 -0.0858361 -0.146885 -0.209612 -0.273136 -0.336375 -0.398293);
    }
    procBoundary3to4
    {
        type            processor;
        value           nonuniform List<scalar> 8(-4.36379 -4.4295 -4.47467 -4.50899 -4.59895 -4.67531 -4.7371 -4.78085);
    }
}


// ************************************************************************* //
