/*--------------------------------*- C++ -*----------------------------------*\
  =========                 |
  \\      /  F ield         | OpenFOAM: The Open Source CFD Toolbox
   \\    /   O peration     | Website:  https://openfoam.org
    \\  /    A nd           | Version:  dev
     \\/     M anipulation  |

   OpenFOAM for Windows 20.09 (v1)
   Built by CFD Support, www.cfdsupport.com (based on Symscape).
\*---------------------------------------------------------------------------*/
FoamFile
{
    version     2.0;
    format      ascii;
    class       surfaceScalarField;
    location    "2";
    object      phi;
}
// * * * * * * * * * * * * * * * * * * * * * * * * * * * * * * * * * * * * * //

dimensions      [0 3 -1 0 0 0 0];

internalField   nonuniform List<scalar> 
217
(
1.42005e-08
-1.33176e-10
1.41842e-08
-1.10962e-09
1.41966e-08
-1.66832e-10
6.65625e-10
1.42141e-08
1.43193e-08
-1.2276e-10
1.43023e-08
-1.09262e-09
1.43112e-08
-1.75737e-10
6.43293e-10
1.43335e-08
1.44779e-08
-1.11801e-10
1.44578e-08
-1.07253e-09
1.44665e-08
-1.84386e-10
6.18484e-10
1.44913e-08
1.46837e-08
-9.98957e-11
1.46614e-08
-1.05023e-09
1.46706e-08
-1.93547e-10
5.92231e-10
1.46968e-08
1.49486e-08
-8.77756e-11
1.4925e-08
-1.02657e-09
1.49348e-08
-2.0337e-10
5.65021e-10
1.4962e-08
1.52859e-08
-7.52663e-11
1.52614e-08
-1.00214e-09
1.52722e-08
-2.14148e-10
5.37494e-10
1.52998e-08
1.57111e-08
-6.26719e-11
1.56863e-08
-9.77292e-10
1.56978e-08
-2.257e-10
5.09541e-10
1.57258e-08
1.62419e-08
-5.01357e-11
1.62175e-08
-9.52892e-10
1.62293e-08
-2.37542e-10
4.81281e-10
1.62576e-08
1.68977e-08
-3.76314e-11
1.6874e-08
-9.29222e-10
1.68864e-08
-2.49978e-10
4.53669e-10
1.69141e-08
1.77004e-08
-2.49075e-11
1.76775e-08
-9.06331e-10
1.76912e-08
-2.63673e-10
4.26884e-10
1.7718e-08
1.86732e-08
-1.17496e-11
1.86514e-08
-8.84608e-10
1.8667e-08
-2.79179e-10
4.00896e-10
1.8693e-08
1.98423e-08
2.87277e-12
1.98215e-08
-8.63825e-10
1.98396e-08
-2.97244e-10
3.75806e-10
1.98647e-08
2.12342e-08
1.87736e-11
2.12144e-08
-8.44025e-10
2.12365e-08
-3.19311e-10
3.50794e-10
2.12616e-08
2.28776e-08
3.83977e-11
2.2858e-08
-8.24399e-10
2.28851e-08
-3.46495e-10
3.23879e-10
2.29121e-08
2.48111e-08
2.4789e-08
2.48162e-08
2.48443e-08
1.42111e-08
5.99605e-10
1.41995e-08
2.04376e-10
1.41976e-08
-6.17634e-10
5.79237e-10
1.43331e-08
6.00064e-10
1.43206e-08
2.16903e-10
1.43185e-08
-6.15566e-10
5.68033e-10
1.44921e-08
5.99275e-10
1.44795e-08
2.29451e-10
1.44766e-08
-6.12707e-10
5.55823e-10
1.46988e-08
5.97261e-10
1.46862e-08
2.42128e-10
1.46827e-08
-6.09205e-10
5.42864e-10
1.4964e-08
5.95217e-10
1.49514e-08
2.54728e-10
1.49476e-08
-6.05332e-10
5.29699e-10
1.53019e-08
5.931e-10
1.52892e-08
2.674e-10
1.52852e-08
-6.01286e-10
5.16493e-10
1.57271e-08
5.9177e-10
1.57145e-08
2.8003e-10
1.57106e-08
-5.97354e-10
5.03367e-10
1.62579e-08
5.91444e-10
1.62455e-08
2.92418e-10
1.62417e-08
-5.93491e-10
4.90673e-10
1.69136e-08
5.91873e-10
1.69012e-08
3.04907e-10
1.68978e-08
-5.9007e-10
4.78285e-10
1.77163e-08
5.93595e-10
1.77045e-08
3.16737e-10
1.77013e-08
-5.86902e-10
4.66513e-10
1.86892e-08
5.9735e-10
1.86771e-08
3.28858e-10
1.86749e-08
-5.84662e-10
4.55085e-10
1.98583e-08
6.038e-10
1.98466e-08
3.40518e-10
1.9846e-08
-5.84086e-10
4.44216e-10
2.12512e-08
6.14203e-10
2.12382e-08
3.5347e-10
2.1239e-08
-5.84847e-10
4.33066e-10
2.28963e-08
6.29939e-10
2.28815e-08
3.68357e-10
2.28863e-08
-5.89657e-10
4.22112e-10
2.48239e-08
2.4807e-08
2.48128e-08
)
;

boundaryField
{
    topWall
    {
        type            calculated;
        value           nonuniform List<scalar> 0();
    }
    botWall
    {
        type            calculated;
        value           nonuniform List<scalar> 0();
    }
    inlet
    {
        type            cyclic;
        value           nonuniform List<scalar> 
15
(
-2.48278e-08
-2.28972e-08
-2.12501e-08
-1.98569e-08
-1.86863e-08
-1.77131e-08
-1.69102e-08
-1.62544e-08
-1.57237e-08
-1.52984e-08
-1.49607e-08
-1.46956e-08
-1.44889e-08
-1.43297e-08
-1.42063e-08
)
;
    }
    outlet
    {
        type            cyclic;
        value           nonuniform List<scalar> 
15
(
2.48278e-08
2.28972e-08
2.12501e-08
1.98569e-08
1.86863e-08
1.77131e-08
1.69102e-08
1.62544e-08
1.57237e-08
1.52984e-08
1.49607e-08
1.46956e-08
1.44889e-08
1.43297e-08
1.42063e-08
)
;
    }
    fixWall
    {
        type            empty;
        value           nonuniform List<scalar> 0();
    }
    procBoundary3to2
    {
        type            processor;
        value           nonuniform List<scalar> 8(1.39613e-10 1.12715e-09 1.54734e-10 -6.83727e-10 -5.95061e-10 -1.92966e-10 6.1972e-10 -5.87062e-10);
    }
    procBoundary3to4
    {
        type            processor;
        value           nonuniform List<scalar> 8(5.51904e-11 -8.02855e-10 -3.74321e-10 2.97666e-10 6.49316e-10 3.82934e-10 -5.95077e-10 4.07193e-10);
    }
}


// ************************************************************************* //
