/*--------------------------------*- C++ -*----------------------------------*\
  =========                 |
  \\      /  F ield         | OpenFOAM: The Open Source CFD Toolbox
   \\    /   O peration     | Website:  https://openfoam.org
    \\  /    A nd           | Version:  dev
     \\/     M anipulation  |

   OpenFOAM for Windows 20.09 (v1)
   Built by CFD Support, www.cfdsupport.com (based on Symscape).
\*---------------------------------------------------------------------------*/
FoamFile
{
    version     2.0;
    format      ascii;
    class       volSymmTensorField;
    location    "2";
    object      R;
}
// * * * * * * * * * * * * * * * * * * * * * * * * * * * * * * * * * * * * * //

dimensions      [0 2 -2 0 0 0 0];

internalField   nonuniform List<symmTensor> 
120
(
(1.48035e-16 -1.85554e-18 -0 1.48024e-16 -0 1.4803e-16)
(1.48036e-16 -1.76355e-18 -0 1.48023e-16 -0 1.4803e-16)
(1.48025e-16 -1.66446e-18 -0 1.48035e-16 -0 1.4803e-16)
(1.48019e-16 -1.72474e-18 -0 1.48043e-16 -0 1.48028e-16)
(1.48035e-16 -2.39419e-18 -0 1.48025e-16 -0 1.4803e-16)
(1.48038e-16 -2.3249e-18 -0 1.4802e-16 -0 1.4803e-16)
(1.48024e-16 -2.27092e-18 -0 1.48036e-16 -0 1.48029e-16)
(1.48019e-16 -2.31506e-18 -0 1.4804e-16 -0 1.4803e-16)
(1.48036e-16 -3.10117e-18 -0 1.48023e-16 -0 1.4803e-16)
(1.4804e-16 -3.0511e-18 -0 1.4802e-16 -0 1.4803e-16)
(1.48025e-16 -3.02117e-18 -0 1.48034e-16 -0 1.4803e-16)
(1.48016e-16 -3.05808e-18 -0 1.48044e-16 -0 1.48029e-16)
(1.48035e-16 -3.97953e-18 -0 1.48025e-16 -0 1.48029e-16)
(1.48042e-16 -3.94419e-18 -0 1.48017e-16 -0 1.4803e-16)
(1.48025e-16 -3.93206e-18 -0 1.48035e-16 -0 1.4803e-16)
(1.48016e-16 -3.96251e-18 -0 1.48043e-16 -0 1.4803e-16)
(1.48037e-16 -5.04853e-18 -0 1.48021e-16 -0 1.48031e-16)
(1.48042e-16 -5.02777e-18 -0 1.48018e-16 -0 1.4803e-16)
(1.48024e-16 -5.02797e-18 -0 1.48035e-16 -0 1.4803e-16)
(1.48016e-16 -5.05172e-18 -0 1.48044e-16 -0 1.4803e-16)
(1.48036e-16 -6.32802e-18 -0 1.48024e-16 -0 1.48029e-16)
(1.48043e-16 -6.31679e-18 -0 1.48016e-16 -0 1.48031e-16)
(1.48024e-16 -6.32509e-18 -0 1.48035e-16 -0 1.4803e-16)
(1.48015e-16 -6.34332e-18 -0 1.48045e-16 -0 1.48029e-16)
(1.48037e-16 -7.8294e-18 -0 1.48022e-16 -0 1.48031e-16)
(1.48042e-16 -7.82942e-18 -0 1.48017e-16 -0 1.4803e-16)
(1.48024e-16 -7.84394e-18 -0 1.48036e-16 -0 1.4803e-16)
(1.48016e-16 -7.85445e-18 -0 1.48044e-16 -0 1.4803e-16)
(1.48035e-16 -9.56143e-18 -0 1.48025e-16 -0 1.48029e-16)
(1.48042e-16 -9.56882e-18 -0 1.48016e-16 -0 1.48031e-16)
(1.48024e-16 -9.59213e-18 -0 1.48036e-16 -0 1.4803e-16)
(1.48015e-16 -9.59414e-18 -0 1.48045e-16 -0 1.48029e-16)
(1.48037e-16 -1.15259e-17 -0 1.48021e-16 -0 1.48031e-16)
(1.4804e-16 -1.15346e-17 -0 1.4802e-16 -0 1.48029e-16)
(1.48023e-16 -1.15686e-17 -0 1.48037e-16 -0 1.48029e-16)
(1.48017e-16 -1.15683e-17 -0 1.48042e-16 -0 1.4803e-16)
(1.48035e-16 -1.37092e-17 -0 1.48026e-16 -0 1.48028e-16)
(1.48042e-16 -1.37178e-17 -0 1.48015e-16 -0 1.48032e-16)
(1.48024e-16 -1.37624e-17 -0 1.48035e-16 -0 1.48031e-16)
(1.48016e-16 -1.37704e-17 -0 1.48045e-16 -0 1.48028e-16)
(1.48038e-16 -1.60995e-17 -0 1.4802e-16 -0 1.48031e-16)
(1.48038e-16 -1.61026e-17 -0 1.48023e-16 -0 1.48028e-16)
(1.48021e-16 -1.61568e-17 -0 1.48039e-16 -0 1.48029e-16)
(1.48019e-16 -1.61765e-17 -0 1.4804e-16 -0 1.4803e-16)
(1.48036e-16 -1.86584e-17 -0 1.48024e-16 -0 1.48029e-16)
(1.48038e-16 -1.86607e-17 -0 1.48021e-16 -0 1.4803e-16)
(1.4802e-16 -1.87167e-17 -0 1.4804e-16 -0 1.48029e-16)
(1.48017e-16 -1.87691e-17 -0 1.48044e-16 -0 1.48028e-16)
(1.48038e-16 -2.13447e-17 -0 1.48021e-16 -0 1.48031e-16)
(1.4804e-16 -2.13427e-17 -0 1.48017e-16 -0 1.48032e-16)
(1.48021e-16 -2.13961e-17 -0 1.48037e-16 -0 1.48031e-16)
(1.48019e-16 -2.14888e-17 -0 1.4804e-16 -0 1.4803e-16)
(1.51156e-16 -2.46657e-17 -0 1.51132e-16 -0 1.51147e-16)
(1.51193e-16 -2.46934e-17 -0 1.5118e-16 -0 1.51186e-16)
(1.51136e-16 -2.46769e-17 -0 1.51164e-16 -0 1.51149e-16)
(1.51057e-16 -2.47765e-17 -0 1.51075e-16 -0 1.51068e-16)
(1.58015e-16 -3.95711e-17 -0 1.58018e-16 -0 1.58008e-16)
(1.58071e-16 -3.96902e-17 -0 1.58043e-16 -0 1.58062e-16)
(1.58001e-16 -3.94316e-17 -0 1.58018e-16 -0 1.58014e-16)
(1.57901e-16 -3.94443e-17 -0 1.57925e-16 -0 1.57913e-16)
(1.4803e-16 -1.77858e-18 -0 1.4803e-16 -0 1.48029e-16)
(1.48037e-16 -1.80975e-18 -0 1.48023e-16 -0 1.4803e-16)
(1.4803e-16 -1.76309e-18 -0 1.48028e-16 -0 1.48031e-16)
(1.48025e-16 -1.76319e-18 -0 1.48036e-16 -0 1.48028e-16)
(1.48031e-16 -2.36016e-18 -0 1.48027e-16 -0 1.48031e-16)
(1.48037e-16 -2.38149e-18 -0 1.48022e-16 -0 1.4803e-16)
(1.48029e-16 -2.35428e-18 -0 1.4803e-16 -0 1.4803e-16)
(1.48025e-16 -2.35722e-18 -0 1.48034e-16 -0 1.4803e-16)
(1.48028e-16 -3.08161e-18 -0 1.48031e-16 -0 1.48029e-16)
(1.48037e-16 -3.09525e-18 -0 1.48023e-16 -0 1.4803e-16)
(1.48031e-16 -3.07901e-18 -0 1.48028e-16 -0 1.4803e-16)
(1.48024e-16 -3.07659e-18 -0 1.48036e-16 -0 1.48029e-16)
(1.48028e-16 -3.97055e-18 -0 1.48031e-16 -0 1.4803e-16)
(1.48037e-16 -3.97733e-18 -0 1.48023e-16 -0 1.48029e-16)
(1.48031e-16 -3.97055e-18 -0 1.48028e-16 -0 1.4803e-16)
(1.48024e-16 -3.96557e-18 -0 1.48035e-16 -0 1.4803e-16)
(1.48029e-16 -5.04802e-18 -0 1.4803e-16 -0 1.4803e-16)
(1.48037e-16 -5.04741e-18 -0 1.48022e-16 -0 1.4803e-16)
(1.4803e-16 -5.04958e-18 -0 1.48029e-16 -0 1.4803e-16)
(1.48024e-16 -5.04178e-18 -0 1.48036e-16 -0 1.48029e-16)
(1.48028e-16 -6.33357e-18 -0 1.48032e-16 -0 1.4803e-16)
(1.48037e-16 -6.32632e-18 -0 1.48023e-16 -0 1.48029e-16)
(1.48031e-16 -6.33498e-18 -0 1.48027e-16 -0 1.48031e-16)
(1.48024e-16 -6.32809e-18 -0 1.48036e-16 -0 1.48029e-16)
(1.48029e-16 -7.83996e-18 -0 1.48031e-16 -0 1.4803e-16)
(1.48037e-16 -7.82807e-18 -0 1.48023e-16 -0 1.4803e-16)
(1.48031e-16 -7.84325e-18 -0 1.48029e-16 -0 1.4803e-16)
(1.48024e-16 -7.83396e-18 -0 1.48037e-16 -0 1.48029e-16)
(1.48029e-16 -9.57435e-18 -0 1.4803e-16 -0 1.4803e-16)
(1.48036e-16 -9.5612e-18 -0 1.48023e-16 -0 1.48029e-16)
(1.48031e-16 -9.57859e-18 -0 1.48028e-16 -0 1.48031e-16)
(1.48025e-16 -9.57079e-18 -0 1.48035e-16 -0 1.4803e-16)
(1.4803e-16 -1.15391e-17 -0 1.4803e-16 -0 1.4803e-16)
(1.48037e-16 -1.15259e-17 -0 1.48023e-16 -0 1.4803e-16)
(1.4803e-16 -1.15487e-17 -0 1.48029e-16 -0 1.4803e-16)
(1.48024e-16 -1.15417e-17 -0 1.48037e-16 -0 1.48029e-16)
(1.4803e-16 -1.37273e-17 -0 1.48029e-16 -0 1.4803e-16)
(1.48036e-16 -1.37102e-17 -0 1.48024e-16 -0 1.48029e-16)
(1.48031e-16 -1.37327e-17 -0 1.48027e-16 -0 1.48031e-16)
(1.48025e-16 -1.37329e-17 -0 1.48034e-16 -0 1.4803e-16)
(1.48032e-16 -1.61179e-17 -0 1.48027e-16 -0 1.4803e-16)
(1.48036e-16 -1.60938e-17 -0 1.48023e-16 -0 1.4803e-16)
(1.4803e-16 -1.61228e-17 -0 1.4803e-16 -0 1.4803e-16)
(1.48025e-16 -1.61347e-17 -0 1.48035e-16 -0 1.48029e-16)
(1.48033e-16 -1.86857e-17 -0 1.48025e-16 -0 1.48031e-16)
(1.48035e-16 -1.86569e-17 -0 1.48025e-16 -0 1.48029e-16)
(1.48029e-16 -1.86736e-17 -0 1.48031e-16 -0 1.4803e-16)
(1.48026e-16 -1.87064e-17 -0 1.48035e-16 -0 1.48029e-16)
(1.48033e-16 -2.13995e-17 -0 1.48027e-16 -0 1.48029e-16)
(1.48036e-16 -2.13399e-17 -0 1.48024e-16 -0 1.48029e-16)
(1.4803e-16 -2.1354e-17 -0 1.48027e-16 -0 1.48032e-16)
(1.48026e-16 -2.14211e-17 -0 1.48034e-16 -0 1.48029e-16)
(1.51123e-16 -2.46769e-17 -0 1.51111e-16 -0 1.51116e-16)
(1.5119e-16 -2.46351e-17 -0 1.51175e-16 -0 1.51183e-16)
(1.51193e-16 -2.46354e-17 -0 1.51201e-16 -0 1.51196e-16)
(1.5112e-16 -2.47055e-17 -0 1.51124e-16 -0 1.51124e-16)
(1.57984e-16 -3.94609e-17 -0 1.57973e-16 -0 1.57975e-16)
(1.58063e-16 -3.94378e-17 -0 1.58056e-16 -0 1.58055e-16)
(1.58068e-16 -3.9443e-17 -0 1.58073e-16 -0 1.58072e-16)
(1.5798e-16 -3.9487e-17 -0 1.57986e-16 -0 1.57985e-16)
)
;

boundaryField
{
    topWall
    {
        type            kqRWallFunction;
        value           nonuniform List<symmTensor> 0();
    }
    botWall
    {
        type            kqRWallFunction;
        value           nonuniform List<symmTensor> 0();
    }
    inlet
    {
        type            cyclic;
    }
    outlet
    {
        type            cyclic;
    }
    fixWall
    {
        type            empty;
    }
    procBoundary3to2
    {
        type            processor;
        value           nonuniform List<symmTensor> 8((1.48035e-16 -1.41661e-18 -0 1.48025e-16 -0 1.4803e-16) (1.48033e-16 -1.32591e-18 -0 1.48025e-16 -0 1.48031e-16) (1.48024e-16 -1.21278e-18 -0 1.48035e-16 -0 1.4803e-16) (1.48023e-16 -1.2848e-18 -0 1.48037e-16 -0 1.4803e-16) (1.48033e-16 -1.3476e-18 -0 1.48026e-16 -0 1.4803e-16) (1.48036e-16 -1.37703e-18 -0 1.48023e-16 -0 1.4803e-16) (1.48028e-16 -1.30973e-18 -0 1.48031e-16 -0 1.4803e-16) (1.48028e-16 -1.29885e-18 -0 1.48032e-16 -0 1.48029e-16));
    }
    procBoundary3to4
    {
        type            processor;
        value           nonuniform List<symmTensor> 8((1.65879e-16 -7.90972e-17 -0 1.65868e-16 -0 1.65878e-16) (1.65925e-16 -7.91136e-17 -0 1.65918e-16 -0 1.65918e-16) (1.65869e-16 -7.90616e-17 -0 1.65855e-16 -0 1.65871e-16) (1.65743e-16 -7.90126e-17 -0 1.65759e-16 -0 1.6575e-16) (1.65831e-16 -7.90675e-17 -0 1.65836e-16 -0 1.65827e-16) (1.65933e-16 -7.9119e-17 -0 1.65922e-16 -0 1.65928e-16) (1.65941e-16 -7.9119e-17 -0 1.65934e-16 -0 1.65943e-16) (1.65827e-16 -7.90683e-17 -0 1.65853e-16 -0 1.65831e-16));
    }
}


// ************************************************************************* //
