/*--------------------------------*- C++ -*----------------------------------*\
  =========                 |
  \\      /  F ield         | OpenFOAM: The Open Source CFD Toolbox
   \\    /   O peration     | Website:  https://openfoam.org
    \\  /    A nd           | Version:  dev
     \\/     M anipulation  |

   OpenFOAM for Windows 20.09 (v1)
   Built by CFD Support, www.cfdsupport.com (based on Symscape).
\*---------------------------------------------------------------------------*/
FoamFile
{
    version     2.0;
    format      ascii;
    class       volVectorField;
    location    "2";
    object      UMean;
}
// * * * * * * * * * * * * * * * * * * * * * * * * * * * * * * * * * * * * * //

dimensions      [0 1 -1 0 0 0 0];

internalField   nonuniform List<vector> 
120
(
(0.0170468 -2.83855e-06 0)
(0.0170269 -2.21843e-05 0)
(0.0170233 -3.13037e-06 0)
(0.0170488 1.34835e-05 0)
(0.0171953 -2.42664e-06 0)
(0.0171689 -2.21787e-05 0)
(0.0171603 -3.44547e-06 0)
(0.0171895 1.29539e-05 0)
(0.0173876 -2.50106e-06 0)
(0.0173572 -2.14851e-05 0)
(0.0173453 -3.63058e-06 0)
(0.0173774 1.27873e-05 0)
(0.0176365 -1.88789e-06 0)
(0.0176023 -2.14442e-05 0)
(0.0175888 -3.7228e-06 0)
(0.0176236 1.18464e-05 0)
(0.0179553 -2.20106e-06 0)
(0.0179191 -2.05479e-05 0)
(0.0179047 -4.03171e-06 0)
(0.0179417 1.18372e-05 0)
(0.0183609 -1.21287e-06 0)
(0.0183229 -2.05756e-05 0)
(0.0183086 -4.14159e-06 0)
(0.0183473 1.08177e-05 0)
(0.0188715 -1.86202e-06 0)
(0.0188327 -1.94996e-05 0)
(0.0188187 -4.42e-06 0)
(0.0188587 1.06557e-05 0)
(0.0195084 -5.55958e-07 0)
(0.0194695 -1.96342e-05 0)
(0.0194564 -4.6189e-06 0)
(0.0194972 9.76973e-06 0)
(0.0202952 -1.57741e-06 0)
(0.0202566 -1.84003e-05 0)
(0.0202448 -4.85867e-06 0)
(0.0202858 9.4136e-06 0)
(0.0212585 2.18699e-07 0)
(0.0212197 -1.89275e-05 0)
(0.0212102 -5.21134e-06 0)
(0.0212517 8.82025e-06 0)
(0.0224257 -1.40398e-06 0)
(0.0223871 -1.70718e-05 0)
(0.0223803 -5.2123e-06 0)
(0.0224234 8.12822e-06 0)
(0.0238291 1.1094e-06 0)
(0.0237895 -1.84788e-05 0)
(0.0237862 -6.03039e-06 0)
(0.0238319 8.04178e-06 0)
(0.0254994 -9.25788e-07 0)
(0.0254598 -1.63407e-05 0)
(0.0254589 -6.08845e-06 0)
(0.0255119 6.85686e-06 0)
(0.0274724 1.96884e-06 0)
(0.0274308 -1.72116e-05 0)
(0.0274324 -6.55082e-06 0)
(0.0274952 7.14892e-06 0)
(0.0297905 3.89184e-07 0)
(0.0297529 -1.58828e-05 0)
(0.0297445 -7.46016e-06 0)
(0.0298186 6.24708e-06 0)
(0.017063 1.18331e-05 0)
(0.0170433 3.92407e-06 0)
(0.0170328 -1.2315e-05 0)
(0.0170468 1.16413e-05 0)
(0.0172081 1.19894e-05 0)
(0.0171905 4.28786e-06 0)
(0.0171773 -1.22895e-05 0)
(0.0171919 1.13411e-05 0)
(0.0173984 1.20997e-05 0)
(0.017382 4.45108e-06 0)
(0.0173671 -1.23348e-05 0)
(0.0173816 1.13318e-05 0)
(0.017646 1.18445e-05 0)
(0.0176306 4.77965e-06 0)
(0.0176145 -1.21315e-05 0)
(0.0176287 1.07936e-05 0)
(0.0179642 1.20182e-05 0)
(0.017949 4.85764e-06 0)
(0.0179326 -1.22014e-05 0)
(0.0179463 1.09312e-05 0)
(0.0183695 1.18717e-05 0)
(0.0183543 5.38075e-06 0)
(0.018338 -1.20796e-05 0)
(0.0183511 1.02698e-05 0)
(0.0188802 1.18559e-05 0)
(0.0188644 5.30695e-06 0)
(0.0188488 -1.19495e-05 0)
(0.0188614 1.0429e-05 0)
(0.0195177 1.18159e-05 0)
(0.0195011 5.90805e-06 0)
(0.0194865 -1.1973e-05 0)
(0.0194982 9.6575e-06 0)
(0.0203048 1.18407e-05 0)
(0.0202874 5.76892e-06 0)
(0.0202739 -1.17296e-05 0)
(0.0202853 1.00265e-05 0)
(0.0212684 1.18346e-05 0)
(0.0212503 6.44855e-06 0)
(0.0212386 -1.19248e-05 0)
(0.0212492 9.03996e-06 0)
(0.0224365 1.18569e-05 0)
(0.0224171 6.17075e-06 0)
(0.0224064 -1.14776e-05 0)
(0.0224178 9.65556e-06 0)
(0.0238403 1.21047e-05 0)
(0.023819 7.05956e-06 0)
(0.0238113 -1.19396e-05 0)
(0.0238237 8.52577e-06 0)
(0.0255128 1.23553e-05 0)
(0.0254894 6.55652e-06 0)
(0.0254807 -1.1539e-05 0)
(0.0254973 9.20795e-06 0)
(0.0274905 1.22121e-05 0)
(0.0274602 7.47533e-06 0)
(0.0274539 -1.15107e-05 0)
(0.0274775 8.1173e-06 0)
(0.0298038 1.27591e-05 0)
(0.0297729 7.27789e-06 0)
(0.0297625 -1.19707e-05 0)
(0.0297929 9.19723e-06 0)
)
;

boundaryField
{
    topWall
    {
        type            calculated;
        value           nonuniform List<vector> 0();
    }
    botWall
    {
        type            calculated;
        value           nonuniform List<vector> 0();
    }
    inlet
    {
        type            cyclic;
    }
    outlet
    {
        type            cyclic;
    }
    fixWall
    {
        type            empty;
    }
    procBoundary3to2
    {
        type            processor;
        value           nonuniform List<vector> 8((0.0169302 -2.82719e-06 0) (0.0169176 -2.27194e-05 0) (0.0169238 -3.08024e-06 0) (0.016944 1.40057e-05 0) (0.0169546 1.20146e-05 0) (0.0169323 3.7983e-06 0) (0.0169262 -1.25179e-05 0) (0.0169408 1.19039e-05 0));
    }
    procBoundary3to4
    {
        type            processor;
        value           nonuniform List<vector> 8((0.0343566 1.04046e-06 0) (0.0343316 -1.55155e-05 0) (0.0342805 -6.9386e-06 0) (0.0343513 6.06591e-06 0) (0.0343527 1.23927e-05 0) (0.0343177 7.35257e-06 0) (0.0343095 -1.16217e-05 0) (0.0343434 8.07825e-06 0));
    }
}


// ************************************************************************* //
