/*--------------------------------*- C++ -*----------------------------------*\
  =========                 |
  \\      /  F ield         | OpenFOAM: The Open Source CFD Toolbox
   \\    /   O peration     | Website:  https://openfoam.org
    \\  /    A nd           | Version:  dev
     \\/     M anipulation  |

   OpenFOAM for Windows 20.09 (v1)
   Built by CFD Support, www.cfdsupport.com (based on Symscape).
\*---------------------------------------------------------------------------*/
FoamFile
{
    version     2.0;
    format      ascii;
    class       surfaceScalarField;
    location    "4";
    object      alphaPhi0.water;
}
// * * * * * * * * * * * * * * * * * * * * * * * * * * * * * * * * * * * * * //

dimensions      [0 3 -1 0 0 0 0];

internalField   nonuniform List<scalar> 
217
(
4.34378e-85
3.61432e-90
1.2427e-84
1.74481e-87
1.01861e-84
-1.72688e-89
1.4609e-90
6.35646e-85
7.31289e-88
3.83253e-93
2.47282e-87
3.34582e-90
2.14173e-87
-4.03933e-92
3.62653e-93
1.25817e-87
1.78255e-90
4.45894e-95
5.12253e-90
6.40817e-93
4.61342e-90
-9.43507e-95
6.58898e-96
2.76592e-90
4.71447e-93
3.71091e-98
1.11116e-92
1.27031e-95
1.02747e-92
-2.15046e-97
1.40765e-98
6.26182e-93
1.21983e-95
8.97501e-101
2.48806e-95
2.51997e-98
2.34172e-95
-4.69589e-100
3.279e-101
1.45413e-95
3.00938e-98
1.99018e-103
5.52562e-98
4.79657e-101
5.27801e-98
-9.63463e-103
7.91911e-104
3.34658e-98
7.07221e-101
4.17067e-106
1.18628e-100
8.50471e-104
1.14926e-100
-1.82921e-105
1.84356e-106
7.45803e-101
1.55407e-103
7.78056e-109
2.40374e-103
1.3677e-106
2.36586e-103
-3.16066e-108
4.04386e-109
1.57308e-103
3.13355e-106
1.32979e-111
4.5011e-106
1.72665e-109
4.52867e-106
-4.8996e-111
8.07387e-112
3.1004e-106
5.68658e-109
2.10612e-114
7.85259e-109
1.44404e-112
7.9383e-109
-6.80893e-114
1.44722e-114
5.6263e-109
9.05845e-112
2.92578e-117
1.28475e-111
5.54812e-116
1.26946e-111
-8.75723e-117
2.31037e-117
9.2919e-112
1.19265e-114
3.50582e-120
1.83863e-114
5.49785e-120
1.89272e-114
-9.9889e-120
3.21073e-120
1.37401e-114
1.57581e-117
3.69859e-123
2.31241e-117
1.42291e-122
2.51612e-117
-1.09247e-122
3.84313e-123
1.79824e-117
1.92287e-120
3.49822e-126
2.57151e-120
4.87044e-126
3.22988e-120
-1.01625e-125
4.05593e-126
2.08566e-120
1.81652e-123
3.35604e-123
3.62951e-123
2.24372e-123
1.34332e-84
2.05528e-87
1.13023e-84
-1.01585e-89
8.00864e-85
-1.85602e-89
-3.46519e-90
3.30646e-87
5.3293e-90
2.83996e-87
-1.92742e-92
2.14556e-87
-4.58352e-92
-1.22107e-92
8.07847e-90
1.31407e-92
7.07018e-90
-3.47943e-95
5.55654e-90
-1.10759e-94
-3.79013e-95
1.93637e-92
3.09487e-95
1.73312e-92
-5.83973e-98
1.41935e-92
-2.59809e-97
-1.08809e-97
4.54051e-95
6.88004e-98
4.14175e-95
-8.82446e-101
3.51962e-95
-5.7708e-100
-2.77477e-100
1.02089e-97
1.44688e-100
9.50847e-98
-1.09252e-103
8.39164e-98
-1.21253e-102
-6.43182e-103
2.18924e-100
2.835e-103
2.07675e-100
-8.90627e-107
1.8951e-100
-2.38016e-105
-1.34219e-105
4.40186e-103
5.14454e-106
4.25686e-103
2.24274e-110
4.01605e-103
-4.3394e-108
-2.51283e-108
8.23462e-106
8.57226e-109
8.09946e-106
2.62361e-112
7.86675e-106
-7.35649e-111
-4.14158e-111
1.41829e-108
1.30447e-111
1.42829e-108
5.02546e-115
1.42222e-108
-1.14835e-113
-5.83737e-114
2.23155e-111
1.75849e-114
2.29437e-111
6.16361e-118
2.31109e-111
-1.60326e-116
-6.8739e-117
3.12999e-114
2.0775e-117
3.24677e-114
4.88379e-121
3.31371e-114
-1.97419e-119
-6.62588e-120
3.87319e-117
2.10157e-120
4.02913e-117
8.73552e-125
4.15883e-117
-2.10719e-122
-4.95602e-123
4.18518e-120
1.67352e-123
4.34463e-120
-1.38112e-127
4.52284e-120
-1.9405e-125
-2.7309e-126
3.91513e-123
4.09182e-123
4.25378e-123
)
;

boundaryField
{
    topWall
    {
        type            calculated;
        value           nonuniform List<scalar> 0();
    }
    botWall
    {
        type            calculated;
        value           nonuniform List<scalar> 0();
    }
    inlet
    {
        type            cyclic;
        value           nonuniform List<scalar> 
15
(
-5.26562e-85
-1.53332e-87
-4.12695e-90
-1.09494e-92
-2.81585e-95
-6.96021e-98
-1.61497e-100
-3.51821e-103
-7.07362e-106
-1.29512e-108
-2.1287e-111
-3.07641e-114
-3.87394e-117
-4.1968e-120
-3.91138e-123
)
;
    }
    outlet
    {
        type            cyclic;
        value           nonuniform List<scalar> 
15
(
5.26562e-85
1.53332e-87
4.12695e-90
1.09494e-92
2.81585e-95
6.96021e-98
1.61497e-100
3.51821e-103
7.07362e-106
1.29512e-108
2.1287e-111
3.07641e-114
3.87394e-117
4.1968e-120
3.91138e-123
)
;
    }
    fixWall
    {
        type            empty;
        value           nonuniform List<scalar> 0();
    }
    procBoundary6to5
    {
        type            processor;
        value           nonuniform List<scalar> 8(-7.42963e-86 -1.03373e-84 7.40902e-87 -1.27778e-87 -1.49374e-84 4.99838e-87 7.45142e-87 7.65732e-88);
    }
    procBoundary6to7
    {
        type            processor;
        value           nonuniform List<scalar> 8(8.32124e-127 2.65345e-129 -4.62523e-129 2.73812e-127 1.65044e-126 -5.48188e-130 -6.83956e-129 -1.17053e-130);
    }
}


// ************************************************************************* //
