/*--------------------------------*- C++ -*----------------------------------*\
  =========                 |
  \\      /  F ield         | OpenFOAM: The Open Source CFD Toolbox
   \\    /   O peration     | Website:  https://openfoam.org
    \\  /    A nd           | Version:  dev
     \\/     M anipulation  |

   OpenFOAM for Windows 20.09 (v1)
   Built by CFD Support, www.cfdsupport.com (based on Symscape).
\*---------------------------------------------------------------------------*/
FoamFile
{
    version     2.0;
    format      ascii;
    class       volSymmTensorField;
    location    "4";
    object      devReff;
}
// * * * * * * * * * * * * * * * * * * * * * * * * * * * * * * * * * * * * * //

dimensions      [0 2 -2 0 0 0 0];

internalField   nonuniform List<symmTensor> 
120
(
(2.71319e-07 7.74323e-06 -0 -1.5454e-07 -0 -1.1678e-07)
(1.12793e-07 6.05074e-07 -0 -1.11977e-07 -0 -8.16704e-10)
(-7.80615e-07 4.82815e-06 -0 8.46487e-07 -0 -6.58721e-08)
(-1.16561e-07 7.91881e-06 -0 8.83664e-08 -0 2.81949e-08)
(1.86226e-07 1.43929e-05 -0 -6.19695e-08 -0 -1.24256e-07)
(1.26071e-08 5.44122e-06 -0 3.33604e-08 -0 -4.59675e-08)
(-5.76983e-07 1.09202e-05 -0 6.25558e-07 -0 -4.85751e-08)
(-9.34158e-08 1.64788e-05 -0 1.03083e-07 -0 -9.66709e-09)
(2.1409e-07 2.27585e-05 -0 -2.89021e-07 -0 7.49313e-08)
(1.07471e-07 1.1628e-05 -0 -2.18676e-07 -0 1.11206e-07)
(-2.97694e-07 1.80761e-05 -0 2.52869e-07 -0 4.48249e-08)
(-6.55637e-08 2.58513e-05 -0 5.96653e-08 -0 5.89846e-09)
(-8.09551e-08 3.26109e-05 -0 1.80765e-07 -0 -9.98099e-08)
(-1.61916e-07 1.8898e-05 -0 2.24762e-07 -0 -6.28466e-08)
(-5.23636e-08 2.48363e-05 -0 5.50008e-08 -0 -2.63722e-09)
(-4.97265e-08 3.5797e-05 -0 6.83852e-08 -0 -1.86587e-08)
(-2.27212e-07 4.31501e-05 -0 2.36765e-07 -0 -9.55298e-09)
(-2.23544e-07 2.99502e-05 -0 1.82358e-07 -0 4.1186e-08)
(2.2494e-07 3.39087e-05 -0 -2.24599e-07 -0 -3.40828e-10)
(1.5723e-08 4.34079e-05 -0 -1.34545e-08 -0 -2.26849e-09)
(-2.9858e-07 5.51721e-05 -0 2.97328e-07 -0 1.25144e-09)
(-3.40531e-07 4.61083e-05 -0 2.72311e-07 -0 6.82201e-08)
(3.84616e-07 4.83103e-05 -0 -3.65915e-07 -0 -1.87001e-08)
(6.60553e-08 5.53315e-05 -0 -7.2753e-08 -0 6.69774e-09)
(-4.19574e-07 7.13467e-05 -0 4.66559e-07 -0 -4.69846e-08)
(-4.78611e-07 6.51332e-05 -0 4.62044e-07 -0 1.65665e-08)
(5.32047e-07 6.66789e-05 -0 -5.27098e-07 -0 -4.94918e-09)
(9.70332e-08 7.13888e-05 -0 -9.49194e-08 -0 -2.11376e-09)
(-3.81721e-07 9.35003e-05 -0 4.08802e-07 -0 -2.70807e-08)
(-5.26259e-07 8.9828e-05 -0 4.8667e-07 -0 3.95889e-08)
(5.99669e-07 9.04841e-05 -0 -5.83492e-07 -0 -1.61766e-08)
(1.21196e-07 9.34762e-05 -0 -1.26205e-07 -0 5.00973e-09)
(-3.52109e-07 0.00012252 -0 3.89547e-07 -0 -3.74375e-08)
(-5.7206e-07 0.000120381 -0 5.46995e-07 -0 2.50648e-08)
(6.53159e-07 0.000120927 -0 -6.44021e-07 -0 -9.13755e-09)
(1.26026e-07 0.00012258 -0 -1.2189e-07 -0 -4.13624e-09)
(-2.63862e-07 0.000160347 -0 2.98972e-07 -0 -3.51099e-08)
(-5.81231e-07 0.000159964 -0 5.42369e-07 -0 3.88625e-08)
(6.81382e-07 0.00016017 -0 -6.70213e-07 -0 -1.11686e-08)
(1.35116e-07 0.000160502 -0 -1.38042e-07 -0 2.92509e-09)
(-1.87107e-07 0.000208933 -0 2.23784e-07 -0 -3.66764e-08)
(-5.7676e-07 0.000209801 -0 5.49533e-07 -0 2.72271e-08)
(6.6938e-07 0.000210039 -0 -6.55489e-07 -0 -1.38915e-08)
(1.1544e-07 0.00020903 -0 -1.15154e-07 -0 -2.86024e-10)
(-1.34976e-07 0.000270197 -0 1.56676e-07 -0 -2.17007e-08)
(-5.48992e-07 0.000273418 -0 5.14084e-07 -0 3.49089e-08)
(6.54838e-07 0.000273529 -0 -6.40089e-07 -0 -1.47488e-08)
(1.08144e-07 0.000270406 -0 -1.14198e-07 -0 6.05416e-09)
(-4.43643e-08 0.000347189 -0 5.96586e-08 -0 -1.52942e-08)
(-4.64219e-07 0.000350917 -0 4.35024e-07 -0 2.9195e-08)
(5.83114e-07 0.000351103 -0 -5.80943e-07 -0 -2.17084e-09)
(3.7213e-08 0.000347265 -0 -5.55219e-08 -0 1.83089e-08)
(-1.13507e-07 0.000442176 -0 1.64186e-07 -0 -5.06786e-08)
(-4.23572e-07 0.000445955 -0 3.93474e-07 -0 3.00978e-08)
(5.32882e-07 0.00044607 -0 -5.15714e-07 -0 -1.71681e-08)
(8.15825e-09 0.000442436 -0 1.04507e-09 -0 -9.20332e-09)
(-7.19723e-08 0.0005594 -0 1.35127e-07 -0 -6.3155e-08)
(-3.4408e-07 0.000563023 -0 3.24466e-07 -0 1.9614e-08)
(4.58395e-07 0.000563168 -0 -4.46865e-07 -0 -1.15292e-08)
(-3.94819e-08 0.000559406 -0 2.50964e-08 -0 1.43855e-08)
(4.11906e-08 7.64996e-06 -0 1.06224e-07 -0 -1.47415e-07)
(5.55349e-07 7.99203e-06 -0 -4.11225e-07 -0 -1.44124e-07)
(-2.61906e-07 2.34988e-06 -0 6.61851e-07 -0 -3.99945e-07)
(-8.25253e-07 6.26724e-06 -0 9.8218e-07 -0 -1.56926e-07)
(1.27451e-07 1.3128e-05 -0 -2.15635e-07 -0 8.81839e-08)
(6.70776e-07 1.25318e-05 -0 -7.75884e-07 -0 1.05108e-07)
(3.45663e-07 8.49981e-06 -0 -5.12667e-07 -0 1.67004e-07)
(-5.06311e-07 1.27948e-05 -0 4.72127e-07 -0 3.41835e-08)
(8.00814e-09 1.96569e-05 -0 3.65169e-08 -0 -4.4525e-08)
(5.36217e-07 1.90024e-05 -0 -5.27084e-07 -0 -9.1331e-09)
(1.78261e-07 1.58986e-05 -0 -2.05694e-07 -0 2.74336e-08)
(-3.80921e-07 2.02648e-05 -0 2.9169e-07 -0 8.92315e-08)
(-2.17329e-07 2.7521e-05 -0 2.41249e-07 -0 -2.39195e-08)
(3.97384e-07 2.51588e-05 -0 -3.5435e-07 -0 -4.30341e-08)
(1.17752e-07 2.40958e-05 -0 -1.12235e-08 -0 -1.06529e-07)
(-4.58023e-07 2.9482e-05 -0 6.05766e-07 -0 -1.47742e-07)
(-2.4212e-07 3.66202e-05 -0 1.77712e-07 -0 6.44078e-08)
(5.32466e-07 3.56558e-05 -0 -6.33962e-07 -0 1.01496e-07)
(5.04883e-07 3.4518e-05 -0 -7.10861e-07 -0 2.05977e-07)
(-7.7701e-08 3.94022e-05 -0 -2.88298e-08 -0 1.06531e-07)
(-5.05045e-07 5.07413e-05 -0 5.54003e-07 -0 -4.89582e-08)
(3.34049e-07 4.94755e-05 -0 -2.98133e-07 -0 -3.59159e-08)
(2.63004e-07 4.72589e-05 -0 -1.73405e-07 -0 -8.95987e-08)
(-1.45033e-08 5.06493e-05 -0 8.43606e-09 -0 6.06729e-09)
(-5.15715e-07 6.83833e-05 -0 5.25628e-07 -0 -9.91275e-09)
(2.86696e-07 6.78421e-05 -0 -2.59076e-07 -0 -2.76194e-08)
(3.36263e-07 6.45725e-05 -0 -3.31131e-07 -0 -5.13264e-09)
(1.05312e-07 6.66774e-05 -0 -1.28908e-07 -0 2.35961e-08)
(-5.878e-07 9.14142e-05 -0 5.97467e-07 -0 -9.66769e-09)
(2.61485e-07 9.08363e-05 -0 -2.80537e-07 -0 1.90519e-08)
(3.2107e-07 8.67346e-05 -0 -3.25214e-07 -0 4.14333e-09)
(2.22102e-07 8.79992e-05 -0 -2.36976e-07 -0 1.48735e-08)
(-6.06147e-07 0.00012141 -0 6.14955e-07 -0 -8.80773e-09)
(1.48025e-07 0.000121189 -0 -1.38359e-07 -0 -9.66646e-09)
(2.4691e-07 0.000115796 -0 -2.44104e-07 -0 -2.80543e-09)
(3.35876e-07 0.000116519 -0 -3.6248e-07 -0 2.66047e-08)
(-6.4198e-07 0.000159742 -0 6.56236e-07 -0 -1.42556e-08)
(6.00381e-08 0.000159559 -0 -6.53596e-08 -0 5.32151e-09)
(1.57819e-07 0.000154738 -0 -1.51712e-07 -0 -6.10725e-09)
(4.46774e-07 0.00015496 -0 -4.60363e-07 -0 1.35885e-08)
(-6.3591e-07 0.000209145 -0 6.40096e-07 -0 -4.18598e-09)
(-1.88628e-09 0.000208976 -0 -5.90417e-09 -0 7.79045e-09)
(1.16067e-07 0.000205958 -0 -1.33251e-07 -0 1.7184e-08)
(5.27595e-07 0.000206264 -0 -5.57253e-07 -0 2.96574e-08)
(-6.24233e-07 0.000270635 -0 6.1633e-07 -0 7.90299e-09)
(-3.82613e-08 0.000270679 -0 2.4559e-08 -0 1.37023e-08)
(8.54138e-08 0.000269879 -0 -9.50036e-08 -0 9.58979e-09)
(5.32741e-07 0.000269712 -0 -5.31707e-07 -0 -1.03381e-09)
(-6.27989e-07 0.000348576 -0 6.31003e-07 -0 -3.01415e-09)
(-3.62055e-08 0.000348342 -0 3.71456e-08 -0 -9.40072e-10)
(7.12412e-08 0.000349006 -0 -7.3722e-08 -0 2.48077e-09)
(5.39798e-07 0.00034934 -0 -5.6982e-07 -0 3.00224e-08)
(-6.13053e-07 0.000443903 -0 6.27745e-07 -0 -1.46926e-08)
(-2.24918e-08 0.00044407 -0 7.09343e-09 -0 1.53984e-08)
(9.92683e-08 0.000445633 -0 -8.73977e-08 -0 -1.18706e-08)
(5.00788e-07 0.000445288 -0 -5.27377e-07 -0 2.65896e-08)
(-6.07141e-07 0.000562027 -0 6.41931e-07 -0 -3.47897e-08)
(-5.99342e-09 0.000561881 -0 3.42076e-08 -0 -2.82142e-08)
(8.55507e-08 0.000562148 -0 -5.98566e-08 -0 -2.56941e-08)
(4.23913e-07 0.000562439 -0 -4.52486e-07 -0 2.85727e-08)
)
;

boundaryField
{
    topWall
    {
        type            calculated;
        value           nonuniform List<symmTensor> 0();
    }
    botWall
    {
        type            calculated;
        value           nonuniform List<symmTensor> 0();
    }
    inlet
    {
        type            cyclic;
    }
    outlet
    {
        type            cyclic;
    }
    fixWall
    {
        type            empty;
    }
    procBoundary6to5
    {
        type            processor;
        value           nonuniform List<symmTensor> 8((6.049e-07 1.15693e-06 -0 -7.0681e-07 -0 1.0191e-07) (3.49509e-07 -4.57811e-06 -0 -5.4182e-07 -0 1.92311e-07) (-8.01747e-07 -9.19786e-07 -0 8.27163e-07 -0 -2.54162e-08) (-1.42514e-07 -2.63974e-07 -0 1.07518e-07 -0 3.49959e-08) (5.6682e-08 5.21773e-07 -0 -7.23248e-08 -0 1.56427e-08) (7.43886e-07 2.22916e-06 -0 -7.46104e-07 -0 2.21772e-09) (4.39907e-07 -3.15393e-06 -0 -6.47513e-07 -0 2.07605e-07) (-3.6516e-07 3.11436e-07 -0 8.96344e-09 -0 3.56197e-07));
    }
    procBoundary6to7
    {
        type            processor;
        value           nonuniform List<symmTensor> 8((-9.37879e-08 0.000701751 -0 1.42376e-07 -0 -4.85883e-08) (-2.84527e-07 0.000705695 -0 2.41104e-07 -0 4.34238e-08) (4.15927e-07 0.000705784 -0 -4.007e-07 -0 -1.52265e-08) (-3.66469e-08 0.000701733 -0 5.20426e-08 -0 -1.53957e-08) (-5.43894e-07 0.000704725 -0 5.70342e-07 -0 -2.6448e-08) (-2.06978e-08 0.000705002 -0 7.4292e-09 -0 1.32686e-08) (1.14484e-07 0.000705126 -0 -9.74759e-08 -0 -1.70082e-08) (4.34746e-07 0.000704973 -0 -4.86323e-07 -0 5.15769e-08));
    }
}


// ************************************************************************* //
