/*--------------------------------*- C++ -*----------------------------------*\
  =========                 |
  \\      /  F ield         | OpenFOAM: The Open Source CFD Toolbox
   \\    /   O peration     | Website:  https://openfoam.org
    \\  /    A nd           | Version:  dev
     \\/     M anipulation  |

   OpenFOAM for Windows 20.09 (v1)
   Built by CFD Support, www.cfdsupport.com (based on Symscape).
\*---------------------------------------------------------------------------*/
FoamFile
{
    version     2.0;
    format      ascii;
    class       volScalarField;
    location    "4";
    object      epsilon;
}
// * * * * * * * * * * * * * * * * * * * * * * * * * * * * * * * * * * * * * //

dimensions      [0 2 -3 0 0 0 0];

internalField   nonuniform List<scalar> 
120
(
5.32432e-16
5.32229e-16
5.32105e-16
5.32141e-16
5.61783e-16
5.61594e-16
5.61493e-16
5.61522e-16
5.95561e-16
5.95386e-16
5.95308e-16
5.9533e-16
6.34402e-16
6.34241e-16
6.34185e-16
6.34201e-16
6.79074e-16
6.78927e-16
6.78891e-16
6.78901e-16
7.30509e-16
7.30377e-16
7.3036e-16
7.30364e-16
7.89849e-16
7.89734e-16
7.89734e-16
7.89731e-16
8.58508e-16
8.5841e-16
8.58425e-16
8.58415e-16
9.38246e-16
9.38166e-16
9.38191e-16
9.38177e-16
1.03128e-15
1.03122e-15
1.03125e-15
1.03123e-15
1.14044e-15
1.14039e-15
1.14043e-15
1.14041e-15
1.26935e-15
1.26933e-15
1.26937e-15
1.26935e-15
1.42278e-15
1.42277e-15
1.42282e-15
1.42279e-15
1.60702e-15
1.60703e-15
1.60708e-15
1.60705e-15
1.83056e-15
1.8306e-15
1.83065e-15
1.83061e-15
5.32069e-16
5.3206e-16
5.32082e-16
5.32104e-16
5.61449e-16
5.61448e-16
5.61469e-16
5.61493e-16
5.95256e-16
5.95265e-16
5.95284e-16
5.9531e-16
6.34129e-16
6.34141e-16
6.34161e-16
6.3419e-16
6.78832e-16
6.78847e-16
6.78869e-16
6.78899e-16
7.30298e-16
7.30314e-16
7.30339e-16
7.30371e-16
7.89669e-16
7.89687e-16
7.89714e-16
7.89747e-16
8.58358e-16
8.58377e-16
8.58406e-16
8.58441e-16
9.38126e-16
9.38145e-16
9.38176e-16
9.38212e-16
1.03119e-15
1.03121e-15
1.03124e-15
1.03128e-15
1.14037e-15
1.14039e-15
1.14043e-15
1.14047e-15
1.26932e-15
1.26933e-15
1.26937e-15
1.26941e-15
1.42278e-15
1.42279e-15
1.42283e-15
1.42287e-15
1.60705e-15
1.60705e-15
1.6071e-15
1.60714e-15
1.83062e-15
1.83062e-15
1.83068e-15
1.83071e-15
)
;

boundaryField
{
    topWall
    {
        type            epsilonWallFunction;
        value           nonuniform List<scalar> 0();
    }
    botWall
    {
        type            epsilonWallFunction;
        value           nonuniform List<scalar> 0();
    }
    inlet
    {
        type            cyclic;
    }
    outlet
    {
        type            cyclic;
    }
    fixWall
    {
        type            empty;
    }
    procBoundary6to5
    {
        type            processor;
        value           nonuniform List<scalar> 8(5.06494e-16 5.06277e-16 5.06137e-16 5.06176e-16 5.06103e-16 5.06092e-16 5.0611e-16 5.06132e-16);
    }
    procBoundary6to7
    {
        type            processor;
        value           nonuniform List<scalar> 8(2.10552e-15 2.1056e-15 2.10564e-15 2.10559e-15 2.10561e-15 2.10562e-15 2.10568e-15 2.1057e-15);
    }
}


// ************************************************************************* //
