/*--------------------------------*- C++ -*----------------------------------*\
  =========                 |
  \\      /  F ield         | OpenFOAM: The Open Source CFD Toolbox
   \\    /   O peration     | Website:  https://openfoam.org
    \\  /    A nd           | Version:  dev
     \\/     M anipulation  |

   OpenFOAM for Windows 20.09 (v1)
   Built by CFD Support, www.cfdsupport.com (based on Symscape).
\*---------------------------------------------------------------------------*/
FoamFile
{
    version     2.0;
    format      ascii;
    class       volVectorField;
    location    "4";
    object      gradp;
}
// * * * * * * * * * * * * * * * * * * * * * * * * * * * * * * * * * * * * * //

dimensions      [1 -2 -2 0 0 0 0];

internalField   nonuniform List<vector> 
120
(
(3.75188 -9.80117 0)
(-1.24744 -9.80601 0)
(-1.24482 -9.80609 0)
(-1.24854 -9.81256 0)
(3.75191 -9.8033 0)
(-1.24748 -9.80632 0)
(-1.24487 -9.80778 0)
(-1.24858 -9.81208 0)
(3.75194 -9.80475 0)
(-1.24751 -9.80675 0)
(-1.24492 -9.80868 0)
(-1.2486 -9.81181 0)
(3.75196 -9.80564 0)
(-1.24754 -9.80733 0)
(-1.24496 -9.80895 0)
(-1.24861 -9.8117 0)
(3.75199 -9.80626 0)
(-1.24757 -9.80799 0)
(-1.24499 -9.80903 0)
(-1.24862 -9.81168 0)
(3.752 -9.80632 0)
(-1.24759 -9.80815 0)
(-1.24502 -9.80909 0)
(-1.24863 -9.81159 0)
(3.75202 -9.80625 0)
(-1.24761 -9.80815 0)
(-1.24505 -9.80913 0)
(-1.24863 -9.81146 0)
(3.75204 -9.8062 0)
(-1.24764 -9.80817 0)
(-1.24507 -9.80917 0)
(-1.24864 -9.81133 0)
(3.75206 -9.80614 0)
(-1.24766 -9.80817 0)
(-1.2451 -9.8092 0)
(-1.24864 -9.81119 0)
(3.75208 -9.8061 0)
(-1.24769 -9.80819 0)
(-1.24513 -9.80923 0)
(-1.24864 -9.81106 0)
(3.7521 -9.80608 0)
(-1.24772 -9.80823 0)
(-1.24515 -9.80928 0)
(-1.24864 -9.81092 0)
(3.75212 -9.80606 0)
(-1.24774 -9.80831 0)
(-1.24517 -9.80933 0)
(-1.24863 -9.81077 0)
(3.75214 -9.80615 0)
(-1.24777 -9.80844 0)
(-1.24519 -9.80936 0)
(-1.24863 -9.81063 0)
(3.75215 -9.80662 0)
(-1.2478 -9.80861 0)
(-1.24521 -9.80943 0)
(-1.24862 -9.81067 0)
(3.75217 -9.80753 0)
(-1.24782 -9.8088 0)
(-1.24522 -9.80957 0)
(-1.24862 -9.81093 0)
(-1.25364 -9.8109 0)
(-1.25625 -9.80952 0)
(-1.25341 -9.80355 0)
(3.75223 -9.81036 0)
(-1.25362 -9.81106 0)
(-1.2562 -9.80962 0)
(-1.25342 -9.80548 0)
(3.75226 -9.80996 0)
(-1.2536 -9.81082 0)
(-1.25616 -9.80918 0)
(-1.25342 -9.8059 0)
(3.75227 -9.80963 0)
(-1.25358 -9.81063 0)
(-1.25612 -9.80885 0)
(-1.25342 -9.80618 0)
(3.75228 -9.81002 0)
(-1.25355 -9.81011 0)
(-1.25609 -9.80824 0)
(-1.25344 -9.8057 0)
(3.75228 -9.81046 0)
(-1.25352 -9.80966 0)
(-1.25605 -9.80773 0)
(-1.25346 -9.80513 0)
(3.75227 -9.8104 0)
(-1.25349 -9.80953 0)
(-1.25601 -9.80777 0)
(-1.25348 -9.80529 0)
(3.75226 -9.8104 0)
(-1.25346 -9.80941 0)
(-1.25598 -9.80786 0)
(-1.25351 -9.80546 0)
(3.75225 -9.81041 0)
(-1.25343 -9.80929 0)
(-1.25594 -9.80792 0)
(-1.25353 -9.80561 0)
(3.75225 -9.81043 0)
(-1.25341 -9.80917 0)
(-1.25592 -9.80798 0)
(-1.25355 -9.80574 0)
(3.75224 -9.81047 0)
(-1.25338 -9.80902 0)
(-1.25589 -9.80797 0)
(-1.25357 -9.80579 0)
(3.75224 -9.81054 0)
(-1.25336 -9.80883 0)
(-1.25586 -9.80795 0)
(-1.25359 -9.80583 0)
(3.75224 -9.81063 0)
(-1.25333 -9.80877 0)
(-1.25584 -9.80803 0)
(-1.25361 -9.80607 0)
(3.75224 -9.81065 0)
(-1.25331 -9.80903 0)
(-1.25582 -9.80826 0)
(-1.25363 -9.80661 0)
(3.75224 -9.81048 0)
(-1.25329 -9.8096 0)
(-1.2558 -9.80869 0)
(-1.25365 -9.8074 0)
(3.75224 -9.81019 0)
)
;

boundaryField
{
    topWall
    {
        type            extrapolatedCalculated;
        value           nonuniform List<vector> 0();
    }
    botWall
    {
        type            extrapolatedCalculated;
        value           nonuniform List<vector> 0();
    }
    inlet
    {
        type            cyclic;
    }
    outlet
    {
        type            cyclic;
    }
    fixWall
    {
        type            empty;
    }
    procBoundary6to5
    {
        type            processor;
        value           nonuniform List<vector> 8((3.75184 -9.79962 0) (-1.2474 -9.80654 0) (-1.24476 -9.80423 0) (-1.2485 -9.81321 0) (-1.25367 -9.81063 0) (-1.25633 -9.80921 0) (-1.2534 -9.80181 0) (3.75222 -9.81194 0));
    }
    procBoundary6to7
    {
        type            processor;
        value           nonuniform List<vector> 8((3.75218 -9.80857 0) (-1.24783 -9.80891 0) (-1.24524 -9.80972 0) (-1.24862 -9.81128 0) (-1.25328 -9.81029 0) (-1.25578 -9.80916 0) (-1.25366 -9.80815 0) (3.75224 -9.80984 0));
    }
}


// ************************************************************************* //
