/*--------------------------------*- C++ -*----------------------------------*\
  =========                 |
  \\      /  F ield         | OpenFOAM: The Open Source CFD Toolbox
   \\    /   O peration     | Website:  https://openfoam.org
    \\  /    A nd           | Version:  dev
     \\/     M anipulation  |

   OpenFOAM for Windows 20.09 (v1)
   Built by CFD Support, www.cfdsupport.com (based on Symscape).
\*---------------------------------------------------------------------------*/
FoamFile
{
    version     2.0;
    format      ascii;
    class       volVectorField;
    location    "4";
    object      gradp_rgh;
}
// * * * * * * * * * * * * * * * * * * * * * * * * * * * * * * * * * * * * * //

dimensions      [1 -2 -2 0 0 0 0];

internalField   nonuniform List<vector> 
120
(
(-1.24812 0.00883168 0)
(-1.24744 0.00398569 0)
(-1.24482 0.00391263 0)
(-1.24854 -0.00255676 0)
(-1.24809 0.00669964 0)
(-1.24748 0.0036775 0)
(-1.24487 0.00222441 0)
(-1.24858 -0.00208176 0)
(-1.24806 0.0052474 0)
(-1.24751 0.00325216 0)
(-1.24492 0.00131547 0)
(-1.2486 -0.00180517 0)
(-1.24804 0.00436285 0)
(-1.24754 0.00266976 0)
(-1.24496 0.00105319 0)
(-1.24861 -0.0017034 0)
(-1.24801 0.00373799 0)
(-1.24757 0.00200587 0)
(-1.24499 0.000966883 0)
(-1.24862 -0.00168354 0)
(-1.248 0.0036754 0)
(-1.24759 0.00185284 0)
(-1.24502 0.000913488 0)
(-1.24863 -0.00159362 0)
(-1.24798 0.00375002 0)
(-1.24761 0.00185365 0)
(-1.24505 0.0008672 0)
(-1.24863 -0.00146433 0)
(-1.24796 0.0037991 0)
(-1.24764 0.00183256 0)
(-1.24507 0.000833458 0)
(-1.24864 -0.00132528 0)
(-1.24794 0.0038603 0)
(-1.24766 0.00182581 0)
(-1.2451 0.000796044 0)
(-1.24864 -0.00119269 0)
(-1.24792 0.00389701 0)
(-1.24769 0.00181103 0)
(-1.24513 0.000767957 0)
(-1.24864 -0.00106491 0)
(-1.2479 0.00392404 0)
(-1.24772 0.00177427 0)
(-1.24515 0.000722991 0)
(-1.24864 -0.000921626 0)
(-1.24788 0.00394455 0)
(-1.24774 0.00168919 0)
(-1.24517 0.000667983 0)
(-1.24863 -0.000767596 0)
(-1.24786 0.00385373 0)
(-1.24777 0.00156247 0)
(-1.24519 0.00063512 0)
(-1.24863 -0.000629446 0)
(-1.24785 0.00338216 0)
(-1.2478 0.00139022 0)
(-1.24521 0.000570528 0)
(-1.24862 -0.000669069 0)
(-1.24783 0.00247324 0)
(-1.24782 0.00120346 0)
(-1.24522 0.00043496 0)
(-1.24862 -0.000928604 0)
(-1.25364 -0.000903005 0)
(-1.25625 0.000479031 0)
(-1.25341 0.00645269 0)
(-1.24777 -0.000355749 0)
(-1.25362 -0.00105681 0)
(-1.2562 0.000378537 0)
(-1.25342 0.00452352 0)
(-1.24774 3.51717e-05 0)
(-1.2536 -0.000819378 0)
(-1.25616 0.000824465 0)
(-1.25342 0.00409985 0)
(-1.24773 0.000365086 0)
(-1.25358 -0.000630575 0)
(-1.25612 0.00114834 0)
(-1.25342 0.00381586 0)
(-1.24772 -2.49562e-05 0)
(-1.25355 -0.000107834 0)
(-1.25609 0.00175892 0)
(-1.25344 0.00430135 0)
(-1.24772 -0.000464622 0)
(-1.25352 0.000337192 0)
(-1.25605 0.00226664 0)
(-1.25346 0.00487246 0)
(-1.24773 -0.000404253 0)
(-1.25349 0.000469772 0)
(-1.25601 0.00222915 0)
(-1.25348 0.00471365 0)
(-1.24774 -0.000404136 0)
(-1.25346 0.000589428 0)
(-1.25598 0.00213505 0)
(-1.25351 0.00454423 0)
(-1.24775 -0.00041115 0)
(-1.25343 0.000708022 0)
(-1.25594 0.00207647 0)
(-1.25353 0.00439054 0)
(-1.24775 -0.000428407 0)
(-1.25341 0.00082772 0)
(-1.25592 0.00201803 0)
(-1.25355 0.00425524 0)
(-1.24776 -0.000470949 0)
(-1.25338 0.000981973 0)
(-1.25589 0.00202664 0)
(-1.25357 0.00420857 0)
(-1.24776 -0.000535289 0)
(-1.25336 0.00117015 0)
(-1.25586 0.00204692 0)
(-1.25359 0.00416913 0)
(-1.24776 -0.000630442 0)
(-1.25333 0.00122626 0)
(-1.25584 0.00196647 0)
(-1.25361 0.00393292 0)
(-1.24776 -0.000649151 0)
(-1.25331 0.000973007 0)
(-1.25582 0.00173919 0)
(-1.25363 0.00339396 0)
(-1.24776 -0.000475026 0)
(-1.25329 0.000401348 0)
(-1.2558 0.00131055 0)
(-1.25365 0.00260315 0)
(-1.24776 -0.000185008 0)
)
;

boundaryField
{
    topWall
    {
        type            extrapolatedCalculated;
        value           nonuniform List<vector> 0();
    }
    botWall
    {
        type            extrapolatedCalculated;
        value           nonuniform List<vector> 0();
    }
    inlet
    {
        type            cyclic;
    }
    outlet
    {
        type            cyclic;
    }
    fixWall
    {
        type            empty;
    }
    procBoundary6to5
    {
        type            processor;
        value           nonuniform List<vector> 8((-1.24816 0.0103777 0) (-1.2474 0.00346079 0) (-1.24476 0.0057704 0) (-1.2485 -0.00320835 0) (-1.25367 -0.000628271 0) (-1.25633 0.000791641 0) (-1.2534 0.00818842 0) (-1.24778 -0.00194492 0));
    }
    procBoundary6to7
    {
        type            processor;
        value           nonuniform List<vector> 8((-1.24782 0.00143451 0) (-1.24783 0.00108816 0) (-1.24524 0.000275133 0) (-1.24862 -0.00127894 0) (-1.25328 -0.000286945 0) (-1.25578 0.000844054 0) (-1.25366 0.00185109 0) (-1.24776 0.000158448 0));
    }
}


// ************************************************************************* //
