/*--------------------------------*- C++ -*----------------------------------*\
  =========                 |
  \\      /  F ield         | OpenFOAM: The Open Source CFD Toolbox
   \\    /   O peration     | Website:  https://openfoam.org
    \\  /    A nd           | Version:  dev
     \\/     M anipulation  |

   OpenFOAM for Windows 20.09 (v1)
   Built by CFD Support, www.cfdsupport.com (based on Symscape).
\*---------------------------------------------------------------------------*/
FoamFile
{
    version     2.0;
    format      ascii;
    class       volTensorField;
    location    "4";
    object      gradU;
}
// * * * * * * * * * * * * * * * * * * * * * * * * * * * * * * * * * * * * * //

dimensions      [0 0 -1 0 0 0 0];

internalField   nonuniform List<tensor> 
120
(
(-0.00102846 0.000170666 0 -0.0412098 0.000100064 0 0 0 0)
(-0.000301067 -0.000310782 0 -0.00289611 0.000294574 0 0 0 0)
(0.00189407 -6.06522e-05 0 -0.0255285 -0.00241775 0 0 0 0)
(0.000383604 0.000346093 0 -0.0423158 -0.000159455 0 0 0 0)
(-0.000822777 0.000207211 0 -0.0764897 -0.00016506 0 0 0 0)
(-0.000155223 -0.000315025 0 -0.0285235 -0.000210219 0 0 0 0)
(0.00140028 -4.52113e-05 0 -0.0578318 -0.00178645 0 0 0 0)
(0.000221934 0.000369351 0 -0.087707 -0.000298787 0 0 0 0)
(-0.00036877 0.000186505 0 -0.120806 0.000964474 0 0 0 0)
(9.89806e-06 -0.000337805 0 -0.0612907 0.000874187 0 0 0 0)
(0.000907675 -6.21283e-05 0 -0.095741 -0.000551317 0 0 0 0)
(0.000189375 0.000389286 0 -0.137401 -0.000142482 0 0 0 0)
(-4.99654e-05 0.000230723 0 -0.173068 -0.000743524 0 0 0 0)
(0.000262533 -0.000340288 0 -0.099819 -0.000762164 0 0 0 0)
(0.000131775 -6.21558e-05 0 -0.13157 -0.000152741 0 0 0 0)
(8.23299e-05 0.000374961 0 -0.190099 -0.000230666 0 0 0 0)
(0.000576795 0.000207082 0 -0.228902 -0.000652742 0 0 0 0)
(0.000701534 -0.000327958 0 -0.158408 -0.000374105 0 0 0 0)
(-0.000596994 -5.327e-05 0 -0.179663 0.000594285 0 0 0 0)
(-4.76776e-05 0.00038012 0 -0.230442 2.9643e-05 0 0 0 0)
(0.000794553 0.00021851 0 -0.292631 -0.000784604 0 0 0 0)
(0.00108319 -0.000319504 0 -0.244054 -0.000540842 0 0 0 0)
(-0.00106879 -5.54267e-05 0 -0.255989 0.000920121 0 0 0 0)
(-0.000157298 0.000360052 0 -0.293617 0.000210545 0 0 0 0)
(0.000987363 0.000198173 0 -0.378336 -0.00136089 0 0 0 0)
(0.00131222 -0.000299546 0 -0.344907 -0.00118052 0 0 0 0)
(-0.00142304 -4.07469e-05 0 -0.353357 0.00138369 0 0 0 0)
(-0.000262739 0.000338154 0 -0.378699 0.000245935 0 0 0 0)
(0.000939797 0.000192099 0 -0.495744 -0.00115509 0 0 0 0)
(0.0014995 -0.000273761 0 -0.475815 -0.00118477 0 0 0 0)
(-0.00163199 -3.16525e-05 0 -0.479534 0.00150339 0 0 0 0)
(-0.000307893 0.000313337 0 -0.495737 0.00034772 0 0 0 0)
(0.00083388 0.000167303 0 -0.649523 -0.00113151 0 0 0 0)
(0.00158238 -0.000255238 0 -0.637764 -0.00138312 0 0 0 0)
(-0.00175508 -1.52055e-05 0 -0.640898 0.00168244 0 0 0 0)
(-0.000344929 0.000286282 0 -0.64996 0.000312046 0 0 0 0)
(0.000606193 0.000151862 0 -0.84999 -0.000885316 0 0 0 0)
(0.00164325 -0.000226862 0 -0.847582 -0.00133429 0 0 0 0)
(-0.00183526 -3.39981e-06 0 -0.848899 0.00174647 0 0 0 0)
(-0.000350307 0.000257747 0 -0.850917 0.000373561 0 0 0 0)
(0.000398642 0.000124132 0 -1.10747 -0.000690219 0 0 0 0)
(0.00160057 -0.000211375 0 -1.11174 -0.00138411 0 0 0 0)
(-0.00181067 1.32587e-05 0 -1.11322 0.00170023 0 0 0 0)
(-0.000306674 0.000227561 0 -1.10808 0.0003044 0 0 0 0)
(0.000300178 0.000102872 0 -1.43215 -0.000472699 0 0 0 0)
(0.00154734 -0.000187021 0 -1.44893 -0.00126981 0 0 0 0)
(-0.00177441 2.4742e-05 0 -1.44973 0.00165715 0 0 0 0)
(-0.000270539 0.000200954 0 -1.43335 0.000318669 0 0 0 0)
(7.70357e-05 7.95307e-05 0 -1.84018 -0.000198625 0 0 0 0)
(0.00130755 -0.000175878 0 -1.85969 -0.00107545 0 0 0 0)
(-0.001551 3.97334e-05 0 -1.86089 0.00153375 0 0 0 0)
(-5.00959e-05 0.00017307 0 -1.84068 0.000195652 0 0 0 0)
(0.000166497 5.84547e-05 0 -2.34359 -0.000569392 0 0 0 0)
(0.00120222 -0.000158148 0 -2.3634 -0.000962947 0 0 0 0)
(-0.00145763 4.5927e-05 0 -2.36422 0.00132115 0 0 0 0)
(-4.60082e-05 0.000147389 0 -2.34506 -2.71583e-05 0 0 0 0)
(2.33658e-05 3.90147e-05 0 -2.96486 -0.000525448 0 0 0 0)
(0.000963788 -0.000144369 0 -2.98388 -0.000807856 0 0 0 0)
(-0.0012453 5.53299e-05 0 -2.98485 0.00115364 0 0 0 0)
(0.000142749 0.000122676 0 -2.96497 -2.83839e-05 0 0 0 0)
(-0.000499804 -0.000108213 0 -0.0404366 -0.000672143 0 0 0 0)
(-0.0018536 -0.000323806 0 -0.042034 0.000707818 0 0 0 0)
(-0.000365802 -1.80087e-06 0 -0.0124525 -0.00281376 0 0 0 0)
(0.00177107 0.000288494 0 -0.0335049 -0.00301863 0 0 0 0)
(-0.000104057 -9.30174e-05 0 -0.0694855 0.000805119 0 0 0 0)
(-0.00149902 -0.000346934 0 -0.0660716 0.00233463 0 0 0 0)
(-0.000473448 -6.89827e-05 0 -0.04498 0.00180113 0 0 0 0)
(0.00143231 0.000292608 0 -0.068105 -0.00116055 0 0 0 0)
(-0.000139213 -6.43228e-05 0 -0.104117 -0.000214761 0 0 0 0)
(-0.00144518 -0.000307206 0 -0.100406 0.00137257 0 0 0 0)
(-0.000399692 -6.00539e-05 0 -0.0842025 0.000617789 0 0 0 0)
(0.0012459 0.000255725 0 -0.107659 -0.000536514 0 0 0 0)
(0.000512536 -6.77665e-05 0 -0.145793 -0.000702696 0 0 0 0)
(-0.00116711 -0.000333058 0 -0.133008 0.000824987 0 0 0 0)
(-0.000594346 -0.000100801 0 -0.127607 -0.000252559 0 0 0 0)
(0.000822245 0.000298386 0 -0.156553 -0.0019968 0 0 0 0)
(0.000812299 -4.67286e-05 0 -0.194041 -0.000300257 0 0 0 0)
(-0.00114207 -0.000299704 0 -0.188676 0.00194896 0 0 0 0)
(-0.000792101 -0.000107084 0 -0.182838 0.00242962 0 0 0 0)
(0.000488214 0.000247542 0 -0.209079 0.000358706 0 0 0 0)
(0.00120863 -3.57779e-05 0 -0.268893 -0.00159785 0 0 0 0)
(-0.000980406 -0.00028756 0 -0.261932 0.000694875 0 0 0 0)
(-0.000934396 -0.000127305 0 -0.250345 0.000222086 0 0 0 0)
(5.45122e-05 0.000247013 0 -0.268688 -6.27723e-06 0 0 0 0)
(0.00134038 -3.86564e-05 0 -0.362393 -0.00141918 0 0 0 0)
(-0.000832935 -0.000269371 0 -0.359294 0.000613361 0 0 0 0)
(-0.0009047 -0.000118769 0 -0.342115 0.000863895 0 0 0 0)
(-0.000216546 0.000230764 0 -0.353621 0.000404135 0 0 0 0)
(0.00153205 -2.96541e-05 0 -0.484466 -0.00160891 0 0 0 0)
(-0.000642448 -0.000249509 0 -0.481183 0.00079391 0 0 0 0)
(-0.000839857 -0.000130792 0 -0.459562 0.000872796 0 0 0 0)
(-0.000549157 0.000209933 0 -0.466606 0.000667401 0 0 0 0)
(0.00158295 -3.12199e-05 0 -0.643443 -0.00165297 0 0 0 0)
(-0.000417883 -0.00022801 0 -0.642075 0.000341035 0 0 0 0)
(-0.000661745 -0.000120878 0 -0.613596 0.000639441 0 0 0 0)
(-0.000819568 0.000196966 0 -0.617748 0.00103108 0 0 0 0)
(0.00166347 -2.9171e-05 0 -0.846604 -0.0017768 0 0 0 0)
(-0.000144999 -0.000211302 0 -0.84545 0.000187305 0 0 0 0)
(-0.000434405 -0.000119291 0 -0.819992 0.000385852 0 0 0 0)
(-0.00114794 0.000180417 0 -0.821468 0.00125597 0 0 0 0)
(0.00167407 -3.43242e-05 0 -1.10844 -0.00170735 0 0 0 0)
(2.56433e-05 -0.000191965 0 -1.10738 3.62907e-05 0 0 0 0)
(-0.000262039 -0.000103067 0 -1.09147 0.000398652 0 0 0 0)
(-0.00131953 0.00017578 0 -1.09337 0.00155531 0 0 0 0)
(0.00167516 -3.36395e-05 0 -1.43433 -0.00161233 0 0 0 0)
(0.000137704 -0.000176202 0 -1.43442 -2.87704e-05 0 0 0 0)
(-0.000200934 -9.39744e-05 0 -1.43026 0.000277172 0 0 0 0)
(-0.0014145 0.00016227 0 -1.42963 0.00140628 0 0 0 0)
(0.00165618 -4.01149e-05 0 -1.84742 -0.00168015 0 0 0 0)
(9.34535e-05 -0.000160474 0 -1.84605 -0.000100927 0 0 0 0)
(-0.000182215 -7.91493e-05 0 -1.84965 0.000201937 0 0 0 0)
(-0.0013509 0.000163282 0 -1.85167 0.00158958 0 0 0 0)
(0.00158565 -3.85825e-05 0 -2.35265 -0.00170246 0 0 0 0)
(0.000100409 -0.000144834 0 -2.35343 2.20082e-05 0 0 0 0)
(-0.000294518 -6.57992e-05 0 -2.36179 0.000200147 0 0 0 0)
(-0.00125663 0.000155594 0 -2.36018 0.00146801 0 0 0 0)
(0.00151673 -3.92954e-05 0 -2.97871 -0.00179331 0 0 0 0)
(-5.88851e-05 -0.000128764 0 -2.97784 -0.000165418 0 0 0 0)
(-0.000294799 -5.50492e-05 0 -2.97933 9.05308e-05 0 0 0 0)
(-0.00104765 0.000150456 0 -2.98107 0.0012748 0 0 0 0)
)
;

boundaryField
{
    topWall
    {
        type            extrapolatedCalculated;
        value           nonuniform List<tensor> 0();
    }
    botWall
    {
        type            extrapolatedCalculated;
        value           nonuniform List<tensor> 0();
    }
    inlet
    {
        type            cyclic;
    }
    outlet
    {
        type            cyclic;
    }
    fixWall
    {
        type            empty;
    }
    procBoundary6to5
    {
        type            processor;
        value           nonuniform List<tensor> 8((-0.00133292 0.000151991 0 -0.00628372 0.00214311 0 0 0 0) (-0.000416577 -0.000273061 0 0.024537 0.00194545 0 0 0 0) (0.00205728 -3.76442e-05 0 0.00491251 -0.00225934 0 0 0 0) (0.000470401 0.000340258 0 0.0010588 -0.000192184 0 0 0 0) (-0.000108754 -0.000107472 0 -0.00265792 0.000233114 0 0 0 0) (-0.00196542 -0.000311241 0 -0.0115033 0.00198305 0 0 0 0) (-0.0006156 -6.87518e-06 0 0.0167227 0.00226606 0 0 0 0) (0.0019116 0.000244044 0 -0.00189465 0.000920169 0 0 0 0));
    }
    procBoundary6to7
    {
        type            processor;
        value           nonuniform List<tensor> 8((0.000119779 2.37437e-05 0 -3.7193 -0.000506056 0 0 0 0) (0.000869071 -0.000130163 0 -3.74005 -0.000523851 0 0 0 0) (-0.00114256 5.89182e-05 0 -3.74072 0.00102151 0 0 0 0) (5.63159e-05 9.8273e-05 0 -3.71928 -0.000178711 0 0 0 0) (0.00137123 -4.08664e-05 0 -3.735 -0.00158149 0 0 0 0) (9.00107e-05 -0.000113437 0 -3.7364 1.54743e-05 0 0 0 0) (-0.000348454 -4.17955e-05 0 -3.73713 0.00021324 0 0 0 0) (-0.0010154 0.000145327 0 -3.7365 0.00142543 0 0 0 0));
    }
}


// ************************************************************************* //
