/*--------------------------------*- C++ -*----------------------------------*\
  =========                 |
  \\      /  F ield         | OpenFOAM: The Open Source CFD Toolbox
   \\    /   O peration     | Website:  https://openfoam.org
    \\  /    A nd           | Version:  dev
     \\/     M anipulation  |

   OpenFOAM for Windows 20.09 (v1)
   Built by CFD Support, www.cfdsupport.com (based on Symscape).
\*---------------------------------------------------------------------------*/
FoamFile
{
    version     2.0;
    format      ascii;
    class       volScalarField;
    location    "4";
    object      nut;
}
// * * * * * * * * * * * * * * * * * * * * * * * * * * * * * * * * * * * * * //

dimensions      [0 2 -1 0 0 0 0];

internalField   nonuniform List<scalar> 
120
(
8.3341e-18
8.33728e-18
8.33922e-18
8.33866e-18
7.89868e-18
7.90134e-18
7.90276e-18
7.90235e-18
7.45069e-18
7.45289e-18
7.45387e-18
7.45359e-18
6.99452e-18
6.9963e-18
6.99692e-18
6.99675e-18
6.5344e-18
6.53582e-18
6.53616e-18
6.53607e-18
6.07432e-18
6.07541e-18
6.07555e-18
6.07553e-18
5.61796e-18
5.61878e-18
5.61878e-18
5.6188e-18
5.16867e-18
5.16926e-18
5.16917e-18
5.16923e-18
4.7294e-18
4.72981e-18
4.72968e-18
4.72975e-18
4.30275e-18
4.30301e-18
4.30287e-18
4.30294e-18
3.89092e-18
3.89107e-18
3.89093e-18
3.891e-18
3.49576e-18
3.49582e-18
3.4957e-18
3.49577e-18
3.11879e-18
3.1188e-18
3.1187e-18
3.11876e-18
2.76123e-18
2.7612e-18
2.76112e-18
2.76117e-18
2.42403e-18
2.42398e-18
2.42392e-18
2.42396e-18
8.33979e-18
8.33993e-18
8.33958e-18
8.33925e-18
7.90338e-18
7.90338e-18
7.90309e-18
7.90276e-18
7.45452e-18
7.45439e-18
7.45417e-18
7.45383e-18
6.99754e-18
6.9974e-18
6.99718e-18
6.99687e-18
6.53673e-18
6.53659e-18
6.53638e-18
6.53608e-18
6.07607e-18
6.07593e-18
6.07573e-18
6.07546e-18
5.61924e-18
5.61911e-18
5.61892e-18
5.61869e-18
5.16957e-18
5.16946e-18
5.16928e-18
5.16907e-18
4.73001e-18
4.72991e-18
4.72975e-18
4.72957e-18
4.30313e-18
4.30305e-18
4.30291e-18
4.30275e-18
3.89113e-18
3.89107e-18
3.89094e-18
3.89081e-18
3.49585e-18
3.49581e-18
3.49569e-18
3.49559e-18
3.11879e-18
3.11877e-18
3.11867e-18
3.11859e-18
2.76118e-18
2.76117e-18
2.76108e-18
2.76102e-18
2.42395e-18
2.42395e-18
2.42388e-18
2.42384e-18
)
;

boundaryField
{
    topWall
    {
        type            nutkWallFunction;
        Cmu             0.09;
        kappa           0.41;
        E               9.8;
        value           nonuniform List<scalar> 0();
    }
    botWall
    {
        type            nutkWallFunction;
        Cmu             0.09;
        kappa           0.41;
        E               9.8;
        value           nonuniform List<scalar> 0();
    }
    inlet
    {
        type            cyclic;
    }
    outlet
    {
        type            cyclic;
    }
    fixWall
    {
        type            empty;
    }
    procBoundary6to5
    {
        type            processor;
        value           nonuniform List<scalar> 8(8.7609e-18 8.76465e-18 8.76708e-18 8.7664e-18 8.76767e-18 8.76785e-18 8.76754e-18 8.76717e-18);
    }
    procBoundary6to7
    {
        type            processor;
        value           nonuniform List<scalar> 8(2.10748e-18 2.1074e-18 2.10736e-18 2.10741e-18 2.10739e-18 2.10738e-18 2.10732e-18 2.1073e-18);
    }
}


// ************************************************************************* //
