/*--------------------------------*- C++ -*----------------------------------*\
  =========                 |
  \\      /  F ield         | OpenFOAM: The Open Source CFD Toolbox
   \\    /   O peration     | Website:  https://openfoam.org
    \\  /    A nd           | Version:  dev
     \\/     M anipulation  |

   OpenFOAM for Windows 20.09 (v1)
   Built by CFD Support, www.cfdsupport.com (based on Symscape).
\*---------------------------------------------------------------------------*/
FoamFile
{
    version     2.0;
    format      ascii;
    class       volScalarField;
    location    "4";
    object      omega;
}
// * * * * * * * * * * * * * * * * * * * * * * * * * * * * * * * * * * * * * //

dimensions      [0 0 -1 0 0 0 0];

internalField   nonuniform List<scalar> 
120
(
26.6429
26.6327
26.6265
26.6283
28.1116
28.1021
28.0971
28.0985
29.8019
29.7931
29.7892
29.7903
31.7455
31.7374
31.7346
31.7354
33.9809
33.9735
33.9717
33.9722
36.5547
36.5481
36.5472
36.5474
39.5241
39.5183
39.5183
39.5181
42.9597
42.9548
42.9556
42.9551
46.9498
46.9458
46.9471
46.9464
51.6052
51.6022
51.6039
51.603
57.0674
57.0652
57.0672
57.0661
63.5182
63.5171
63.5193
63.518
71.1957
71.1956
71.1979
71.1965
80.4151
80.416
80.4184
80.4168
91.6013
91.6032
91.6056
91.604
26.6247
26.6243
26.6254
26.6265
28.0949
28.0949
28.0959
28.0971
29.7866
29.7871
29.788
29.7893
31.7318
31.7324
31.7334
31.7349
33.9688
33.9695
33.9706
33.9721
36.5441
36.5449
36.5462
36.5478
39.515
39.5159
39.5173
39.519
42.9522
42.9532
42.9546
42.9564
46.9438
46.9448
46.9463
46.9481
51.6007
51.6017
51.6034
51.6052
57.0643
57.0652
57.067
57.069
63.5167
63.5174
63.5195
63.5214
71.1957
71.1962
71.1985
71.2004
80.4166
80.4169
80.4195
80.4211
91.6044
91.6044
91.6072
91.6085
)
;

boundaryField
{
    topWall
    {
        beta1           0.075;
        blended         0;
        type            omegaWallFunction;
        value           nonuniform List<scalar> 0();
    }
    botWall
    {
        beta1           0.075;
        blended         0;
        type            omegaWallFunction;
        value           nonuniform List<scalar> 0();
    }
    inlet
    {
        type            cyclic;
    }
    outlet
    {
        type            cyclic;
    }
    fixWall
    {
        type            empty;
    }
    procBoundary6to5
    {
        type            processor;
        value           nonuniform List<scalar> 8(25.3449 25.3341 25.3271 25.3291 25.3254 25.3249 25.3258 25.3268);
    }
    procBoundary6to7
    {
        type            processor;
        value           nonuniform List<scalar> 8(105.36 105.364 105.366 105.364 105.365 105.365 105.368 105.369);
    }
}


// ************************************************************************* //
