/*--------------------------------*- C++ -*----------------------------------*\
  =========                 |
  \\      /  F ield         | OpenFOAM: The Open Source CFD Toolbox
   \\    /   O peration     | Website:  https://openfoam.org
    \\  /    A nd           | Version:  dev
     \\/     M anipulation  |

   OpenFOAM for Windows 20.09 (v1)
   Built by CFD Support, www.cfdsupport.com (based on Symscape).
\*---------------------------------------------------------------------------*/
FoamFile
{
    version     2.0;
    format      ascii;
    class       volScalarField;
    location    "4";
    object      p;
}
// * * * * * * * * * * * * * * * * * * * * * * * * * * * * * * * * * * * * * //

dimensions      [1 -1 -2 0 0 0 0];

internalField   nonuniform List<scalar> 
120
(
-5.10474
-5.16731
-5.22948
-5.2918
-5.11291
-5.17549
-5.23766
-5.29997
-5.12108
-5.18366
-5.24583
-5.30815
-5.12925
-5.19183
-5.254
-5.31633
-5.13742
-5.2
-5.26218
-5.3245
-5.14559
-5.20818
-5.27035
-5.33268
-5.15377
-5.21635
-5.27853
-5.34086
-5.16194
-5.22452
-5.2867
-5.34903
-5.17011
-5.2327
-5.29488
-5.35721
-5.17828
-5.24087
-5.30305
-5.36538
-5.18645
-5.24905
-5.31122
-5.37356
-5.19462
-5.25722
-5.3194
-5.38174
-5.2028
-5.26539
-5.32757
-5.38991
-5.21097
-5.27357
-5.33575
-5.39809
-5.21914
-5.28174
-5.34392
-5.40626
-5.35434
-5.41716
-5.47996
-5.5425
-5.36251
-5.42534
-5.48813
-5.55068
-5.37069
-5.43351
-5.49631
-5.55885
-5.37887
-5.44168
-5.50448
-5.56703
-5.38704
-5.44986
-5.51265
-5.5752
-5.39522
-5.45803
-5.52082
-5.58338
-5.40339
-5.46621
-5.52899
-5.59155
-5.41157
-5.47438
-5.53716
-5.59973
-5.41974
-5.48255
-5.54533
-5.6079
-5.42791
-5.49072
-5.55351
-5.61608
-5.43609
-5.4989
-5.56168
-5.62425
-5.44426
-5.50707
-5.56985
-5.63243
-5.45244
-5.51524
-5.57802
-5.64061
-5.46061
-5.52342
-5.58619
-5.64878
-5.46878
-5.53159
-5.59436
-5.65696
)
;

boundaryField
{
    topWall
    {
        type            calculated;
        value           nonuniform List<scalar> 0();
    }
    botWall
    {
        type            calculated;
        value           nonuniform List<scalar> 0();
    }
    inlet
    {
        type            cyclic;
    }
    outlet
    {
        type            cyclic;
    }
    fixWall
    {
        type            empty;
    }
    procBoundary6to5
    {
        type            processor;
        value           nonuniform List<scalar> 8(-5.09657 -5.15914 -5.22131 -5.28362 -5.34616 -5.40899 -5.4718 -5.53433);
    }
    procBoundary6to7
    {
        type            processor;
        value           nonuniform List<scalar> 8(-5.22731 -5.28991 -5.3521 -5.41444 -5.47696 -5.53977 -5.60254 -5.66513);
    }
}


// ************************************************************************* //
