/*--------------------------------*- C++ -*----------------------------------*\
  =========                 |
  \\      /  F ield         | OpenFOAM: The Open Source CFD Toolbox
   \\    /   O peration     | Website:  https://openfoam.org
    \\  /    A nd           | Version:  dev
     \\/     M anipulation  |

   OpenFOAM for Windows 20.09 (v1)
   Built by CFD Support, www.cfdsupport.com (based on Symscape).
\*---------------------------------------------------------------------------*/
FoamFile
{
    version     2.0;
    format      ascii;
    class       volScalarField;
    location    "4";
    object      p_rgh;
}
// * * * * * * * * * * * * * * * * * * * * * * * * * * * * * * * * * * * * * //

dimensions      [1 -1 -2 0 0 0 0];

internalField   nonuniform List<scalar> 
120
(
-4.3649
-4.42748
-4.48965
-4.55196
-4.3649
-4.42747
-4.48964
-4.55196
-4.36489
-4.42747
-4.48964
-4.55196
-4.36489
-4.42747
-4.48964
-4.55196
-4.36488
-4.42747
-4.48964
-4.55197
-4.36488
-4.42747
-4.48964
-4.55197
-4.36488
-4.42746
-4.48964
-4.55197
-4.36488
-4.42746
-4.48964
-4.55197
-4.36487
-4.42746
-4.48964
-4.55197
-4.36487
-4.42746
-4.48964
-4.55197
-4.36487
-4.42746
-4.48964
-4.55197
-4.36486
-4.42746
-4.48964
-4.55197
-4.36486
-4.42745
-4.48964
-4.55197
-4.36486
-4.42745
-4.48964
-4.55197
-4.36485
-4.42745
-4.48963
-4.55197
-4.6145
-4.67732
-4.74013
-4.80267
-4.6145
-4.67732
-4.74012
-4.80267
-4.6145
-4.67732
-4.74012
-4.80267
-4.6145
-4.67732
-4.74012
-4.80266
-4.6145
-4.67732
-4.74011
-4.80267
-4.6145
-4.67732
-4.74011
-4.80267
-4.6145
-4.67732
-4.7401
-4.80267
-4.6145
-4.67732
-4.7401
-4.80267
-4.6145
-4.67731
-4.7401
-4.80267
-4.6145
-4.67731
-4.74009
-4.80267
-4.6145
-4.67731
-4.74009
-4.80267
-4.6145
-4.67731
-4.74009
-4.80267
-4.6145
-4.67731
-4.74008
-4.80267
-4.6145
-4.67731
-4.74008
-4.80267
-4.6145
-4.6773
-4.74008
-4.80267
)
;

boundaryField
{
    topWall
    {
        type            zeroGradient;
    }
    botWall
    {
        type            zeroGradient;
    }
    inlet
    {
        type            fixedJump;
        patchType       cyclic;
        jump            uniform -0.5;
        value           nonuniform List<scalar> 
15
(
-4.33378
-4.33378
-4.33378
-4.33378
-4.33377
-4.33377
-4.33377
-4.33377
-4.33377
-4.33377
-4.33377
-4.33377
-4.33376
-4.33376
-4.33376
)
;
    }
    outlet
    {
        type            fixedJump;
        patchType       cyclic;
        value           nonuniform List<scalar> 
15
(
-4.83378
-4.83378
-4.83378
-4.83378
-4.83377
-4.83377
-4.83377
-4.83377
-4.83377
-4.83377
-4.83377
-4.83377
-4.83376
-4.83376
-4.83376
)
;
    }
    fixWall
    {
        type            empty;
    }
    procBoundary6to5
    {
        type            processor;
        value           nonuniform List<scalar> 8(-4.36491 -4.42748 -4.48965 -4.55196 -4.6145 -4.67732 -4.74013 -4.80266);
    }
    procBoundary6to7
    {
        type            processor;
        value           nonuniform List<scalar> 8(-4.36485 -4.42745 -4.48963 -4.55198 -4.6145 -4.6773 -4.74008 -4.80267);
    }
}


// ************************************************************************* //
