/*--------------------------------*- C++ -*----------------------------------*\
  =========                 |
  \\      /  F ield         | OpenFOAM: The Open Source CFD Toolbox
   \\    /   O peration     | Website:  https://openfoam.org
    \\  /    A nd           | Version:  dev
     \\/     M anipulation  |

   OpenFOAM for Windows 20.09 (v1)
   Built by CFD Support, www.cfdsupport.com (based on Symscape).
\*---------------------------------------------------------------------------*/
FoamFile
{
    version     2.0;
    format      ascii;
    class       surfaceScalarField;
    location    "4";
    object      phi;
}
// * * * * * * * * * * * * * * * * * * * * * * * * * * * * * * * * * * * * * //

dimensions      [0 3 -1 0 0 0 0];

internalField   nonuniform List<scalar> 
217
(
1.94518e-07
8.14144e-10
1.94496e-07
3.36241e-10
1.94578e-07
-7.39176e-10
8.07673e-11
1.94594e-07
1.9449e-07
8.3775e-10
1.94473e-07
3.52573e-10
1.94535e-07
-8.01144e-10
7.13965e-11
1.94545e-07
1.94445e-07
8.42154e-10
1.94436e-07
3.61992e-10
1.94477e-07
-8.42627e-10
6.34851e-11
1.94485e-07
1.94363e-07
8.33169e-10
1.94364e-07
3.60915e-10
1.94373e-07
-8.51792e-10
6.00738e-11
1.94377e-07
1.94256e-07
7.98004e-10
1.94275e-07
3.41631e-10
1.94254e-07
-8.30641e-10
6.20923e-11
1.94252e-07
1.94094e-07
7.53666e-10
1.94129e-07
3.06514e-10
1.94089e-07
-7.89885e-10
6.87011e-11
1.94082e-07
1.93883e-07
7.01188e-10
1.93928e-07
2.61928e-10
1.93872e-07
-7.3442e-10
7.97382e-11
1.93861e-07
1.93592e-07
6.50567e-10
1.93645e-07
2.09612e-10
1.9358e-07
-6.70303e-10
9.27129e-11
1.93567e-07
1.93208e-07
6.04224e-10
1.93264e-07
1.53914e-10
1.93195e-07
-6.01105e-10
1.07301e-10
1.9318e-07
1.92698e-07
5.67215e-10
1.92757e-07
9.57536e-11
1.92684e-07
-5.28613e-10
1.22191e-10
1.92669e-07
1.9203e-07
5.38707e-10
1.92086e-07
3.94432e-11
1.92015e-07
-4.57188e-10
1.35342e-10
1.92001e-07
1.91157e-07
5.14153e-10
1.91211e-07
-1.45801e-11
1.91142e-07
-3.8732e-10
1.47058e-10
1.9113e-07
1.90029e-07
4.98753e-10
1.90073e-07
-5.85701e-11
1.90012e-07
-3.26783e-10
1.49644e-10
1.9001e-07
1.88588e-07
4.79498e-10
1.88628e-07
-9.80981e-11
1.88571e-07
-2.70174e-10
1.52116e-10
1.88569e-07
1.8676e-07
1.8679e-07
1.86742e-07
1.86747e-07
1.94576e-07
1.06304e-09
1.94498e-07
-3.8634e-10
1.94482e-07
-5.77656e-10
-5.91758e-10
1.94543e-07
1.06453e-09
1.9448e-07
-3.23466e-10
1.94459e-07
-5.56586e-10
-6.45984e-10
1.94482e-07
1.06764e-09
1.94421e-07
-2.62581e-10
1.94403e-07
-5.38769e-10
-6.92361e-10
1.94401e-07
1.04362e-09
1.94352e-07
-2.13207e-10
1.94326e-07
-5.12935e-10
-7.20937e-10
1.94288e-07
1.007e-09
1.9424e-07
-1.64935e-10
1.94206e-07
-4.79054e-10
-7.35475e-10
1.94135e-07
9.53783e-10
1.94094e-07
-1.23415e-10
1.94054e-07
-4.39428e-10
-7.31746e-10
1.9392e-07
8.94998e-10
1.93884e-07
-8.80328e-11
1.93846e-07
-4.01214e-10
-7.1652e-10
1.93634e-07
8.28165e-10
1.93606e-07
-6.0551e-11
1.93571e-07
-3.65868e-10
-6.87227e-10
1.93249e-07
7.59172e-10
1.93231e-07
-4.23625e-11
1.93203e-07
-3.38096e-10
-6.46456e-10
1.92741e-07
6.86794e-10
1.92734e-07
-3.54711e-11
1.92716e-07
-3.19939e-10
-5.91774e-10
1.92074e-07
6.13952e-10
1.92074e-07
-3.56018e-11
1.92063e-07
-3.09104e-10
-5.29726e-10
1.91203e-07
5.41043e-10
1.91207e-07
-4.03065e-11
1.91199e-07
-3.00949e-10
-4.63499e-10
1.90082e-07
4.68899e-10
1.90085e-07
-4.30742e-11
1.90077e-07
-2.93715e-10
-3.99697e-10
1.88638e-07
3.99666e-10
1.88641e-07
-4.60463e-11
1.88629e-07
-2.81932e-10
-3.39646e-10
1.86814e-07
1.8681e-07
1.86798e-07
)
;

boundaryField
{
    topWall
    {
        type            calculated;
        value           nonuniform List<scalar> 0();
    }
    botWall
    {
        type            calculated;
        value           nonuniform List<scalar> 0();
    }
    inlet
    {
        type            cyclic;
        value           nonuniform List<scalar> 
15
(
-1.9455e-07
-1.94513e-07
-1.9445e-07
-1.94354e-07
-1.9422e-07
-1.9405e-07
-1.9383e-07
-1.93542e-07
-1.93162e-07
-1.92661e-07
-1.92001e-07
-1.91133e-07
-1.90014e-07
-1.88569e-07
-1.86747e-07
)
;
    }
    outlet
    {
        type            cyclic;
        value           nonuniform List<scalar> 
15
(
1.9455e-07
1.94513e-07
1.9445e-07
1.94354e-07
1.9422e-07
1.9405e-07
1.9383e-07
1.93542e-07
1.93162e-07
1.92661e-07
1.92001e-07
1.91133e-07
1.90014e-07
1.88569e-07
1.86747e-07
)
;
    }
    fixWall
    {
        type            empty;
        value           nonuniform List<scalar> 0();
    }
    procBoundary6to5
    {
        type            processor;
        value           nonuniform List<scalar> 8(-7.82484e-10 -3.16542e-10 6.53634e-10 -9.15364e-11 -1.04658e-09 4.6594e-10 5.91564e-10 5.23456e-10);
    }
    procBoundary6to7
    {
        type            processor;
        value           nonuniform List<scalar> 8(4.66923e-10 -1.28334e-10 -2.21406e-10 1.53006e-10 3.32225e-10 -4.16199e-11 -2.68633e-10 -2.88162e-10);
    }
}


// ************************************************************************* //
