/*--------------------------------*- C++ -*----------------------------------*\
  =========                 |
  \\      /  F ield         | OpenFOAM: The Open Source CFD Toolbox
   \\    /   O peration     | Website:  https://openfoam.org
    \\  /    A nd           | Version:  dev
     \\/     M anipulation  |

   OpenFOAM for Windows 20.09 (v1)
   Built by CFD Support, www.cfdsupport.com (based on Symscape).
\*---------------------------------------------------------------------------*/
FoamFile
{
    version     2.0;
    format      ascii;
    class       volSymmTensorField;
    location    "4";
    object      R;
}
// * * * * * * * * * * * * * * * * * * * * * * * * * * * * * * * * * * * * * //

dimensions      [0 2 -2 0 0 0 0];

internalField   nonuniform List<symmTensor> 
120
(
(1.48042e-16 3.42024e-19 -0 1.48023e-16 -0 1.48025e-16)
(1.48035e-16 2.67368e-20 -0 1.48025e-16 -0 1.4803e-16)
(1.47995e-16 2.13394e-19 -0 1.48067e-16 -0 1.48027e-16)
(1.48025e-16 3.49971e-19 -0 1.48034e-16 -0 1.48031e-16)
(1.48038e-16 6.02531e-19 -0 1.48027e-16 -0 1.48025e-16)
(1.4803e-16 2.27863e-19 -0 1.48031e-16 -0 1.48028e-16)
(1.48006e-16 4.57388e-19 -0 1.48056e-16 -0 1.48028e-16)
(1.48026e-16 6.90173e-19 -0 1.48034e-16 -0 1.48029e-16)
(1.48038e-16 8.98702e-19 -0 1.48018e-16 -0 1.48033e-16)
(1.48034e-16 4.5931e-19 -0 1.48021e-16 -0 1.48034e-16)
(1.48018e-16 7.14104e-19 -0 1.4804e-16 -0 1.48032e-16)
(1.48027e-16 1.02123e-18 -0 1.48032e-16 -0 1.4803e-16)
(1.48027e-16 1.20892e-18 -0 1.48036e-16 -0 1.48026e-16)
(1.48024e-16 7.00744e-19 -0 1.48038e-16 -0 1.48027e-16)
(1.48028e-16 9.21021e-19 -0 1.48032e-16 -0 1.4803e-16)
(1.48028e-16 1.32745e-18 -0 1.48032e-16 -0 1.48029e-16)
(1.48022e-16 1.49439e-18 -0 1.48038e-16 -0 1.48029e-16)
(1.48022e-16 1.03747e-18 -0 1.48036e-16 -0 1.48031e-16)
(1.48038e-16 1.17465e-18 -0 1.48022e-16 -0 1.4803e-16)
(1.4803e-16 1.5037e-18 -0 1.48029e-16 -0 1.4803e-16)
(1.4802e-16 1.7762e-18 -0 1.48039e-16 -0 1.4803e-16)
(1.48019e-16 1.48467e-18 -0 1.48039e-16 -0 1.48032e-16)
(1.48042e-16 1.55561e-18 -0 1.48018e-16 -0 1.48029e-16)
(1.48032e-16 1.78169e-18 -0 1.48027e-16 -0 1.4803e-16)
(1.48017e-16 2.12436e-18 -0 1.48044e-16 -0 1.48028e-16)
(1.48015e-16 1.93964e-18 -0 1.48043e-16 -0 1.4803e-16)
(1.48046e-16 1.98567e-18 -0 1.48014e-16 -0 1.4803e-16)
(1.48033e-16 2.12593e-18 -0 1.48027e-16 -0 1.4803e-16)
(1.48019e-16 2.56134e-18 -0 1.48041e-16 -0 1.48029e-16)
(1.48015e-16 2.46103e-18 -0 1.48043e-16 -0 1.48031e-16)
(1.48046e-16 2.47896e-18 -0 1.48014e-16 -0 1.48029e-16)
(1.48033e-16 2.56096e-18 -0 1.48026e-16 -0 1.4803e-16)
(1.48021e-16 3.07107e-18 -0 1.4804e-16 -0 1.48029e-16)
(1.48015e-16 3.01771e-18 -0 1.48043e-16 -0 1.4803e-16)
(1.48046e-16 3.03131e-18 -0 1.48014e-16 -0 1.4803e-16)
(1.48033e-16 3.07279e-18 -0 1.48027e-16 -0 1.4803e-16)
(1.48024e-16 3.65664e-18 -0 1.48037e-16 -0 1.48029e-16)
(1.48016e-16 3.64813e-18 -0 1.48042e-16 -0 1.48031e-16)
(1.48045e-16 3.65271e-18 -0 1.48014e-16 -0 1.48029e-16)
(1.48033e-16 3.66034e-18 -0 1.48027e-16 -0 1.4803e-16)
(1.48026e-16 4.30859e-18 -0 1.48034e-16 -0 1.48029e-16)
(1.48018e-16 4.32666e-18 -0 1.48041e-16 -0 1.4803e-16)
(1.48044e-16 4.33142e-18 -0 1.48016e-16 -0 1.48029e-16)
(1.48032e-16 4.31068e-18 -0 1.48027e-16 -0 1.4803e-16)
(1.48027e-16 5.00608e-18 -0 1.48033e-16 -0 1.48029e-16)
(1.4802e-16 5.06586e-18 -0 1.48039e-16 -0 1.4803e-16)
(1.48042e-16 5.06773e-18 -0 1.48018e-16 -0 1.48029e-16)
(1.48032e-16 5.00997e-18 -0 1.48028e-16 -0 1.4803e-16)
(1.48029e-16 5.73889e-18 -0 1.48031e-16 -0 1.48029e-16)
(1.48022e-16 5.80053e-18 -0 1.48037e-16 -0 1.4803e-16)
(1.48039e-16 5.80342e-18 -0 1.4802e-16 -0 1.4803e-16)
(1.4803e-16 5.74009e-18 -0 1.48029e-16 -0 1.4803e-16)
(1.48028e-16 6.47104e-18 -0 1.48032e-16 -0 1.48029e-16)
(1.48024e-16 6.52626e-18 -0 1.48035e-16 -0 1.4803e-16)
(1.48038e-16 6.52776e-18 -0 1.48022e-16 -0 1.48029e-16)
(1.4803e-16 6.47471e-18 -0 1.4803e-16 -0 1.4803e-16)
(1.48029e-16 7.18682e-18 -0 1.48031e-16 -0 1.48029e-16)
(1.48025e-16 7.23322e-18 -0 1.48034e-16 -0 1.4803e-16)
(1.48036e-16 7.23489e-18 -0 1.48024e-16 -0 1.4803e-16)
(1.48029e-16 7.18669e-18 -0 1.4803e-16 -0 1.4803e-16)
(1.48032e-16 3.38135e-19 -0 1.48034e-16 -0 1.48023e-16)
(1.48054e-16 3.53261e-19 -0 1.48012e-16 -0 1.48023e-16)
(1.48018e-16 1.03864e-19 -0 1.48059e-16 -0 1.48012e-16)
(1.47993e-16 2.76999e-19 -0 1.48073e-16 -0 1.48023e-16)
(1.48035e-16 5.49906e-19 -0 1.48021e-16 -0 1.48033e-16)
(1.48058e-16 5.24931e-19 -0 1.47997e-16 -0 1.48034e-16)
(1.48044e-16 3.56027e-19 -0 1.48008e-16 -0 1.48037e-16)
(1.48009e-16 5.35905e-19 -0 1.4805e-16 -0 1.48031e-16)
(1.4803e-16 7.76624e-19 -0 1.48031e-16 -0 1.48028e-16)
(1.48051e-16 7.50752e-19 -0 1.48009e-16 -0 1.48029e-16)
(1.48037e-16 6.28107e-19 -0 1.48022e-16 -0 1.48031e-16)
(1.48015e-16 8.00569e-19 -0 1.48041e-16 -0 1.48033e-16)
(1.48022e-16 1.02067e-18 -0 1.48039e-16 -0 1.48029e-16)
(1.48044e-16 9.33044e-19 -0 1.48017e-16 -0 1.48028e-16)
(1.48034e-16 8.93594e-19 -0 1.48029e-16 -0 1.48026e-16)
(1.48013e-16 1.09329e-18 -0 1.48052e-16 -0 1.48024e-16)
(1.48021e-16 1.2687e-18 -0 1.48036e-16 -0 1.48032e-16)
(1.48048e-16 1.23526e-18 -0 1.48008e-16 -0 1.48033e-16)
(1.48047e-16 1.1958e-18 -0 1.48005e-16 -0 1.48037e-16)
(1.48027e-16 1.36494e-18 -0 1.48029e-16 -0 1.48033e-16)
(1.48013e-16 1.63403e-18 -0 1.48048e-16 -0 1.48028e-16)
(1.4804e-16 1.59323e-18 -0 1.4802e-16 -0 1.48029e-16)
(1.48038e-16 1.5218e-18 -0 1.48024e-16 -0 1.48027e-16)
(1.48029e-16 1.63091e-18 -0 1.4803e-16 -0 1.4803e-16)
(1.48014e-16 2.03659e-18 -0 1.48045e-16 -0 1.48029e-16)
(1.48038e-16 2.02042e-18 -0 1.48022e-16 -0 1.48029e-16)
(1.4804e-16 1.92299e-18 -0 1.4802e-16 -0 1.4803e-16)
(1.48033e-16 1.98559e-18 -0 1.48026e-16 -0 1.4803e-16)
(1.48014e-16 2.50463e-18 -0 1.48046e-16 -0 1.48029e-16)
(1.48037e-16 2.48874e-18 -0 1.48022e-16 -0 1.4803e-16)
(1.48039e-16 2.37628e-18 -0 1.48021e-16 -0 1.4803e-16)
(1.48036e-16 2.41083e-18 -0 1.48023e-16 -0 1.4803e-16)
(1.48015e-16 3.04364e-18 -0 1.48045e-16 -0 1.4803e-16)
(1.48033e-16 3.03804e-18 -0 1.48026e-16 -0 1.48029e-16)
(1.48036e-16 2.90273e-18 -0 1.48024e-16 -0 1.4803e-16)
(1.48038e-16 2.92075e-18 -0 1.48021e-16 -0 1.4803e-16)
(1.48015e-16 3.64317e-18 -0 1.48045e-16 -0 1.48029e-16)
(1.48031e-16 3.63893e-18 -0 1.48028e-16 -0 1.4803e-16)
(1.48033e-16 3.52886e-18 -0 1.48026e-16 -0 1.4803e-16)
(1.4804e-16 3.5338e-18 -0 1.48019e-16 -0 1.4803e-16)
(1.48017e-16 4.3132e-18 -0 1.48043e-16 -0 1.4803e-16)
(1.4803e-16 4.30965e-18 -0 1.4803e-16 -0 1.4803e-16)
(1.48032e-16 4.24727e-18 -0 1.48027e-16 -0 1.4803e-16)
(1.48041e-16 4.25343e-18 -0 1.48018e-16 -0 1.4803e-16)
(1.48018e-16 5.01433e-18 -0 1.48041e-16 -0 1.4803e-16)
(1.48029e-16 5.01509e-18 -0 1.4803e-16 -0 1.4803e-16)
(1.48031e-16 5.00009e-18 -0 1.48028e-16 -0 1.4803e-16)
(1.4804e-16 4.99685e-18 -0 1.4802e-16 -0 1.4803e-16)
(1.48019e-16 5.76183e-18 -0 1.4804e-16 -0 1.4803e-16)
(1.48029e-16 5.75791e-18 -0 1.4803e-16 -0 1.4803e-16)
(1.48031e-16 5.7687e-18 -0 1.48029e-16 -0 1.4803e-16)
(1.48039e-16 5.77407e-18 -0 1.4802e-16 -0 1.4803e-16)
(1.48021e-16 6.49618e-18 -0 1.48039e-16 -0 1.4803e-16)
(1.48029e-16 6.49861e-18 -0 1.4803e-16 -0 1.4803e-16)
(1.48031e-16 6.52127e-18 -0 1.48028e-16 -0 1.4803e-16)
(1.48037e-16 6.51609e-18 -0 1.48022e-16 -0 1.4803e-16)
(1.48022e-16 7.22033e-18 -0 1.48038e-16 -0 1.48029e-16)
(1.4803e-16 7.21845e-18 -0 1.4803e-16 -0 1.48029e-16)
(1.48031e-16 7.22167e-18 -0 1.48029e-16 -0 1.48029e-16)
(1.48035e-16 7.22529e-18 -0 1.48024e-16 -0 1.4803e-16)
)
;

boundaryField
{
    topWall
    {
        type            kqRWallFunction;
        value           nonuniform List<symmTensor> 0();
    }
    botWall
    {
        type            kqRWallFunction;
        value           nonuniform List<symmTensor> 0();
    }
    inlet
    {
        type            cyclic;
    }
    outlet
    {
        type            cyclic;
    }
    fixWall
    {
        type            empty;
    }
    procBoundary6to5
    {
        type            processor;
        value           nonuniform List<symmTensor> 8((1.48058e-16 5.37195e-20 -0 1.47997e-16 -0 1.48034e-16) (1.48046e-16 -2.12665e-19 -0 1.48005e-16 -0 1.48039e-16) (1.47992e-16 -4.27383e-20 -0 1.48068e-16 -0 1.48029e-16) (1.48023e-16 -1.22647e-20 -0 1.48035e-16 -0 1.48031e-16) (1.48032e-16 2.42461e-20 -0 1.48026e-16 -0 1.4803e-16) (1.48064e-16 1.03588e-19 -0 1.47995e-16 -0 1.4803e-16) (1.4805e-16 -1.46557e-19 -0 1.48e-16 -0 1.48039e-16) (1.48013e-16 1.44712e-20 -0 1.4803e-16 -0 1.48046e-16));
    }
    procBoundary6to7
    {
        type            processor;
        value           nonuniform List<symmTensor> 8((1.48029e-16 7.8383e-18 -0 1.48031e-16 -0 1.48029e-16) (1.48027e-16 7.88208e-18 -0 1.48032e-16 -0 1.4803e-16) (1.48034e-16 7.8829e-18 -0 1.48025e-16 -0 1.4803e-16) (1.48029e-16 7.83784e-18 -0 1.4803e-16 -0 1.4803e-16) (1.48024e-16 7.87118e-18 -0 1.48036e-16 -0 1.48029e-16) (1.4803e-16 7.87424e-18 -0 1.4803e-16 -0 1.4803e-16) (1.48031e-16 7.87541e-18 -0 1.48029e-16 -0 1.4803e-16) (1.48035e-16 7.87362e-18 -0 1.48024e-16 -0 1.4803e-16));
    }
}


// ************************************************************************* //
