/*--------------------------------*- C++ -*----------------------------------*\
  =========                 |
  \\      /  F ield         | OpenFOAM: The Open Source CFD Toolbox
   \\    /   O peration     | Website:  https://openfoam.org
    \\  /    A nd           | Version:  dev
     \\/     M anipulation  |

   OpenFOAM for Windows 20.09 (v1)
   Built by CFD Support, www.cfdsupport.com (based on Symscape).
\*---------------------------------------------------------------------------*/
FoamFile
{
    version     2.0;
    format      ascii;
    class       volVectorField;
    location    "4";
    object      U;
}
// * * * * * * * * * * * * * * * * * * * * * * * * * * * * * * * * * * * * * //

dimensions      [0 1 -1 0 0 0 0];

internalField   nonuniform List<vector> 
120
(
(0.233493 1.74908e-05 0)
(0.233337 7.96364e-06 0)
(0.233462 -1.35873e-05 0)
(0.233526 1.89842e-06 0)
(0.233443 1.50663e-05 0)
(0.233319 6.09746e-06 0)
(0.233427 -1.64362e-05 0)
(0.233459 1.57633e-06 0)
(0.233365 1.72157e-05 0)
(0.233289 7.61327e-06 0)
(0.233366 -1.65647e-05 0)
(0.23338 1.40044e-06 0)
(0.233242 1.66737e-05 0)
(0.233217 7.55444e-06 0)
(0.233268 -1.73551e-05 0)
(0.23323 1.33886e-06 0)
(0.233077 1.59765e-05 0)
(0.233123 6.343e-06 0)
(0.233147 -1.68193e-05 0)
(0.233063 1.016e-06 0)
(0.23286 1.55858e-05 0)
(0.232953 6.93093e-06 0)
(0.232968 -1.63646e-05 0)
(0.232846 1.38826e-06 0)
(0.232589 1.46689e-05 0)
(0.232716 5.44159e-06 0)
(0.23272 -1.52858e-05 0)
(0.232574 1.3669e-06 0)
(0.232229 1.33177e-05 0)
(0.232378 4.9634e-06 0)
(0.232379 -1.40584e-05 0)
(0.232214 1.79815e-06 0)
(0.231763 1.27437e-05 0)
(0.231923 3.46698e-06 0)
(0.231921 -1.27801e-05 0)
(0.231748 1.94644e-06 0)
(0.231147 1.14318e-05 0)
(0.231315 2.65821e-06 0)
(0.231311 -1.12544e-05 0)
(0.231131 2.31823e-06 0)
(0.230346 1.12682e-05 0)
(0.23051 1.24317e-06 0)
(0.230506 -9.86935e-06 0)
(0.230329 2.56904e-06 0)
(0.229301 1.02815e-05 0)
(0.229462 3.51362e-07 0)
(0.229456 -8.42065e-06 0)
(0.229284 2.82556e-06 0)
(0.227959 1.04804e-05 0)
(0.228096 -8.73189e-07 0)
(0.22809 -7.10743e-06 0)
(0.22794 3.10016e-06 0)
(0.226234 9.95043e-06 0)
(0.226362 -1.44105e-06 0)
(0.226354 -5.8644e-06 0)
(0.226217 3.15165e-06 0)
(0.224053 9.53137e-06 0)
(0.224157 -2.4781e-06 0)
(0.22415 -4.90552e-06 0)
(0.224032 3.05489e-06 0)
(0.233501 2.1022e-05 0)
(0.233476 -8.92289e-06 0)
(0.233315 -1.13586e-05 0)
(0.23344 -9.10298e-06 0)
(0.23345 2.04989e-05 0)
(0.233448 -7.72541e-06 0)
(0.2333 -1.41945e-05 0)
(0.233401 -1.46237e-05 0)
(0.233385 2.23639e-05 0)
(0.233366 -5.03184e-06 0)
(0.23324 -8.35673e-06 0)
(0.233326 -1.10372e-05 0)
(0.233276 2.0141e-05 0)
(0.233281 -5.4378e-06 0)
(0.233159 -1.31648e-05 0)
(0.233222 -1.55179e-05 0)
(0.233142 2.11927e-05 0)
(0.233144 -3.65686e-06 0)
(0.233028 -8.77766e-06 0)
(0.233065 -1.43652e-05 0)
(0.232953 1.96406e-05 0)
(0.232967 -2.18953e-06 0)
(0.232855 -9.11547e-06 0)
(0.232873 -1.492e-05 0)
(0.232694 1.85296e-05 0)
(0.232708 -2.49874e-06 0)
(0.232611 -8.40752e-06 0)
(0.232617 -1.43757e-05 0)
(0.232349 1.72753e-05 0)
(0.232368 -1.16726e-06 0)
(0.232284 -7.67565e-06 0)
(0.232284 -1.42465e-05 0)
(0.231886 1.58481e-05 0)
(0.231906 -1.17555e-06 0)
(0.231845 -6.95286e-06 0)
(0.23184 -1.32634e-05 0)
(0.231276 1.45203e-05 0)
(0.231298 -5.98868e-07 0)
(0.231262 -6.60991e-06 0)
(0.231254 -1.2528e-05 0)
(0.230475 1.28868e-05 0)
(0.230497 -8.63379e-07 0)
(0.230478 -6.30977e-06 0)
(0.230471 -1.11701e-05 0)
(0.229429 1.16747e-05 0)
(0.229452 -5.38383e-07 0)
(0.229443 -5.94549e-06 0)
(0.229432 -9.93582e-06 0)
(0.228085 1.01996e-05 0)
(0.228106 -9.1133e-07 0)
(0.228094 -5.84782e-06 0)
(0.228088 -8.82626e-06 0)
(0.22635 8.87448e-06 0)
(0.226375 -7.06595e-07 0)
(0.22636 -5.60893e-06 0)
(0.226346 -7.28652e-06 0)
(0.224164 7.36212e-06 0)
(0.224184 -8.7465e-07 0)
(0.224158 -5.51424e-06 0)
(0.224154 -6.37957e-06 0)
)
;

boundaryField
{
    topWall
    {
        type            noSlip;
    }
    botWall
    {
        type            noSlip;
    }
    inlet
    {
        type            cyclic;
    }
    outlet
    {
        type            cyclic;
    }
    fixWall
    {
        type            empty;
    }
    procBoundary6to5
    {
        type            processor;
        value           nonuniform List<vector> 8((0.233512 1.48995e-05 0) (0.233324 5.60651e-06 0) (0.23347 -1.24066e-05 0) (0.233529 1.84208e-06 0) (0.233517 2.16192e-05 0) (0.233518 -8.90511e-06 0) (0.23332 -9.50489e-06 0) (0.233457 -9.59263e-06 0));
    }
    procBoundary6to7
    {
        type            processor;
        value           nonuniform List<vector> 8((0.221293 9.07468e-06 0) (0.221389 -2.78748e-06 0) (0.22138 -3.94167e-06 0) (0.221275 3.10434e-06 0) (0.221385 5.88563e-06 0) (0.221412 -9.82292e-07 0) (0.221394 -5.45805e-06 0) (0.221377 -5.16184e-06 0));
    }
}


// ************************************************************************* //
