/*--------------------------------*- C++ -*----------------------------------*\
  =========                 |
  \\      /  F ield         | OpenFOAM: The Open Source CFD Toolbox
   \\    /   O peration     | Website:  https://openfoam.org
    \\  /    A nd           | Version:  dev
     \\/     M anipulation  |

   OpenFOAM for Windows 20.09 (v1)
   Built by CFD Support, www.cfdsupport.com (based on Symscape).
\*---------------------------------------------------------------------------*/
FoamFile
{
    version     2.0;
    format      ascii;
    class       volVectorField;
    location    "4";
    object      UMean;
}
// * * * * * * * * * * * * * * * * * * * * * * * * * * * * * * * * * * * * * //

dimensions      [0 1 -1 0 0 0 0];

internalField   nonuniform List<vector> 
120
(
(0.207048 1.29918e-05 0)
(0.206929 6.57381e-06 0)
(0.207017 -1.15141e-05 0)
(0.207051 2.65177e-06 0)
(0.207013 1.14752e-05 0)
(0.206918 5.07853e-06 0)
(0.206989 -1.32817e-05 0)
(0.207001 1.90531e-06 0)
(0.206957 1.31739e-05 0)
(0.206902 7.16617e-06 0)
(0.206951 -1.28767e-05 0)
(0.206947 2.0435e-06 0)
(0.206868 1.22845e-05 0)
(0.206852 6.21017e-06 0)
(0.206883 -1.37328e-05 0)
(0.206847 1.58083e-06 0)
(0.206753 1.23977e-05 0)
(0.206789 5.97023e-06 0)
(0.206804 -1.28753e-05 0)
(0.206735 1.27077e-06 0)
(0.206604 1.14812e-05 0)
(0.206672 6.44243e-06 0)
(0.20668 -1.24178e-05 0)
(0.206587 1.35043e-06 0)
(0.206415 1.1422e-05 0)
(0.206508 5.08241e-06 0)
(0.20651 -1.17858e-05 0)
(0.206401 1.14294e-06 0)
(0.206165 1.01604e-05 0)
(0.206273 4.89518e-06 0)
(0.206272 -1.0656e-05 0)
(0.206151 1.18775e-06 0)
(0.205836 9.99568e-06 0)
(0.205952 3.76618e-06 0)
(0.20595 -9.83409e-06 0)
(0.205824 1.0879e-06 0)
(0.205397 9.12973e-06 0)
(0.205519 3.1651e-06 0)
(0.205516 -8.55234e-06 0)
(0.205385 1.10416e-06 0)
(0.204819 9.04152e-06 0)
(0.204938 2.17986e-06 0)
(0.204934 -7.67512e-06 0)
(0.204807 1.05975e-06 0)
(0.204055 8.5942e-06 0)
(0.204172 1.53205e-06 0)
(0.204167 -6.40482e-06 0)
(0.204043 1.05016e-06 0)
(0.203058 8.58441e-06 0)
(0.203157 6.84942e-07 0)
(0.203153 -5.63297e-06 0)
(0.203045 1.05126e-06 0)
(0.201757 8.49058e-06 0)
(0.201853 1.42019e-07 0)
(0.201847 -4.5077e-06 0)
(0.201746 1.00965e-06 0)
(0.200087 8.21081e-06 0)
(0.200165 -5.48214e-07 0)
(0.200161 -3.84951e-06 0)
(0.200074 7.84869e-07 0)
(0.207046 1.71262e-05 0)
(0.207031 -4.57048e-06 0)
(0.206907 -1.0474e-05 0)
(0.207011 -7.95847e-06 0)
(0.207015 1.53218e-05 0)
(0.207016 -3.93254e-06 0)
(0.206897 -1.26268e-05 0)
(0.206983 -1.22978e-05 0)
(0.206976 1.74398e-05 0)
(0.206966 -1.94009e-06 0)
(0.206859 -8.38787e-06 0)
(0.206931 -9.60027e-06 0)
(0.206905 1.51038e-05 0)
(0.206911 -1.98628e-06 0)
(0.206807 -1.16329e-05 0)
(0.206857 -1.3042e-05 0)
(0.206817 1.56885e-05 0)
(0.206821 -8.16617e-07 0)
(0.206721 -8.36833e-06 0)
(0.206751 -1.21782e-05 0)
(0.20669 1.44382e-05 0)
(0.206701 3.91902e-07 0)
(0.206605 -8.42777e-06 0)
(0.20662 -1.25326e-05 0)
(0.206514 1.34233e-05 0)
(0.206525 3.31771e-07 0)
(0.206439 -7.80145e-06 0)
(0.206444 -1.21075e-05 0)
(0.206274 1.22938e-05 0)
(0.206289 1.31855e-06 0)
(0.206214 -7.06642e-06 0)
(0.206213 -1.19159e-05 0)
(0.205949 1.10313e-05 0)
(0.205965 1.44161e-06 0)
(0.205908 -6.44316e-06 0)
(0.205903 -1.11544e-05 0)
(0.205514 9.88886e-06 0)
(0.205531 1.88092e-06 0)
(0.205495 -5.98885e-06 0)
(0.205488 -1.04789e-05 0)
(0.204935 8.48399e-06 0)
(0.204952 1.75499e-06 0)
(0.204931 -5.71395e-06 0)
(0.204924 -9.41462e-06 0)
(0.204166 7.46449e-06 0)
(0.204185 1.95742e-06 0)
(0.204173 -5.29804e-06 0)
(0.204163 -8.3541e-06 0)
(0.203164 6.16817e-06 0)
(0.203184 1.70612e-06 0)
(0.203173 -5.21997e-06 0)
(0.203164 -7.45272e-06 0)
(0.201853 5.17319e-06 0)
(0.201876 1.81803e-06 0)
(0.201863 -4.83877e-06 0)
(0.201847 -6.25049e-06 0)
(0.200174 3.8572e-06 0)
(0.200193 1.57785e-06 0)
(0.200176 -4.78599e-06 0)
(0.200167 -5.44452e-06 0)
)
;

boundaryField
{
    topWall
    {
        type            calculated;
        value           nonuniform List<vector> 0();
    }
    botWall
    {
        type            calculated;
        value           nonuniform List<vector> 0();
    }
    inlet
    {
        type            cyclic;
    }
    outlet
    {
        type            cyclic;
    }
    fixWall
    {
        type            empty;
    }
    procBoundary6to5
    {
        type            processor;
        value           nonuniform List<vector> 8((0.207064 1.11124e-05 0) (0.206917 5.60061e-06 0) (0.207024 -1.02054e-05 0) (0.20706 2.47071e-06 0) (0.207052 1.68154e-05 0) (0.207054 -5.00355e-06 0) (0.206909 -9.16926e-06 0) (0.207024 -8.31349e-06 0));
    }
    procBoundary6to7
    {
        type            processor;
        value           nonuniform List<vector> 8((0.19794 7.85763e-06 0) (0.198019 -8.90769e-07 0) (0.198012 -3.14975e-06 0) (0.197932 7.95573e-07 0) (0.19801 2.85238e-06 0) (0.198028 1.42701e-06 0) (0.198021 -4.68049e-06 0) (0.198006 -4.48611e-06 0));
    }
}


// ************************************************************************* //
