/*--------------------------------*- C++ -*----------------------------------*\
  =========                 |
  \\      /  F ield         | OpenFOAM: The Open Source CFD Toolbox
   \\    /   O peration     | Website:  https://openfoam.org
    \\  /    A nd           | Version:  dev
     \\/     M anipulation  |

   OpenFOAM for Windows 20.09 (v1)
   Built by CFD Support, www.cfdsupport.com (based on Symscape).
\*---------------------------------------------------------------------------*/
FoamFile
{
    version     2.0;
    format      ascii;
    class       volSymmTensorField;
    location    "4";
    object      UPrime2Mean;
}
// * * * * * * * * * * * * * * * * * * * * * * * * * * * * * * * * * * * * * //

dimensions      [0 2 -2 0 0 0 0];

internalField   nonuniform List<symmTensor> 
120
(
(0.00107917 1.83602e-07 0 3.12366e-11 0 0)
(0.00107615 5.66385e-08 0 2.98091e-12 0 0)
(0.00107927 -8.46095e-08 0 6.63294e-12 0 0)
(0.00108168 -3.07792e-08 0 8.75824e-13 0 0)
(0.00107799 1.46468e-07 0 1.99009e-11 0 0)
(0.00107558 4.15129e-08 0 1.60221e-12 0 0)
(0.00107866 -1.28704e-07 0 1.53567e-11 0 0)
(0.00108025 -1.34324e-08 0 1.67024e-13 0 0)
(0.00107623 1.6472e-07 0 2.5211e-11 0 0)
(0.00107453 1.82067e-08 0 3.0849e-13 0 0)
(0.00107679 -1.50341e-07 0 2.09906e-11 0 0)
(0.00107822 -2.62313e-08 0 6.38167e-13 0 0)
(0.00107338 1.78639e-07 0 2.97301e-11 0 0)
(0.00107266 5.46927e-08 0 2.78867e-12 0 0)
(0.00107428 -1.47486e-07 0 2.02481e-11 0 0)
(0.00107419 -9.85189e-09 0 9.0356e-14 0 0)
(0.00106932 1.45381e-07 0 1.97653e-11 0 0)
(0.00107018 1.51487e-08 0 2.14434e-13 0 0)
(0.00107094 -1.60335e-07 0 2.40044e-11 0 0)
(0.00106968 -1.03512e-08 0 1.00167e-13 0 0)
(0.0010639 1.66318e-07 0 2.60004e-11 0 0)
(0.00106588 1.98124e-08 0 3.68268e-13 0 0)
(0.00106649 -1.60115e-07 0 2.40385e-11 0 0)
(0.00106408 1.5332e-09 0 2.20915e-15 0 0)
(0.00105722 1.31149e-07 0 1.62692e-11 0 0)
(0.00105996 1.45269e-08 0 1.99094e-13 0 0)
(0.00106016 -1.41568e-07 0 1.89042e-11 0 0)
(0.00105715 9.04605e-09 0 7.74075e-14 0 0)
(0.00104843 1.26997e-07 0 1.53833e-11 0 0)
(0.00105164 2.74845e-09 0 7.18305e-15 0 0)
(0.00105182 -1.37079e-07 0 1.78648e-11 0 0)
(0.0010483 2.45513e-08 0 5.74993e-13 0 0)
(0.00103737 1.09952e-07 0 1.16539e-11 0 0)
(0.0010409 -1.19913e-08 0 1.38141e-13 0 0)
(0.00104091 -1.18075e-07 0 1.33938e-11 0 0)
(0.00103713 3.4347e-08 0 1.13749e-12 0 0)
(0.00102322 9.14792e-08 0 8.17856e-12 0 0)
(0.00102685 -2.0178e-08 0 3.96506e-13 0 0)
(0.00102685 -1.07562e-07 0 1.1267e-11 0 0)
(0.00102294 4.82373e-08 0 2.27466e-12 0 0)
(0.00100558 8.77157e-08 0 7.65135e-12 0 0)
(0.00100921 -3.69659e-08 0 1.35401e-12 0 0)
(0.00100914 -8.65906e-08 0 7.43003e-12 0 0)
(0.00100524 5.94457e-08 0 3.51538e-12 0 0)
(0.000983626 6.57373e-08 0 4.39333e-12 0 0)
(0.000987036 -4.60802e-08 0 2.15127e-12 0 0)
(0.000986954 -7.86711e-08 0 6.27095e-12 0 0)
(0.000983267 6.91587e-08 0 4.86432e-12 0 0)
(0.000956914 7.28578e-08 0 5.54727e-12 0 0)
(0.000959739 -5.99644e-08 0 3.74658e-12 0 0)
(0.000959619 -5.67407e-08 0 3.35498e-12 0 0)
(0.000956478 7.87173e-08 0 6.47836e-12 0 0)
(0.000924588 5.51437e-08 0 3.28885e-12 0 0)
(0.000927028 -5.9877e-08 0 3.86747e-12 0 0)
(0.000926886 -5.13111e-08 0 2.84051e-12 0 0)
(0.000924129 8.0891e-08 0 7.08056e-12 0 0)
(0.000886406 4.88415e-08 0 2.6912e-12 0 0)
(0.000888232 -7.1451e-08 0 5.74765e-12 0 0)
(0.000888074 -3.90937e-08 0 1.72094e-12 0 0)
(0.000885766 8.39273e-08 0 7.95219e-12 0 0)
(0.00108007 1.59052e-07 0 2.34223e-11 0 0)
(0.00107927 -1.77627e-07 0 2.92339e-11 0 0)
(0.00107629 -3.60526e-08 0 1.20766e-12 0 0)
(0.00107793 -4.66796e-08 0 2.02145e-12 0 0)
(0.00107836 2.11195e-07 0 4.13623e-11 0 0)
(0.00107819 -1.54714e-07 0 2.22005e-11 0 0)
(0.00107578 -6.38761e-08 0 3.79272e-12 0 0)
(0.00107699 -9.48212e-08 0 8.34828e-12 0 0)
(0.00107632 2.00681e-07 0 3.74175e-11 0 0)
(0.0010756 -1.25963e-07 0 1.47515e-11 0 0)
(0.00107403 1.26793e-09 0 1.49685e-15 0 0)
(0.00107516 -5.85319e-08 0 3.1865e-12 0 0)
(0.00107316 2.04989e-07 0 3.91559e-11 0 0)
(0.00107313 -1.40459e-07 0 1.83843e-11 0 0)
(0.00107169 -6.22996e-08 0 3.62159e-12 0 0)
(0.00107267 -1.00733e-07 0 9.45969e-12 0 0)
(0.00106944 2.23608e-07 0 4.6754e-11 0 0)
(0.00106931 -1.15378e-07 0 1.24491e-11 0 0)
(0.001068 -1.66179e-08 0 2.58573e-13 0 0)
(0.0010686 -8.88134e-08 0 7.38147e-12 0 0)
(0.0010644 2.10847e-07 0 4.17669e-11 0 0)
(0.0010646 -1.04632e-07 0 1.02836e-11 0 0)
(0.00106335 -2.78584e-08 0 7.29853e-13 0 0)
(0.00106364 -9.67256e-08 0 8.79607e-12 0 0)
(0.00105774 2.06304e-07 0 4.02382e-11 0 0)
(0.00105791 -1.14367e-07 0 1.23639e-11 0 0)
(0.00105699 -2.44776e-08 0 5.66846e-13 0 0)
(0.00105713 -9.16136e-08 0 7.93946e-12 0 0)
(0.00104918 2.00446e-07 0 3.82951e-11 0 0)
(0.00104951 -1.0004e-07 0 9.53594e-12 0 0)
(0.00104885 -2.45102e-08 0 5.72774e-13 0 0)
(0.00104886 -9.37646e-08 0 8.38225e-12 0 0)
(0.00103816 1.92797e-07 0 3.58045e-11 0 0)
(0.00103845 -1.0477e-07 0 1.05703e-11 0 0)
(0.00103817 -2.04014e-08 0 4.00914e-13 0 0)
(0.00103816 -8.44142e-08 0 6.86382e-12 0 0)
(0.00102419 1.84128e-07 0 3.31024e-11 0 0)
(0.00102456 -9.86044e-08 0 9.48974e-12 0 0)
(0.0010246 -2.46961e-08 0 5.95257e-13 0 0)
(0.00102453 -8.14788e-08 0 6.47983e-12 0 0)
(0.00100669 1.73536e-07 0 2.99145e-11 0 0)
(0.00100698 -1.03218e-07 0 1.058e-11 0 0)
(0.00100714 -2.34894e-08 0 5.47841e-13 0 0)
(0.00100714 -6.92064e-08 0 4.75555e-12 0 0)
(0.000984861 1.64137e-07 0 2.73552e-11 0 0)
(0.000985217 -9.73172e-08 0 9.61273e-12 0 0)
(0.00098546 -2.52487e-08 0 6.46904e-13 0 0)
(0.000985395 -6.16806e-08 0 3.86089e-12 0 0)
(0.000958394 1.55039e-07 0 2.50804e-11 0 0)
(0.000958533 -1.00669e-07 0 1.05726e-11 0 0)
(0.000958463 -2.41465e-08 0 6.08321e-13 0 0)
(0.000958661 -5.28309e-08 0 2.91146e-12 0 0)
(0.000926065 1.39922e-07 0 2.11414e-11 0 0)
(0.000926255 -9.54498e-08 0 9.83603e-12 0 0)
(0.000926108 -2.91157e-08 0 9.1536e-13 0 0)
(0.000926246 -3.91696e-08 0 1.65642e-12 0 0)
(0.00088814 1.29757e-07 0 1.89576e-11 0 0)
(0.000888219 -9.07991e-08 0 9.28203e-12 0 0)
(0.00088754 -2.69517e-08 0 8.18438e-13 0 0)
(0.000887969 -3.46137e-08 0 1.34927e-12 0 0)
)
;

boundaryField
{
    topWall
    {
        type            calculated;
        value           nonuniform List<symmTensor> 0();
    }
    botWall
    {
        type            calculated;
        value           nonuniform List<symmTensor> 0();
    }
    inlet
    {
        type            cyclic;
    }
    outlet
    {
        type            cyclic;
    }
    fixWall
    {
        type            empty;
    }
    procBoundary6to5
    {
        type            processor;
        value           nonuniform List<symmTensor> 8((0.00107945 1.54571e-07 0 2.21336e-11 0 0) (0.0010761 2.40401e-10 0 5.37055e-17 0 0) (0.00107932 -8.9836e-08 0 7.47741e-12 0 0) (0.00108121 -2.56779e-08 0 6.0983e-13 0 0) (0.00108086 1.9619e-07 0 3.56108e-11 0 0) (0.00108082 -1.59341e-07 0 2.34911e-11 0 0) (0.00107646 -1.36798e-08 0 1.73845e-13 0 0) (0.00107825 -5.21781e-08 0 2.52499e-12 0 0));
    }
    procBoundary6to7
    {
        type            processor;
        value           nonuniform List<symmTensor> 8((0.000841581 4.38601e-08 0 2.28583e-12 0 0) (0.000842876 -6.84062e-08 0 5.55172e-12 0 0) (0.000842685 -2.8558e-08 0 9.67811e-13 0 0) (0.00084087 8.31685e-08 0 8.226e-12 0 0) (0.000843217 1.09419e-07 0 1.41985e-11 0 0) (0.000843862 -8.6944e-08 0 8.95794e-12 0 0) (0.000843056 -2.80462e-08 0 9.33023e-13 0 0) (0.000842951 -2.43718e-08 0 7.04648e-13 0 0));
    }
}


// ************************************************************************* //
