/*--------------------------------*- C++ -*----------------------------------*\
  =========                 |
  \\      /  F ield         | OpenFOAM: The Open Source CFD Toolbox
   \\    /   O peration     | Website:  https://openfoam.org
    \\  /    A nd           | Version:  dev
     \\/     M anipulation  |

   OpenFOAM for Windows 20.09 (v1)
   Built by CFD Support, www.cfdsupport.com (based on Symscape).
\*---------------------------------------------------------------------------*/
FoamFile
{
    version     2.0;
    format      ascii;
    class       surfaceScalarField;
    location    "4";
    object      alphaPhi0.water;
}
// * * * * * * * * * * * * * * * * * * * * * * * * * * * * * * * * * * * * * //

dimensions      [0 3 -1 0 0 0 0];

internalField   nonuniform List<scalar> 
217
(
1.89286e-08
2.96674e-10
1.89453e-08
-1.05439e-09
1.89503e-08
-5.66829e-11
7.07404e-10
1.89615e-08
1.89381e-08
3.14952e-10
1.89481e-08
-1.06435e-09
1.89512e-08
-5.98402e-11
6.94593e-10
1.8964e-08
1.89468e-08
3.35468e-10
1.8952e-08
-1.06962e-09
1.89537e-08
-6.15255e-11
6.81889e-10
1.89664e-08
1.8957e-08
3.56736e-10
1.89581e-08
-1.07066e-09
1.89589e-08
-6.23848e-11
6.68691e-10
1.89721e-08
1.89682e-08
3.79441e-10
1.89663e-08
-1.06872e-09
1.89667e-08
-6.28477e-11
6.55375e-10
1.898e-08
1.89825e-08
4.03144e-10
1.8978e-08
-1.06423e-09
1.89783e-08
-6.31607e-11
6.41234e-10
1.89925e-08
1.90007e-08
4.28041e-10
1.8994e-08
-1.0575e-09
1.89945e-08
-6.36765e-11
6.26496e-10
1.90092e-08
1.9025e-08
4.53851e-10
1.90163e-08
-1.04883e-09
1.90166e-08
-6.39946e-11
6.10639e-10
1.90324e-08
1.90568e-08
4.80551e-10
1.90462e-08
-1.03819e-09
1.90465e-08
-6.43253e-11
5.93648e-10
1.90635e-08
1.90993e-08
5.07831e-10
1.90862e-08
-1.02515e-09
1.90863e-08
-6.44322e-11
5.75169e-10
1.91048e-08
1.91548e-08
5.35355e-10
1.91393e-08
-1.00962e-09
1.91391e-08
-6.43114e-11
5.5511e-10
1.91592e-08
1.92281e-08
5.62608e-10
1.92089e-08
-9.90347e-10
1.9208e-08
-6.34684e-11
5.32924e-10
1.92302e-08
1.93229e-08
5.8891e-10
1.92995e-08
-9.66986e-10
1.92978e-08
-6.17887e-11
5.08495e-10
1.93223e-08
1.94462e-08
6.12961e-10
1.94177e-08
-9.38428e-10
1.94138e-08
-5.79016e-11
4.81893e-10
1.94404e-08
1.96029e-08
1.95679e-08
1.95618e-08
1.95939e-08
1.89606e-08
3.70304e-10
1.89724e-08
-5.08745e-10
1.89879e-08
-6.8114e-10
9.20779e-10
1.89619e-08
3.72412e-10
1.89793e-08
-5.2613e-10
1.89946e-08
-6.96393e-10
9.58951e-10
1.89647e-08
3.74188e-10
1.89845e-08
-5.45945e-10
1.90026e-08
-7.14468e-10
9.94217e-10
1.89712e-08
3.7513e-10
1.89923e-08
-5.67073e-10
1.90116e-08
-7.33757e-10
1.02748e-09
1.89794e-08
3.75802e-10
1.9002e-08
-5.89743e-10
1.90227e-08
-7.54425e-10
1.05923e-09
1.89922e-08
3.76058e-10
1.90154e-08
-6.12971e-10
1.90369e-08
-7.75974e-10
1.08995e-09
1.90094e-08
3.75793e-10
1.90332e-08
-6.36714e-10
1.90557e-08
-7.98474e-10
1.12002e-09
1.90333e-08
3.74879e-10
1.90572e-08
-6.60571e-10
1.90799e-08
-8.21183e-10
1.14912e-09
1.90652e-08
3.73167e-10
1.90889e-08
-6.84336e-10
1.91118e-08
-8.44056e-10
1.17741e-09
1.91078e-08
3.70159e-10
1.91311e-08
-7.07651e-10
1.91535e-08
-8.66425e-10
1.20431e-09
1.91637e-08
3.65641e-10
1.91863e-08
-7.30177e-10
1.92076e-08
-8.8777e-10
1.22955e-09
1.9237e-08
3.58863e-10
1.9258e-08
-7.51168e-10
1.92776e-08
-9.07448e-10
1.25178e-09
1.9331e-08
3.50101e-10
1.93501e-08
-7.70217e-10
1.93678e-08
-9.25235e-10
1.27046e-09
1.94521e-08
3.38421e-10
1.94686e-08
-7.86764e-10
1.94834e-08
-9.40045e-10
1.28364e-09
1.96007e-08
1.96198e-08
1.96303e-08
)
;

boundaryField
{
    topWall
    {
        type            calculated;
        value           nonuniform List<scalar> 0();
    }
    botWall
    {
        type            calculated;
        value           nonuniform List<scalar> 0();
    }
    inlet
    {
        type            cyclic;
        value           nonuniform List<scalar> 
15
(
-1.96229e-08
-1.94703e-08
-1.93492e-08
-1.92554e-08
-1.91823e-08
-1.91266e-08
-1.90835e-08
-1.90508e-08
-1.90256e-08
-1.90062e-08
-1.89909e-08
-1.89783e-08
-1.89673e-08
-1.89564e-08
-1.89449e-08
)
;
    }
    outlet
    {
        type            cyclic;
        value           nonuniform List<scalar> 
15
(
1.96229e-08
1.94703e-08
1.93492e-08
1.92554e-08
1.91823e-08
1.91266e-08
1.90835e-08
1.90508e-08
1.90256e-08
1.90062e-08
1.89909e-08
1.89783e-08
1.89673e-08
1.89564e-08
1.89449e-08
)
;
    }
    fixWall
    {
        type            empty;
        value           nonuniform List<scalar> 0();
    }
    procBoundary2to1
    {
        type            processor;
        value           nonuniform List<scalar> 8(-2.80981e-10 1.03685e-09 5.27599e-11 -7.17764e-10 -3.70856e-10 4.97575e-10 6.67442e-10 -8.78435e-10);
    }
    procBoundary2to3
    {
        type            processor;
        value           nonuniform List<scalar> 8(6.31846e-10 -9.0321e-10 -5.17138e-11 4.49499e-10 3.30146e-10 -8.07007e-10 -9.50937e-10 1.29137e-09);
    }
}


// ************************************************************************* //
