/*--------------------------------*- C++ -*----------------------------------*\
  =========                 |
  \\      /  F ield         | OpenFOAM: The Open Source CFD Toolbox
   \\    /   O peration     | Website:  https://openfoam.org
    \\  /    A nd           | Version:  dev
     \\/     M anipulation  |

   OpenFOAM for Windows 20.09 (v1)
   Built by CFD Support, www.cfdsupport.com (based on Symscape).
\*---------------------------------------------------------------------------*/
FoamFile
{
    version     2.0;
    format      ascii;
    class       volSymmTensorField;
    location    "4";
    object      devReff;
}
// * * * * * * * * * * * * * * * * * * * * * * * * * * * * * * * * * * * * * //

dimensions      [0 2 -2 0 0 0 0];

internalField   nonuniform List<symmTensor> 
120
(
(1.64662e-07 -4.6145e-06 -0 -1.80526e-07 -0 1.58642e-08)
(-8.23103e-08 -1.3141e-06 -0 6.54148e-08 -0 1.68955e-08)
(-8.27856e-08 -1.09101e-07 -0 8.52843e-08 -0 -2.49867e-09)
(-1.09465e-07 -1.63284e-06 -0 1.03978e-07 -0 5.48635e-09)
(2.01763e-07 -4.03759e-06 -0 -2.25713e-07 -0 2.39503e-08)
(-3.65792e-08 -1.451e-06 -0 4.93045e-08 -0 -1.27253e-08)
(-9.76309e-08 -3.05559e-07 -0 1.16175e-07 -0 -1.85441e-08)
(-1.31804e-07 -1.30312e-06 -0 1.38511e-07 -0 -6.70659e-09)
(2.0232e-07 -3.78729e-06 -0 -2.12018e-07 -0 9.6981e-09)
(4.77485e-08 -1.98806e-06 -0 -6.48752e-08 -0 1.71267e-08)
(-8.19648e-08 -1.07254e-06 -0 9.03025e-08 -0 -8.33774e-09)
(-1.37127e-07 -1.62658e-06 -0 1.39935e-07 -0 -2.808e-09)
(2.04939e-07 -3.92802e-06 -0 -2.00766e-07 -0 -4.17303e-09)
(6.59868e-08 -2.60379e-06 -0 -5.98627e-08 -0 -6.12412e-09)
(-7.88103e-08 -1.8515e-06 -0 9.24079e-08 -0 -1.35977e-08)
(-1.49623e-07 -2.21827e-06 -0 1.61607e-07 -0 -1.19837e-08)
(2.35311e-07 -4.48338e-06 -0 -2.53271e-07 -0 1.79595e-08)
(1.0665e-07 -3.45535e-06 -0 -1.08039e-07 -0 1.38887e-09)
(-6.9683e-08 -2.89723e-06 -0 8.04519e-08 -0 -1.07689e-08)
(-1.51716e-07 -3.21856e-06 -0 1.59234e-07 -0 -7.51866e-09)
(2.45084e-07 -5.42089e-06 -0 -2.61333e-07 -0 1.62488e-08)
(1.48121e-07 -4.54439e-06 -0 -1.65816e-07 -0 1.7695e-08)
(-6.62697e-08 -4.12718e-06 -0 7.71739e-08 -0 -1.09042e-08)
(-1.46831e-07 -4.43498e-06 -0 1.44893e-07 -0 1.93783e-09)
(2.41413e-07 -6.86499e-06 -0 -2.4621e-07 -0 4.79676e-09)
(1.57049e-07 -6.08472e-06 -0 -1.60325e-07 -0 3.27641e-09)
(-6.79506e-08 -5.72644e-06 -0 8.26397e-08 -0 -1.46891e-08)
(-1.71899e-07 -6.04074e-06 -0 1.86186e-07 -0 -1.42871e-08)
(2.62347e-07 -8.88072e-06 -0 -2.79767e-07 -0 1.74207e-08)
(1.86404e-07 -8.12248e-06 -0 -1.99068e-07 -0 1.2664e-08)
(-5.87785e-08 -7.77405e-06 -0 6.57389e-08 -0 -6.96046e-09)
(-1.60929e-07 -8.07027e-06 -0 1.55464e-07 -0 5.4648e-09)
(2.52253e-07 -1.15724e-05 -0 -2.54244e-07 -0 1.99075e-09)
(1.99989e-07 -1.07902e-05 -0 -2.04019e-07 -0 4.02964e-09)
(-6.64961e-08 -1.03986e-05 -0 8.36087e-08 -0 -1.71126e-08)
(-1.9568e-07 -1.0716e-05 -0 2.12823e-07 -0 -1.71434e-08)
(2.6711e-07 -1.51293e-05 -0 -2.80097e-07 -0 1.29872e-08)
(2.24468e-07 -1.42546e-05 -0 -2.3081e-07 -0 6.34154e-09)
(-5.06298e-08 -1.37433e-05 -0 5.41241e-08 -0 -3.49431e-09)
(-1.92452e-07 -1.40618e-05 -0 1.9325e-07 -0 -7.98451e-10)
(2.58408e-07 -1.96484e-05 -0 -2.63449e-07 -0 5.04134e-09)
(2.56523e-07 -1.8678e-05 -0 -2.65716e-07 -0 9.19331e-09)
(-5.94716e-08 -1.80175e-05 -0 7.82517e-08 -0 -1.87801e-08)
(-2.1507e-07 -1.83543e-05 -0 2.22085e-07 -0 -7.01527e-09)
(2.55784e-07 -2.53565e-05 -0 -2.63171e-07 -0 7.38748e-09)
(3.02589e-07 -2.42998e-05 -0 -3.27571e-07 -0 2.49814e-08)
(-3.54555e-08 -2.34618e-05 -0 3.68912e-08 -0 -1.4357e-09)
(-2.28479e-07 -2.3762e-05 -0 2.32802e-07 -0 -4.32316e-09)
(2.20533e-07 -3.24156e-05 -0 -2.06448e-07 -0 -1.40853e-08)
(3.25215e-07 -3.14182e-05 -0 -3.34947e-07 -0 9.73191e-09)
(-3.81202e-08 -3.03898e-05 -0 5.58574e-08 -0 -1.77372e-08)
(-2.36823e-07 -3.05635e-05 -0 2.31789e-07 -0 5.03406e-09)
(2.31413e-07 -4.09712e-05 -0 -2.53551e-07 -0 2.21376e-08)
(3.56904e-07 -4.02294e-05 -0 -3.63766e-07 -0 6.8627e-09)
(-1.04649e-08 -3.91818e-05 -0 1.78093e-08 -0 -7.34436e-09)
(-2.77216e-07 -3.90021e-05 -0 3.02874e-07 -0 -2.5658e-08)
(1.89799e-07 -5.14633e-05 -0 -2.11945e-07 -0 2.2146e-08)
(3.85661e-07 -5.15456e-05 -0 -3.91427e-07 -0 5.76543e-09)
(2.39978e-08 -5.04157e-05 -0 -2.50076e-08 -0 1.00977e-09)
(-2.45215e-07 -4.86682e-05 -0 2.37958e-07 -0 7.25734e-09)
(2.40809e-09 -1.01061e-06 -0 1.48006e-08 -0 -1.72087e-08)
(-1.52632e-07 -7.44337e-07 -0 1.57934e-07 -0 -5.30196e-09)
(-1.50474e-07 -7.69754e-07 -0 2.12821e-07 -0 -6.23469e-08)
(3.41584e-07 -2.80903e-06 -0 -3.2168e-07 -0 -1.99034e-08)
(3.29319e-08 -7.61566e-07 -0 -3.69341e-08 -0 4.00222e-09)
(-1.38105e-07 -1.00939e-06 -0 1.14901e-07 -0 2.3204e-08)
(-1.33275e-07 -1.54281e-06 -0 1.38895e-07 -0 -5.62005e-09)
(3.06701e-07 -2.87744e-06 -0 -3.0314e-07 -0 -3.56042e-09)
(3.69189e-08 -1.32462e-06 -0 -4.67041e-08 -0 9.78514e-09)
(-1.54009e-07 -1.69862e-06 -0 1.37605e-07 -0 1.64034e-08)
(-1.54308e-07 -2.17992e-06 -0 1.62488e-07 -0 -8.18013e-09)
(2.78661e-07 -3.04156e-06 -0 -2.83214e-07 -0 4.55232e-09)
(3.49431e-08 -2.02487e-06 -0 -4.56581e-08 -0 1.0715e-08)
(-1.80901e-07 -2.40036e-06 -0 1.75029e-07 -0 5.87209e-09)
(-1.98418e-07 -2.88791e-06 -0 2.28708e-07 -0 -3.02899e-08)
(2.2645e-07 -3.46336e-06 -0 -2.00599e-07 -0 -2.58512e-08)
(3.30415e-08 -3.10887e-06 -0 -4.73989e-08 -0 1.43574e-08)
(-1.69679e-07 -3.41477e-06 -0 1.43245e-07 -0 2.64337e-08)
(-1.7066e-07 -3.77003e-06 -0 1.64199e-07 -0 6.46147e-09)
(2.44619e-07 -4.16786e-06 -0 -2.54189e-07 -0 9.57012e-09)
(1.16259e-08 -4.40938e-06 -0 -7.99712e-09 -0 -3.62875e-09)
(-2.03183e-07 -4.63742e-06 -0 2.00695e-07 -0 2.48858e-09)
(-2.13959e-07 -4.9095e-06 -0 2.39194e-07 -0 -2.52347e-08)
(2.20817e-07 -5.24658e-06 -0 -2.17621e-07 -0 -3.19644e-09)
(1.62117e-08 -6.13521e-06 -0 -2.29706e-08 -0 6.75899e-09)
(-1.97038e-07 -6.32435e-06 -0 1.84451e-07 -0 1.25864e-08)
(-2.12014e-07 -6.42297e-06 -0 2.31221e-07 -0 -1.92067e-08)
(2.11463e-07 -6.69582e-06 -0 -2.09462e-07 -0 -2.00082e-09)
(7.35122e-09 -8.2848e-06 -0 -1.1435e-08 -0 4.08379e-09)
(-2.03481e-07 -8.46863e-06 -0 1.94967e-07 -0 8.51321e-09)
(-2.10989e-07 -8.38966e-06 -0 2.25603e-07 -0 -1.4614e-08)
(2.04152e-07 -8.66319e-06 -0 -2.03656e-07 -0 -4.95744e-10)
(-1.63287e-09 -1.10391e-05 -0 -3.15674e-09 -0 4.78961e-09)
(-1.95986e-07 -1.12425e-05 -0 1.8211e-07 -0 1.38763e-08)
(-2.11818e-07 -1.09452e-05 -0 2.2918e-07 -0 -1.73616e-08)
(1.90067e-07 -1.1202e-05 -0 -1.87695e-07 -0 -2.37209e-09)
(-5.12168e-09 -1.45161e-05 -0 -6.66948e-09 -0 1.17912e-08)
(-1.89493e-07 -1.47832e-05 -0 1.7351e-07 -0 1.59827e-08)
(-1.97594e-07 -1.42027e-05 -0 2.05113e-07 -0 -7.51904e-09)
(1.72864e-07 -1.44862e-05 -0 -1.66725e-07 -0 -6.13875e-09)
(-3.53815e-08 -1.88792e-05 -0 3.75972e-08 -0 -2.21571e-09)
(-1.95198e-07 -1.92215e-05 -0 1.94318e-07 -0 8.80146e-10)
(-2.04794e-07 -1.83616e-05 -0 2.30079e-07 -0 -2.52848e-08)
(1.57122e-07 -1.86492e-05 -0 -1.57441e-07 -0 3.18954e-10)
(-4.83851e-08 -2.43676e-05 -0 4.8237e-08 -0 1.481e-10)
(-1.75575e-07 -2.48669e-05 -0 1.66393e-07 -0 9.18211e-09)
(-1.88091e-07 -2.36278e-05 -0 2.10339e-07 -0 -2.22476e-08)
(1.49606e-07 -2.38832e-05 -0 -1.67907e-07 -0 1.83008e-08)
(-6.96059e-08 -3.11041e-05 -0 6.64439e-08 -0 3.16199e-09)
(-1.59421e-07 -3.183e-05 -0 1.50848e-07 -0 8.57288e-09)
(-1.5205e-07 -3.02874e-05 -0 1.62633e-07 -0 -1.05829e-08)
(8.9727e-08 -3.03944e-05 -0 -8.50869e-08 -0 -4.6401e-09)
(-8.13109e-08 -3.93974e-05 -0 6.91105e-08 -0 1.22004e-08)
(-1.43627e-07 -4.05701e-05 -0 1.3326e-07 -0 1.03677e-08)
(-1.40772e-07 -3.86021e-05 -0 1.68901e-07 -0 -2.81287e-08)
(6.24656e-08 -3.83716e-05 -0 -6.94197e-08 -0 6.95412e-09)
(-1.10013e-07 -4.87684e-05 -0 9.21858e-08 -0 1.78274e-08)
(-1.32225e-07 -5.13028e-05 -0 1.2643e-07 -0 5.79487e-09)
(-6.2045e-08 -4.852e-05 -0 6.12899e-08 -0 7.55101e-10)
(1.46255e-09 -4.76945e-05 -0 7.67119e-09 -0 -9.13375e-09)
)
;

boundaryField
{
    topWall
    {
        type            calculated;
        value           nonuniform List<symmTensor> 0();
    }
    botWall
    {
        type            calculated;
        value           nonuniform List<symmTensor> 0();
    }
    inlet
    {
        type            cyclic;
    }
    outlet
    {
        type            cyclic;
    }
    fixWall
    {
        type            empty;
    }
    procBoundary2to1
    {
        type            processor;
        value           nonuniform List<symmTensor> 8((1.73338e-07 -4.66401e-06 -0 -2.15094e-07 -0 4.17559e-08) (-1.68206e-07 -1.52419e-06 -0 1.56983e-07 -0 1.12234e-08) (-7.32606e-08 1.82696e-08 -0 7.63897e-08 -0 -3.12906e-09) (-9.62555e-08 -1.69709e-06 -0 1.01641e-07 -0 -5.38504e-09) (-1.43431e-08 -1.19263e-06 -0 3.01993e-08 -0 -1.58562e-08) (-1.61343e-07 -1.04421e-06 -0 1.50397e-07 -0 1.09465e-08) (-6.3452e-08 -9.21092e-07 -0 6.39406e-08 -0 -4.88655e-10) (4.85869e-07 -2.49267e-06 -0 -5.29148e-07 -0 4.32789e-08));
    }
    procBoundary2to3
    {
        type            processor;
        value           nonuniform List<symmTensor> 8((7.21355e-08 -6.41872e-05 -0 -6.8576e-08 -0 -3.55952e-09) (3.71599e-07 -6.41331e-05 -0 -3.53605e-07 -0 -1.79945e-08) (6.72784e-08 -6.24843e-05 -0 -3.9278e-08 -0 -2.80003e-08) (-2.24839e-07 -6.04877e-05 -0 2.49687e-07 -0 -2.48485e-08) (-1.60802e-07 -6.08317e-05 -0 1.37481e-07 -0 2.33216e-08) (-1.14859e-07 -6.37338e-05 -0 8.7542e-08 -0 2.73167e-08) (2.23905e-08 -6.06793e-05 -0 -3.16307e-08 -0 9.24021e-09) (-9.12389e-08 -5.98743e-05 -0 1.3505e-07 -0 -4.38107e-08));
    }
}


// ************************************************************************* //
