/*--------------------------------*- C++ -*----------------------------------*\
  =========                 |
  \\      /  F ield         | OpenFOAM: The Open Source CFD Toolbox
   \\    /   O peration     | Website:  https://openfoam.org
    \\  /    A nd           | Version:  dev
     \\/     M anipulation  |

   OpenFOAM for Windows 20.09 (v1)
   Built by CFD Support, www.cfdsupport.com (based on Symscape).
\*---------------------------------------------------------------------------*/
FoamFile
{
    version     2.0;
    format      ascii;
    class       volScalarField;
    location    "4";
    object      epsilon;
}
// * * * * * * * * * * * * * * * * * * * * * * * * * * * * * * * * * * * * * //

dimensions      [0 2 -3 0 0 0 0];

internalField   nonuniform List<scalar> 
120
(
5.02963e-16
5.02864e-16
5.02931e-16
5.02967e-16
4.79063e-16
4.78962e-16
4.7902e-16
4.79057e-16
4.5815e-16
4.58046e-16
4.58096e-16
4.58133e-16
4.39896e-16
4.3979e-16
4.39831e-16
4.39869e-16
4.24027e-16
4.23917e-16
4.23951e-16
4.23989e-16
4.10305e-16
4.10192e-16
4.10218e-16
4.10256e-16
3.98529e-16
3.98414e-16
3.98431e-16
3.98471e-16
3.8853e-16
3.88411e-16
3.8842e-16
3.88462e-16
3.80162e-16
3.8004e-16
3.8004e-16
3.80084e-16
3.73304e-16
3.73179e-16
3.7317e-16
3.73216e-16
3.67856e-16
3.67727e-16
3.6771e-16
3.67757e-16
3.63736e-16
3.63604e-16
3.63578e-16
3.63626e-16
3.60881e-16
3.60746e-16
3.6071e-16
3.6076e-16
3.59244e-16
3.59106e-16
3.59059e-16
3.59111e-16
3.58794e-16
3.58655e-16
3.58595e-16
3.58648e-16
5.0294e-16
5.02897e-16
5.02892e-16
5.02943e-16
4.7903e-16
4.78991e-16
4.78988e-16
4.79035e-16
4.58107e-16
4.5807e-16
4.5807e-16
4.58113e-16
4.39844e-16
4.3981e-16
4.39812e-16
4.39851e-16
4.23965e-16
4.23934e-16
4.23937e-16
4.23973e-16
4.10234e-16
4.10205e-16
4.10209e-16
4.10243e-16
3.98449e-16
3.98424e-16
3.98428e-16
3.9846e-16
3.8844e-16
3.88418e-16
3.88424e-16
3.88453e-16
3.80063e-16
3.80044e-16
3.8005e-16
3.80077e-16
3.73197e-16
3.73181e-16
3.73187e-16
3.73212e-16
3.67739e-16
3.67727e-16
3.67733e-16
3.67756e-16
3.63611e-16
3.63602e-16
3.63608e-16
3.63629e-16
3.60746e-16
3.60742e-16
3.60747e-16
3.60767e-16
3.591e-16
3.591e-16
3.59105e-16
3.59123e-16
3.58642e-16
3.58647e-16
3.5865e-16
3.58666e-16
)
;

boundaryField
{
    topWall
    {
        type            epsilonWallFunction;
        value           nonuniform List<scalar> 0();
    }
    botWall
    {
        type            epsilonWallFunction;
        value           nonuniform List<scalar> 0();
    }
    inlet
    {
        type            cyclic;
    }
    outlet
    {
        type            cyclic;
    }
    fixWall
    {
        type            empty;
    }
    procBoundary2to1
    {
        type            processor;
        value           nonuniform List<scalar> 8(5.29804e-16 5.29706e-16 5.29781e-16 5.29819e-16 5.2979e-16 5.29744e-16 5.29737e-16 5.29793e-16);
    }
    procBoundary2to3
    {
        type            processor;
        value           nonuniform List<scalar> 8(3.58014e-16 3.57877e-16 3.578e-16 3.57852e-16 3.57852e-16 3.57863e-16 3.57866e-16 3.57879e-16);
    }
}


// ************************************************************************* //
