/*--------------------------------*- C++ -*----------------------------------*\
  =========                 |
  \\      /  F ield         | OpenFOAM: The Open Source CFD Toolbox
   \\    /   O peration     | Website:  https://openfoam.org
    \\  /    A nd           | Version:  dev
     \\/     M anipulation  |

   OpenFOAM for Windows 20.09 (v1)
   Built by CFD Support, www.cfdsupport.com (based on Symscape).
\*---------------------------------------------------------------------------*/
FoamFile
{
    version     2.0;
    format      ascii;
    class       volVectorField;
    location    "4";
    object      gradp;
}
// * * * * * * * * * * * * * * * * * * * * * * * * * * * * * * * * * * * * * //

dimensions      [1 -2 -2 0 0 0 0];

internalField   nonuniform List<vector> 
120
(
(3.75968 -98.1772 0)
(-1.19431 -99.0429 0)
(-1.22561 -98.2866 0)
(-1.23806 -98.8011 0)
(3.73795 -97.8936 0)
(-1.19647 -99.3212 0)
(-1.20446 -98.1278 0)
(-1.25203 -98.0881 0)
(3.73802 -97.8979 0)
(-1.19822 -98.0207 0)
(-1.20506 -98.0951 0)
(-1.25224 -98.0863 0)
(3.73804 -97.9067 0)
(-1.19976 -98.0216 0)
(-1.20555 -98.1028 0)
(-1.25237 -98.0862 0)
(3.73804 -97.9079 0)
(-1.20149 -98.0155 0)
(-1.20614 -98.1064 0)
(-1.2523 -98.0859 0)
(3.73802 -97.9111 0)
(-1.20306 -98.0136 0)
(-1.20672 -98.0972 0)
(-1.25234 -98.0851 0)
(3.73802 -97.9116 0)
(-1.20459 -98.0118 0)
(-1.20733 -98.0968 0)
(-1.25245 -98.0846 0)
(3.738 -97.9164 0)
(-1.20615 -98.0131 0)
(-1.20793 -98.0983 0)
(-1.25253 -98.0855 0)
(3.73797 -97.9229 0)
(-1.20762 -98.0129 0)
(-1.20854 -98.0982 0)
(-1.2526 -98.0827 0)
(3.73794 -97.9243 0)
(-1.20907 -98.0107 0)
(-1.2091 -98.0942 0)
(-1.25268 -98.0821 0)
(3.73792 -97.9246 0)
(-1.21045 -98.0092 0)
(-1.20972 -98.0976 0)
(-1.25279 -98.0838 0)
(3.7379 -97.9265 0)
(-1.21196 -98.0076 0)
(-1.21034 -98.1004 0)
(-1.25273 -98.0792 0)
(3.73787 -97.9259 0)
(-1.21335 -98.0076 0)
(-1.21092 -98.096 0)
(-1.25287 -98.0596 0)
(3.73782 -96.8239 0)
(-1.21479 -97.4003 0)
(-1.21121 -98.072 0)
(-1.25297 -98.0607 0)
(3.73024 -97.0738 0)
(-1.23415 -97.4332 0)
(-1.22192 -97.9423 0)
(-1.24299 -97.8041 0)
(-1.25829 -98.3371 0)
(-1.26214 -98.3139 0)
(-1.27578 -98.941 0)
(3.69452 -98.524 0)
(-1.26575 -98.9784 0)
(-1.24763 -98.5368 0)
(-1.26774 -98.0926 0)
(3.69613 -98.0217 0)
(-1.26577 -98.1154 0)
(-1.24738 -98.0973 0)
(-1.26719 -98.0929 0)
(3.69783 -98.0264 0)
(-1.26594 -98.1067 0)
(-1.24725 -98.1029 0)
(-1.26656 -98.0928 0)
(3.69938 -98.0226 0)
(-1.26605 -98.1045 0)
(-1.24715 -98.0981 0)
(-1.26586 -98.095 0)
(3.70093 -98.0143 0)
(-1.26614 -98.1064 0)
(-1.24709 -98.0962 0)
(-1.26516 -98.0939 0)
(3.7025 -98.0123 0)
(-1.26623 -98.1083 0)
(-1.24694 -98.0958 0)
(-1.26446 -98.0905 0)
(3.70398 -98.0104 0)
(-1.26633 -98.107 0)
(-1.2468 -98.096 0)
(-1.26374 -98.0881 0)
(3.70548 -98.0101 0)
(-1.26641 -98.1069 0)
(-1.24662 -98.0923 0)
(-1.26303 -98.0852 0)
(3.70684 -98.0096 0)
(-1.26649 -98.1054 0)
(-1.24643 -98.0966 0)
(-1.26236 -98.087 0)
(3.70818 -98.0081 0)
(-1.26665 -98.1006 0)
(-1.24632 -98.1013 0)
(-1.26155 -98.0895 0)
(3.70955 -98.0065 0)
(-1.26678 -98.1053 0)
(-1.24625 -98.0984 0)
(-1.26078 -98.0895 0)
(3.71093 -98.0043 0)
(-1.26697 -98.1106 0)
(-1.24605 -98.0865 0)
(-1.25998 -98.0891 0)
(3.71227 -98.0028 0)
(-1.26723 -97.4796 0)
(-1.24589 -98.01 0)
(-1.25938 -97.5805 0)
(3.71365 -96.943 0)
(-1.26612 -98.0071 0)
(-1.24773 -97.8506 0)
(-1.2422 -98.4178 0)
(3.72488 -97.6219 0)
)
;

boundaryField
{
    topWall
    {
        type            extrapolatedCalculated;
        value           nonuniform List<vector> 0();
    }
    botWall
    {
        type            extrapolatedCalculated;
        value           nonuniform List<vector> 0();
    }
    inlet
    {
        type            cyclic;
    }
    outlet
    {
        type            cyclic;
    }
    fixWall
    {
        type            empty;
    }
    procBoundary2to1
    {
        type            processor;
        value           nonuniform List<vector> 8((3.7466 -97.7467 0) (-1.19465 -97.7408 0) (-1.20848 -97.4741 0) (-1.25119 -97.971 0) (-1.27387 -97.4676 0) (-1.23756 -97.8674 0) (-1.26424 -97.9571 0) (3.6834 -97.3327 0));
    }
    procBoundary2to3
    {
        type            processor;
        value           nonuniform List<vector> 8((3.74096 -98.1701 0) (-1.22927 -98.1662 0) (-1.21739 -98.4669 0) (-1.25405 -99.035 0) (-1.268 -98.6303 0) (-1.25274 -98.0292 0) (-1.25557 -99.2703 0) (3.73605 -98.6865 0));
    }
}


// ************************************************************************* //
