/*--------------------------------*- C++ -*----------------------------------*\
  =========                 |
  \\      /  F ield         | OpenFOAM: The Open Source CFD Toolbox
   \\    /   O peration     | Website:  https://openfoam.org
    \\  /    A nd           | Version:  dev
     \\/     M anipulation  |

   OpenFOAM for Windows 20.09 (v1)
   Built by CFD Support, www.cfdsupport.com (based on Symscape).
\*---------------------------------------------------------------------------*/
FoamFile
{
    version     2.0;
    format      ascii;
    class       volTensorField;
    location    "4";
    object      gradU;
}
// * * * * * * * * * * * * * * * * * * * * * * * * * * * * * * * * * * * * * //

dimensions      [0 0 -1 0 0 0 0];

internalField   nonuniform List<tensor> 
120
(
(-0.000394313 -0.000428763 0 0.0248856 0.000520434 0 0 0 0)
(0.000262895 -0.00018839 0 0.00715311 -0.000128576 0 0 0 0)
(0.00021276 0.000429215 0 0.000149021 -0.000232625 0 0 0 0)
(0.00030462 7.70581e-05 0 0.00857699 -0.000261004 0 0 0 0)
(-0.000471203 -0.000433474 0 0.0218327 0.000661608 0 0 0 0)
(6.32129e-05 -0.000195209 0 0.00788553 -0.000164379 0 0 0 0)
(0.00020958 0.000429384 0 0.00119008 -0.000357006 0 0 0 0)
(0.000331509 7.99121e-05 0 0.0068266 -0.000384827 0 0 0 0)
(-0.000510447 -0.000444734 0 0.0205173 0.000587547 0 0 0 0)
(-8.1148e-05 -0.000205367 0 0.0107421 0.000217305 0 0 0 0)
(0.000195112 0.000425541 0 0.00525893 -0.000261397 0 0 0 0)
(0.000355945 8.48162e-05 0 0.00853607 -0.000378268 0 0 0 0)
(-0.000554148 -0.000442562 0 0.0212611 0.000520972 0 0 0 0)
(-0.000191094 -0.000209358 0 0.0140094 0.000142407 0 0 0 0)
(0.000172813 0.000419457 0 0.00939349 -0.000280915 0 0 0 0)
(0.000364744 8.67636e-05 0 0.0116701 -0.000460014 0 0 0 0)
(-0.000575982 -0.000450079 0 0.024212 0.00071876 0 0 0 0)
(-0.000278941 -0.000218731 0 0.0185321 0.000289983 0 0 0 0)
(0.000156122 0.0004155 0 0.0149398 -0.000241735 0 0 0 0)
(0.000382122 9.19879e-05 0 0.0169664 -0.000441896 0 0 0 0)
(-0.000606414 -0.000449378 0 0.0291801 0.000735592 0 0 0 0)
(-0.00034563 -0.000225366 0 0.0243106 0.000486305 0 0 0 0)
(0.000146718 0.000407259 0 0.0214668 -0.000233407 0 0 0 0)
(0.000394236 9.35201e-05 0 0.0234118 -0.00037883 0 0 0 0)
(-0.000627034 -0.000451444 0 0.0368359 0.000665168 0 0 0 0)
(-0.000407496 -0.000234881 0 0.0324839 0.000433544 0 0 0 0)
(0.000141143 0.000401082 0 0.0299491 -0.000257921 0 0 0 0)
(0.000417672 9.6071e-05 0 0.0319199 -0.000531254 0 0 0 0)
(-0.000649054 -0.000451315 0 0.0475191 0.000787548 0 0 0 0)
(-0.00046041 -0.000240751 0 0.0432899 0.000561089 0 0 0 0)
(0.000137318 0.00039118 0 0.0408113 -0.000192653 0 0 0 0)
(0.000440942 9.91318e-05 0 0.0426733 -0.000397497 0 0 0 0)
(-0.000663195 -0.000451065 0 0.0617849 0.000679022 0 0 0 0)
(-0.000519293 -0.000251218 0 0.0574392 0.000551329 0 0 0 0)
(0.000130866 0.000385105 0 0.0547274 -0.000266911 0 0 0 0)
(0.000473122 9.99673e-05 0 0.0566946 -0.000609412 0 0 0 0)
(-0.000673425 -0.000450311 0 0.0806357 0.000776674 0 0 0 0)
(-0.000578035 -0.000256517 0 0.0758058 0.00062845 0 0 0 0)
(0.000124909 0.000371834 0 0.0724679 -0.000152689 0 0 0 0)
(0.000507881 0.000103931 0 0.0744238 -0.000514229 0 0 0 0)
(-0.000671422 -0.000447684 0 0.104584 0.0007115 0 0 0 0)
(-0.000655423 -0.000266707 0 0.0992599 0.00072851 0 0 0 0)
(0.000107833 0.00036606 0 0.0951266 -0.000257134 0 0 0 0)
(0.000551344 0.000103327 0 0.0971745 -0.000607116 0 0 0 0)
(-0.00065825 -0.000445137 0 0.134835 0.000716981 0 0 0 0)
(-0.000735661 -0.00027266 0 0.129061 0.000934263 0 0 0 0)
(9.01524e-05 0.000349573 0 0.123998 -0.000101566 0 0 0 0)
(0.000594012 0.000106459 0 0.125832 -0.000628381 0 0 0 0)
(-0.000621739 -0.000440337 0 0.172243 0.000509761 0 0 0 0)
(-0.00083603 -0.00028035 0 0.166797 0.000913398 0 0 0 0)
(5.40149e-05 0.000340016 0 0.160726 -0.000195026 0 0 0 0)
(0.00064092 0.000102896 0 0.161884 -0.000600899 0 0 0 0)
(-0.00055458 -0.000433467 0 0.217581 0.000730574 0 0 0 0)
(-0.000927609 -0.000284407 0 0.2135 0.000982167 0 0 0 0)
(8.26949e-06 0.000324335 0 0.207339 -6.66571e-05 0 0 0 0)
(0.000666627 0.000106914 0 0.206604 -0.000870609 0 0 0 0)
(-0.00044428 -0.000427341 0 0.273183 0.000620341 0 0 0 0)
(-0.00100672 -0.000293637 0 0.273485 0.00105256 0 0 0 0)
(-6.09184e-05 0.000309137 0 0.266894 6.8946e-05 0 0 0 0)
(0.000669052 0.000101494 0 0.25784 -0.000611356 0 0 0 0)
(-5.19844e-05 -0.000234914 0 0.00559117 -8.48245e-05 0 0 0 0)
(0.000390425 -0.000272759 0 0.00421775 -0.000432576 0 0 0 0)
(0.000233537 0.000234462 0 0.00384523 -0.000729195 0 0 0 0)
(-0.000957941 0.000384091 0 0.0145038 0.000799709 0 0 0 0)
(-7.66637e-05 -0.000233256 0 0.00426955 0.000108481 0 0 0 0)
(0.000427469 -0.000281598 0 0.00563139 -0.000242998 0 0 0 0)
(0.000338287 0.000237346 0 0.00793957 -0.000382966 0 0 0 0)
(-0.000822191 0.000396895 0 0.0148535 0.000793886 0 0 0 0)
(-7.19046e-05 -0.000232551 0 0.00725301 0.000149696 0 0 0 0)
(0.000451592 -0.00028095 0 0.00928363 -0.000321185 0 0 0 0)
(0.00038724 0.000251744 0 0.0113018 -0.000452272 0 0 0 0)
(-0.000726389 0.0004015 0 0.0157187 0.00076258 0 0 0 0)
(-6.42044e-05 -0.000232305 0 0.0109641 0.000149389 0 0 0 0)
(0.00049495 -0.000291631 0 0.0130136 -0.000448266 0 0 0 0)
(0.000445539 0.000255409 0 0.0150505 -0.000686343 0 0 0 0)
(-0.0006686 0.000414225 0 0.0179416 0.000463082 0 0 0 0)
(-4.9513e-05 -0.000232355 0 0.0167094 0.000163654 0 0 0 0)
(0.000519699 -0.000294879 0 0.0183932 -0.000309551 0 0 0 0)
(0.000469373 0.000266933 0 0.0197142 -0.000418005 0 0 0 0)
(-0.00062288 0.000421622 0 0.0216681 0.000698962 0 0 0 0)
(-4.04248e-05 -0.000230099 0 0.0235998 1.15762e-05 0 0 0 0)
(0.00054503 -0.000301325 0 0.0248797 -0.000525246 0 0 0 0)
(0.00050012 0.000272218 0 0.0257481 -0.000700736 0 0 0 0)
(-0.000593637 0.000433171 0 0.0273737 0.000568225 0 0 0 0)
(-2.50496e-05 -0.000234795 0 0.0327514 7.87835e-05 0 0 0 0)
(0.000555504 -0.00030675 0 0.0338258 -0.000455442 0 0 0 0)
(0.00051094 0.000285157 0 0.0337566 -0.000663634 0 0 0 0)
(-0.00056568 0.000445561 0 0.0350423 0.000549773 0 0 0 0)
(-8.65869e-06 -0.000228836 0 0.0441383 4.11248e-05 0 0 0 0)
(0.000561783 -0.000313699 0 0.0451974 -0.000494103 0 0 0 0)
(0.000520395 0.000288971 0 0.0441762 -0.000636576 0 0 0 0)
(-0.000542315 0.000455318 0 0.0454596 0.000538374 0 0 0 0)
(1.70196e-05 -0.000236405 0 0.0587438 2.10578e-05 0 0 0 0)
(0.000556136 -0.000318045 0 0.0599033 -0.00044582 0 0 0 0)
(0.000515309 0.000302365 0 0.0577074 -0.000653334 0 0 0 0)
(-0.000509964 0.000469296 0 0.0589015 0.000491106 0 0 0 0)
(4.4819e-05 -0.000226109 0 0.0771613 4.89207e-05 0 0 0 0)
(0.00054451 -0.000324938 0 0.0786759 -0.000417448 0 0 0 0)
(0.000503697 0.000304587 0 0.0749695 -0.000563474 0 0 0 0)
(-0.000474356 0.000477524 0 0.0762994 0.000425553 0 0 0 0)
(8.78894e-05 -0.000234792 0 0.100294 -0.000105504 0 0 0 0)
(0.000519607 -0.000328252 0 0.102202 -0.00051261 0 0 0 0)
(0.0004757 0.000316415 0 0.0970003 -0.000676714 0 0 0 0)
(-0.000415528 0.000491632 0 0.0983494 0.000418064 0 0 0 0)
(0.000128613 -0.000224534 0 0.129373 -0.000127435 0 0 0 0)
(0.000489607 -0.000334459 0 0.132129 -0.000416609 0 0 0 0)
(0.000439485 0.000320098 0 0.124907 -0.000616354 0 0 0 0)
(-0.000347958 0.000500661 0 0.12608 0.00049345 0 0 0 0)
(0.000192835 -0.000231263 0 0.165083 -0.000167697 0 0 0 0)
(0.000445182 -0.000336401 0 0.169035 -0.000377028 0 0 0 0)
(0.000374889 0.000331583 0 0.160192 -0.000459023 0 0 0 0)
(-0.000250073 0.000513854 0 0.160577 0.000213184 0 0 0 0)
(0.000247805 -0.000220803 0 0.209027 -0.000150812 0 0 0 0)
(0.000408087 -0.000339314 0 0.215361 -0.000325664 0 0 0 0)
(0.000298506 0.000329935 0 0.204261 -0.000522129 0 0 0 0)
(-0.000147105 0.000516807 0 0.202852 0.000202391 0 0 0 0)
(0.000338778 -0.00022218 0 0.258695 -0.00019705 0 0 0 0)
(0.000365752 -0.000342589 0 0.272247 -0.000319683 0 0 0 0)
(0.00016642 0.000340384 0 0.256815 -0.000160417 0 0 0 0)
(-2.80802e-05 0.000534733 0 0.252246 -4.45331e-05 0 0 0 0)
)
;

boundaryField
{
    topWall
    {
        type            extrapolatedCalculated;
        value           nonuniform List<tensor> 0();
    }
    botWall
    {
        type            extrapolatedCalculated;
        value           nonuniform List<tensor> 0();
    }
    inlet
    {
        type            cyclic;
    }
    outlet
    {
        type            cyclic;
    }
    fixWall
    {
        type            empty;
    }
    procBoundary2to1
    {
        type            processor;
        value           nonuniform List<tensor> 8((-0.000348692 -0.000418002 0 0.0251373 0.000680651 0 0 0 0) (0.000475489 -0.000182658 0 0.00826086 -0.000386263 0 0 0 0) (0.000185849 0.000431591 0 -0.00052842 -0.000210725 0 0 0 0) (0.000240807 7.74487e-05 0 0.00891711 -0.000283618 0 0 0 0) (-4.00952e-06 -0.000230397 0 0.00655135 -0.000122047 0 0 0 0) (0.000456568 -0.000270858 0 0.00580517 -0.000369544 0 0 0 0) (0.000166853 0.000216808 0 0.00466498 -0.000170738 0 0 0 0) (-0.00117286 0.000376067 0 0.0128351 0.00151693 0 0 0 0));
    }
    procBoundary2to3
    {
        type            processor;
        value           nonuniform List<tensor> 8((-0.000200592 -0.000415182 0 0.340607 0.000172294 0 0 0 0) (-0.00103242 -0.000293597 0 0.340199 0.000889368 0 0 0 0) (-0.000252489 0.000296603 0 0.33087 2.98859e-05 0 0 0 0) (0.000529975 0.000102481 0 0.320482 -0.00072752 0 0 0 0) (0.000487929 -0.000215942 0 0.322624 -0.000302522 0 0 0 0) (0.000376765 -0.000338704 0 0.338128 -0.000159597 0 0 0 0) (-3.48482e-05 0.000334521 0 0.321266 0.000108308 0 0 0 0) (0.000125685 0.00052982 0 0.316804 -0.00047398 0 0 0 0));
    }
}


// ************************************************************************* //
