/*--------------------------------*- C++ -*----------------------------------*\
  =========                 |
  \\      /  F ield         | OpenFOAM: The Open Source CFD Toolbox
   \\    /   O peration     | Website:  https://openfoam.org
    \\  /    A nd           | Version:  dev
     \\/     M anipulation  |

   OpenFOAM for Windows 20.09 (v1)
   Built by CFD Support, www.cfdsupport.com (based on Symscape).
\*---------------------------------------------------------------------------*/
FoamFile
{
    version     2.0;
    format      ascii;
    class       volVectorField;
    location    "4";
    object      gradp_rgh;
}
// * * * * * * * * * * * * * * * * * * * * * * * * * * * * * * * * * * * * * //

dimensions      [1 -2 -2 0 0 0 0];

internalField   nonuniform List<vector> 
120
(
(-1.24004 -0.0884637 0)
(-1.1941 -0.969327 0)
(-1.22626 -0.206863 0)
(-1.23796 -0.67921 0)
(-1.26205 0.20208 0)
(-1.19646 -1.25614 0)
(-1.20445 -0.0450685 0)
(-1.25204 0.015758 0)
(-1.26198 0.202033 0)
(-1.19822 0.0794767 0)
(-1.20506 0.00424106 0)
(-1.25223 0.0137309 0)
(-1.26196 0.193586 0)
(-1.19976 0.0788255 0)
(-1.20555 -0.00274198 0)
(-1.25237 0.0139321 0)
(-1.26196 0.192483 0)
(-1.20149 0.0849039 0)
(-1.20614 -0.00606065 0)
(-1.2523 0.0143891 0)
(-1.26198 0.189263 0)
(-1.20307 0.0866463 0)
(-1.20673 0.00296223 0)
(-1.25234 0.0149909 0)
(-1.26198 0.188721 0)
(-1.20459 0.0882893 0)
(-1.20733 0.00327671 0)
(-1.25246 0.0155228 0)
(-1.262 0.183672 0)
(-1.20616 0.0868333 0)
(-1.20794 0.00166462 0)
(-1.25253 0.014582 0)
(-1.26203 0.177065 0)
(-1.20763 0.0868866 0)
(-1.20854 0.0017211 0)
(-1.25259 0.0173353 0)
(-1.26206 0.175337 0)
(-1.20908 0.0889568 0)
(-1.2091 0.00562945 0)
(-1.25267 0.0179002 0)
(-1.26208 0.174835 0)
(-1.21046 0.0904646 0)
(-1.20972 0.00240417 0)
(-1.25277 0.0161867 0)
(-1.2621 0.173141 0)
(-1.21195 0.0923763 0)
(-1.21034 -3.01178e-05 0)
(-1.25271 0.0207572 0)
(-1.26212 0.174418 0)
(-1.21334 0.0923872 0)
(-1.21092 0.00428423 0)
(-1.25286 0.0395876 0)
(-1.26217 1.23361 0)
(-1.21479 0.671149 0)
(-1.21122 0.0434869 0)
(-1.25299 0.0757359 0)
(-1.26954 0.992363 0)
(-1.23318 0.638958 0)
(-1.22084 0.178494 0)
(-1.24368 0.345011 0)
(-1.25842 -0.243113 0)
(-1.26246 -0.208204 0)
(-1.27528 -0.866216 0)
(-1.30548 -0.454672 0)
(-1.26575 -0.901161 0)
(-1.24762 -0.424847 0)
(-1.26774 0.0038565 0)
(-1.30388 0.0600505 0)
(-1.26577 -0.0152947 0)
(-1.24738 0.00271788 0)
(-1.26719 0.00662816 0)
(-1.30217 0.0738991 0)
(-1.26594 -0.00677652 0)
(-1.24725 -0.00300236 0)
(-1.26655 0.00696099 0)
(-1.30062 0.0777043 0)
(-1.26605 -0.00454011 0)
(-1.24715 0.00196686 0)
(-1.26585 0.00513307 0)
(-1.29906 0.0859076 0)
(-1.26614 -0.00641215 0)
(-1.24709 0.00388672 0)
(-1.26515 0.00637003 0)
(-1.2975 0.0878711 0)
(-1.26623 -0.00814679 0)
(-1.24694 0.00438606 0)
(-1.26445 0.00988285 0)
(-1.29602 0.0897164 0)
(-1.26633 -0.00669704 0)
(-1.24679 0.0042099 0)
(-1.26373 0.0121865 0)
(-1.29452 0.0898797 0)
(-1.26641 -0.00645004 0)
(-1.24662 0.0078915 0)
(-1.26302 0.014981 0)
(-1.29316 0.0902284 0)
(-1.26649 -0.00498111 0)
(-1.24644 0.00343931 0)
(-1.26236 0.0126782 0)
(-1.29182 0.0914603 0)
(-1.26665 -0.000266385 0)
(-1.24633 -0.00154064 0)
(-1.26155 0.00965431 0)
(-1.29045 0.0928303 0)
(-1.26678 -0.00555329 0)
(-1.24627 0.00114274 0)
(-1.26079 0.00950598 0)
(-1.28907 0.095039 0)
(-1.26697 -0.0125519 0)
(-1.24608 0.0126871 0)
(-1.25999 0.010541 0)
(-1.28772 0.097003 0)
(-1.26723 0.594254 0)
(-1.24589 0.086517 0)
(-1.25938 0.499838 0)
(-1.28633 1.11607 0)
(-1.26679 0.0889504 0)
(-1.24765 0.253496 0)
(-1.24283 -0.30426 0)
(-1.27549 0.462864 0)
)
;

boundaryField
{
    topWall
    {
        type            extrapolatedCalculated;
        value           nonuniform List<vector> 0();
    }
    botWall
    {
        type            extrapolatedCalculated;
        value           nonuniform List<vector> 0();
    }
    inlet
    {
        type            cyclic;
    }
    outlet
    {
        type            cyclic;
    }
    fixWall
    {
        type            empty;
    }
    procBoundary2to1
    {
        type            processor;
        value           nonuniform List<vector> 8((-1.25348 0.357454 0) (-1.19449 0.393897 0) (-1.20929 0.643482 0) (-1.25144 0.12568 0) (-1.2736 0.654545 0) (-1.23723 0.220577 0) (-1.26363 0.146447 0) (-1.31684 0.785897 0));
    }
    procBoundary2to3
    {
        type            processor;
        value           nonuniform List<vector> 8((-1.25924 -0.0270005 0) (-1.22835 -0.0372487 0) (-1.21611 -0.382693 0) (-1.25448 -0.97192 0) (-1.26876 -0.504712 0) (-1.25244 0.0736677 0) (-1.25589 -1.15086 0) (-1.26472 -0.545152 0));
    }
}


// ************************************************************************* //
