/*--------------------------------*- C++ -*----------------------------------*\
  =========                 |
  \\      /  F ield         | OpenFOAM: The Open Source CFD Toolbox
   \\    /   O peration     | Website:  https://openfoam.org
    \\  /    A nd           | Version:  dev
     \\/     M anipulation  |

   OpenFOAM for Windows 20.09 (v1)
   Built by CFD Support, www.cfdsupport.com (based on Symscape).
\*---------------------------------------------------------------------------*/
FoamFile
{
    version     2.0;
    format      ascii;
    class       volScalarField;
    location    "4";
    object      nut;
}
// * * * * * * * * * * * * * * * * * * * * * * * * * * * * * * * * * * * * * //

dimensions      [0 2 -1 0 0 0 0];

internalField   nonuniform List<scalar> 
120
(
8.82241e-18
8.82413e-18
8.82297e-18
8.82233e-18
9.26254e-18
9.2645e-18
9.26337e-18
9.26266e-18
9.68535e-18
9.68755e-18
9.6865e-18
9.68572e-18
1.00872e-17
1.00897e-17
1.00887e-17
1.00879e-17
1.04648e-17
1.04675e-17
1.04666e-17
1.04657e-17
1.08148e-17
1.08177e-17
1.0817e-17
1.0816e-17
1.11343e-17
1.11375e-17
1.1137e-17
1.11359e-17
1.14208e-17
1.14243e-17
1.14241e-17
1.14229e-17
1.16722e-17
1.1676e-17
1.1676e-17
1.16746e-17
1.18867e-17
1.18907e-17
1.18909e-17
1.18895e-17
1.20627e-17
1.2067e-17
1.20675e-17
1.2066e-17
1.21993e-17
1.22038e-17
1.22047e-17
1.2203e-17
1.22959e-17
1.23005e-17
1.23017e-17
1.23e-17
1.23519e-17
1.23566e-17
1.23583e-17
1.23565e-17
1.23674e-17
1.23722e-17
1.23742e-17
1.23724e-17
8.82282e-18
8.82356e-18
8.82364e-18
8.82275e-18
9.26317e-18
9.26395e-18
9.26399e-18
9.26308e-18
9.68625e-18
9.68704e-18
9.68704e-18
9.68613e-18
1.00884e-17
1.00892e-17
1.00892e-17
1.00883e-17
1.04663e-17
1.04671e-17
1.0467e-17
1.04661e-17
1.08166e-17
1.08174e-17
1.08173e-17
1.08164e-17
1.11365e-17
1.11372e-17
1.11371e-17
1.11362e-17
1.14235e-17
1.14241e-17
1.1424e-17
1.14231e-17
1.16753e-17
1.16759e-17
1.16757e-17
1.16748e-17
1.18901e-17
1.18906e-17
1.18904e-17
1.18896e-17
1.20665e-17
1.20669e-17
1.20667e-17
1.2066e-17
1.22036e-17
1.22038e-17
1.22036e-17
1.22029e-17
1.23004e-17
1.23006e-17
1.23004e-17
1.22998e-17
1.23568e-17
1.23568e-17
1.23567e-17
1.23561e-17
1.23726e-17
1.23725e-17
1.23724e-17
1.23718e-17
)
;

boundaryField
{
    topWall
    {
        type            nutkWallFunction;
        Cmu             0.09;
        kappa           0.41;
        E               9.8;
        value           nonuniform List<scalar> 0();
    }
    botWall
    {
        type            nutkWallFunction;
        Cmu             0.09;
        kappa           0.41;
        E               9.8;
        value           nonuniform List<scalar> 0();
    }
    inlet
    {
        type            cyclic;
    }
    outlet
    {
        type            cyclic;
    }
    fixWall
    {
        type            empty;
    }
    procBoundary2to1
    {
        type            processor;
        value           nonuniform List<scalar> 8(8.37544e-18 8.37699e-18 8.3758e-18 8.3752e-18 8.37567e-18 8.37639e-18 8.37651e-18 8.37562e-18);
    }
    procBoundary2to3
    {
        type            processor;
        value           nonuniform List<scalar> 8(1.23943e-17 1.23991e-17 1.24017e-17 1.23999e-17 1.23999e-17 1.23995e-17 1.23995e-17 1.2399e-17);
    }
}


// ************************************************************************* //
