/*--------------------------------*- C++ -*----------------------------------*\
  =========                 |
  \\      /  F ield         | OpenFOAM: The Open Source CFD Toolbox
   \\    /   O peration     | Website:  https://openfoam.org
    \\  /    A nd           | Version:  dev
     \\/     M anipulation  |

   OpenFOAM for Windows 20.09 (v1)
   Built by CFD Support, www.cfdsupport.com (based on Symscape).
\*---------------------------------------------------------------------------*/
FoamFile
{
    version     2.0;
    format      ascii;
    class       volScalarField;
    location    "4";
    object      omega;
}
// * * * * * * * * * * * * * * * * * * * * * * * * * * * * * * * * * * * * * //

dimensions      [0 0 -1 0 0 0 0];

internalField   nonuniform List<scalar> 
120
(
25.1683
25.1633
25.1666
25.1685
23.9723
23.9673
23.9702
23.972
22.9258
22.9206
22.9231
22.925
22.0124
22.0071
22.0092
22.011
21.2183
21.2128
21.2145
21.2164
20.5316
20.526
20.5273
20.5292
19.9424
19.9366
19.9375
19.9395
19.442
19.4361
19.4365
19.4386
19.0233
19.0172
19.0172
19.0194
18.6802
18.6739
18.6734
18.6757
18.4075
18.4011
18.4002
18.4026
18.2014
18.1947
18.1934
18.1959
18.0585
18.0517
18.0499
18.0524
17.9766
17.9697
17.9673
17.9699
17.9541
17.9471
17.9441
17.9467
25.1671
25.165
25.1647
25.1673
23.9707
23.9687
23.9686
23.9709
22.9237
22.9218
22.9218
22.924
22.0098
22.0081
22.0082
22.0102
21.2152
21.2136
21.2138
21.2156
20.5281
20.5267
20.5269
20.5286
19.9384
19.9371
19.9374
19.9389
19.4376
19.4365
19.4367
19.4382
19.0184
19.0174
19.0177
19.0191
18.6748
18.674
18.6743
18.6755
18.4017
18.4011
18.4014
18.4025
18.1951
18.1946
18.1949
18.196
18.0517
18.0515
18.0518
18.0528
17.9694
17.9694
17.9696
17.9705
17.9464
17.9467
17.9468
17.9476
)
;

boundaryField
{
    topWall
    {
        beta1           0.075;
        blended         0;
        type            omegaWallFunction;
        value           nonuniform List<scalar> 0();
    }
    botWall
    {
        beta1           0.075;
        blended         0;
        type            omegaWallFunction;
        value           nonuniform List<scalar> 0();
    }
    inlet
    {
        type            cyclic;
    }
    outlet
    {
        type            cyclic;
    }
    fixWall
    {
        type            empty;
    }
    procBoundary2to1
    {
        type            processor;
        value           nonuniform List<scalar> 8(26.5114 26.5065 26.5103 26.5122 26.5107 26.5084 26.508 26.5108);
    }
    procBoundary2to3
    {
        type            processor;
        value           nonuniform List<scalar> 8(17.915 17.9081 17.9043 17.9069 17.9069 17.9075 17.9076 17.9083);
    }
}


// ************************************************************************* //
