/*--------------------------------*- C++ -*----------------------------------*\
  =========                 |
  \\      /  F ield         | OpenFOAM: The Open Source CFD Toolbox
   \\    /   O peration     | Website:  https://openfoam.org
    \\  /    A nd           | Version:  dev
     \\/     M anipulation  |

   OpenFOAM for Windows 20.09 (v1)
   Built by CFD Support, www.cfdsupport.com (based on Symscape).
\*---------------------------------------------------------------------------*/
FoamFile
{
    version     2.0;
    format      ascii;
    class       volScalarField;
    location    "4";
    object      p;
}
// * * * * * * * * * * * * * * * * * * * * * * * * * * * * * * * * * * * * * //

dimensions      [1 -1 -2 0 0 0 0];

internalField   nonuniform List<scalar> 
120
(
-2.449
-2.50758
-2.56843
-2.63015
-2.53058
-2.59144
-2.65023
-2.71189
-2.61215
-2.67312
-2.73198
-2.79363
-2.69374
-2.75481
-2.81372
-2.87536
-2.77533
-2.83649
-2.89548
-2.9571
-2.85692
-2.91817
-2.97723
-3.03884
-2.93852
-2.99985
-3.05898
-3.12058
-3.02011
-3.08152
-3.14072
-3.20232
-3.10171
-3.1632
-3.22247
-3.28405
-3.18331
-3.24488
-3.30422
-3.36579
-3.26492
-3.32655
-3.38596
-3.44752
-3.34652
-3.40823
-3.46772
-3.52926
-3.42813
-3.4899
-3.54946
-3.61099
-3.50973
-3.57157
-3.63121
-3.69269
-3.5895
-3.65223
-3.71292
-3.77442
-2.69223
-2.75597
-2.81845
-2.88355
-2.77543
-2.83846
-2.90019
-2.96524
-2.8572
-2.9202
-2.98194
-3.04692
-2.93896
-3.00196
-3.06368
-3.12861
-3.02071
-3.08371
-3.14542
-3.21029
-3.10246
-3.16545
-3.22717
-3.29197
-3.18422
-3.2472
-3.30891
-3.37365
-3.26598
-3.32895
-3.39066
-3.45532
-3.34773
-3.41069
-3.47239
-3.537
-3.42949
-3.49243
-3.55413
-3.61867
-3.51124
-3.57419
-3.63587
-3.70034
-3.59299
-3.65594
-3.71761
-3.78202
-3.67475
-3.73769
-3.79936
-3.86368
-3.75651
-3.81941
-3.8811
-3.94535
-3.83722
-3.90104
-3.96199
-4.02526
)
;

boundaryField
{
    topWall
    {
        type            calculated;
        value           nonuniform List<scalar> 0();
    }
    botWall
    {
        type            calculated;
        value           nonuniform List<scalar> 0();
    }
    inlet
    {
        type            cyclic;
    }
    outlet
    {
        type            cyclic;
    }
    fixWall
    {
        type            empty;
    }
    procBoundary2to1
    {
        type            processor;
        value           nonuniform List<scalar> 8(-2.36695 -2.42637 -2.48642 -2.54722 -2.61153 -2.67461 -2.73529 -2.80103);
    }
    procBoundary2to3
    {
        type            processor;
        value           nonuniform List<scalar> 8(-3.67152 -3.73396 -3.79445 -3.8557 -3.91985 -3.9825 -4.04513 -4.10806);
    }
}


// ************************************************************************* //
