/*--------------------------------*- C++ -*----------------------------------*\
  =========                 |
  \\      /  F ield         | OpenFOAM: The Open Source CFD Toolbox
   \\    /   O peration     | Website:  https://openfoam.org
    \\  /    A nd           | Version:  dev
     \\/     M anipulation  |

   OpenFOAM for Windows 20.09 (v1)
   Built by CFD Support, www.cfdsupport.com (based on Symscape).
\*---------------------------------------------------------------------------*/
FoamFile
{
    version     2.0;
    format      ascii;
    class       volScalarField;
    location    "4";
    object      p_rgh;
}
// * * * * * * * * * * * * * * * * * * * * * * * * * * * * * * * * * * * * * //

dimensions      [1 -1 -2 0 0 0 0];

internalField   nonuniform List<scalar> 
120
(
0.0443843
-0.0141511
-0.0750254
-0.136777
0.0445454
-0.0163164
-0.0751007
-0.136762
0.0447211
-0.0162447
-0.0751005
-0.13675
0.0448821
-0.0161839
-0.0750937
-0.136739
0.0450438
-0.0161133
-0.0751051
-0.136727
0.0452029
-0.0160424
-0.0751038
-0.136715
0.0453592
-0.0159689
-0.0751002
-0.136702
0.0455174
-0.0158952
-0.0750983
-0.136689
0.0456653
-0.0158242
-0.0750974
-0.136678
0.0458125
-0.0157504
-0.0750954
-0.13666
0.0459576
-0.0156759
-0.075088
-0.136648
0.0461039
-0.0155997
-0.0750914
-0.136633
0.0462461
-0.0155219
-0.075088
-0.136614
0.0463946
-0.0154457
-0.0750843
-0.136567
0.0483021
-0.0144034
-0.0750156
-0.136487
-0.198822
-0.262619
-0.325068
-0.390147
-0.200305
-0.263337
-0.325067
-0.390111
-0.200324
-0.263327
-0.325061
-0.390047
-0.20033
-0.263333
-0.325056
-0.389988
-0.200335
-0.263332
-0.32505
-0.389917
-0.200338
-0.263329
-0.325047
-0.389845
-0.200346
-0.263326
-0.325039
-0.389771
-0.200351
-0.263322
-0.325031
-0.389695
-0.200357
-0.263319
-0.325019
-0.389621
-0.200362
-0.263309
-0.325006
-0.389545
-0.200365
-0.263313
-0.324998
-0.389468
-0.200363
-0.263311
-0.32499
-0.38939
-0.200374
-0.263311
-0.324982
-0.38931
-0.200383
-0.26329
-0.324972
-0.389228
-0.199384
-0.263167
-0.324149
-0.38745
)
;

boundaryField
{
    topWall
    {
        type            zeroGradient;
    }
    botWall
    {
        type            zeroGradient;
    }
    inlet
    {
        type            fixedJump;
        patchType       cyclic;
        jump            uniform -0.5;
        value           nonuniform List<scalar> 
15
(
0.0804262
0.0785831
0.0784681
0.0783569
0.0782446
0.0781339
0.0780223
0.0779111
0.0777943
0.0776791
0.0775634
0.0774471
0.0773373
0.0772172
0.0771189
)
;
    }
    outlet
    {
        type            fixedJump;
        patchType       cyclic;
        value           nonuniform List<scalar> 
15
(
-0.419574
-0.421417
-0.421532
-0.421643
-0.421755
-0.421866
-0.421978
-0.422089
-0.422206
-0.422321
-0.422437
-0.422553
-0.422663
-0.422783
-0.422881
)
;
    }
    fixWall
    {
        type            empty;
    }
    procBoundary2to1
    {
        type            processor;
        value           nonuniform List<scalar> 8(0.0446928 -0.0147008 -0.074756 -0.13563 -0.1999 -0.26299 -0.323623 -0.389353);
    }
    procBoundary2to3
    {
        type            processor;
        value           nonuniform List<scalar> 8(0.0480485 -0.0143808 -0.0747868 -0.135992 -0.200235 -0.262868 -0.325479 -0.388457);
    }
}


// ************************************************************************* //
