/*--------------------------------*- C++ -*----------------------------------*\
  =========                 |
  \\      /  F ield         | OpenFOAM: The Open Source CFD Toolbox
   \\    /   O peration     | Website:  https://openfoam.org
    \\  /    A nd           | Version:  dev
     \\/     M anipulation  |

   OpenFOAM for Windows 20.09 (v1)
   Built by CFD Support, www.cfdsupport.com (based on Symscape).
\*---------------------------------------------------------------------------*/
FoamFile
{
    version     2.0;
    format      ascii;
    class       surfaceScalarField;
    location    "4";
    object      phi;
}
// * * * * * * * * * * * * * * * * * * * * * * * * * * * * * * * * * * * * * //

dimensions      [0 3 -1 0 0 0 0];

internalField   nonuniform List<scalar> 
217
(
1.94925e-08
1.01507e-09
1.95044e-08
-1.47589e-09
1.95153e-08
5.96087e-11
6.7324e-10
1.95297e-08
1.95036e-08
1.04014e-09
1.95043e-08
-1.4766e-09
1.95175e-08
4.63951e-11
6.58317e-10
1.95325e-08
1.95145e-08
1.0667e-09
1.95092e-08
-1.47133e-09
1.95216e-08
3.39826e-11
6.42189e-10
1.95377e-08
1.95257e-08
1.09448e-09
1.95156e-08
-1.46123e-09
1.95269e-08
2.26349e-11
6.25559e-10
1.95435e-08
1.95394e-08
1.12286e-09
1.95255e-08
-1.4473e-09
1.95361e-08
1.2027e-11
6.08104e-10
1.95535e-08
1.95557e-08
1.1522e-09
1.95388e-08
-1.43049e-09
1.95489e-08
1.94294e-12
5.89985e-10
1.9567e-08
1.95769e-08
1.18201e-09
1.95573e-08
-1.41086e-09
1.95671e-08
-7.94355e-12
5.70881e-10
1.95862e-08
1.96041e-08
1.21251e-09
1.95823e-08
-1.38901e-09
1.95917e-08
-1.74479e-11
5.50635e-10
1.9612e-08
1.96402e-08
1.24341e-09
1.96159e-08
-1.36471e-09
1.96249e-08
-2.65281e-11
5.2895e-10
1.96466e-08
1.96871e-08
1.27452e-09
1.96603e-08
-1.33792e-09
1.96689e-08
-3.51691e-11
5.05632e-10
1.96923e-08
1.9749e-08
1.30536e-09
1.9719e-08
-1.30791e-09
1.97267e-08
-4.28413e-11
4.80295e-10
1.9752e-08
1.98289e-08
1.33545e-09
1.97954e-08
-1.27448e-09
1.98023e-08
-4.96974e-11
4.53145e-10
1.98295e-08
1.99325e-08
1.36383e-09
1.98948e-08
-1.23682e-09
1.99e-08
-5.48457e-11
4.23842e-10
1.99293e-08
2.00645e-08
1.38922e-09
2.00231e-08
-1.19538e-09
2.00261e-08
-5.78567e-11
3.93162e-10
2.00567e-08
2.02319e-08
2.01867e-08
2.01865e-08
2.02205e-08
1.95276e-08
4.56896e-10
1.95377e-08
-4.89009e-10
1.95544e-08
-9.26868e-10
6.84366e-10
1.9528e-08
4.61308e-10
1.95417e-08
-5.02695e-10
1.95616e-08
-9.4679e-10
7.17316e-10
1.95333e-08
4.65699e-10
1.95482e-08
-5.17502e-10
1.957e-08
-9.68624e-10
7.46262e-10
1.95394e-08
4.69791e-10
1.95561e-08
-5.34128e-10
1.95804e-08
-9.92916e-10
7.73178e-10
1.95499e-08
4.7337e-10
1.95678e-08
-5.51974e-10
1.95929e-08
-1.018e-09
7.98223e-10
1.95637e-08
4.76642e-10
1.95827e-08
-5.70892e-10
1.96091e-08
-1.0444e-09
8.22253e-10
1.95836e-08
4.79264e-10
1.9603e-08
-5.90276e-10
1.96298e-08
-1.07125e-09
8.45316e-10
1.961e-08
4.81272e-10
1.96297e-08
-6.10011e-10
1.96568e-08
-1.09835e-09
8.67457e-10
1.96456e-08
4.82252e-10
1.96651e-08
-6.29562e-10
1.9692e-08
-1.12519e-09
8.88334e-10
1.96923e-08
4.82192e-10
1.97115e-08
-6.48729e-10
1.97377e-08
-1.15143e-09
9.07775e-10
1.97537e-08
4.80434e-10
1.97719e-08
-6.66926e-10
1.97969e-08
-1.17643e-09
9.24827e-10
1.98329e-08
4.76975e-10
1.98499e-08
-6.83916e-10
1.98732e-08
-1.19983e-09
9.39111e-10
1.99353e-08
4.70942e-10
1.99505e-08
-6.99132e-10
1.99711e-08
-1.22042e-09
9.49358e-10
2.00648e-08
4.62896e-10
2.00787e-08
-7.13051e-10
2.00959e-08
-1.23759e-09
9.55351e-10
2.02286e-08
2.02415e-08
2.0255e-08
)
;

boundaryField
{
    topWall
    {
        type            calculated;
        value           nonuniform List<scalar> 0();
    }
    botWall
    {
        type            calculated;
        value           nonuniform List<scalar> 0();
    }
    inlet
    {
        type            cyclic;
        value           nonuniform List<scalar> 
15
(
-2.02523e-08
-2.00899e-08
-1.99608e-08
-1.9859e-08
-1.97799e-08
-1.97182e-08
-1.96711e-08
-1.96346e-08
-1.96067e-08
-1.9585e-08
-1.95678e-08
-1.95535e-08
-1.9541e-08
-1.95287e-08
-1.9516e-08
)
;
    }
    outlet
    {
        type            cyclic;
        value           nonuniform List<scalar> 
15
(
2.02523e-08
2.00899e-08
1.99608e-08
1.9859e-08
1.97799e-08
1.97182e-08
1.96711e-08
1.96346e-08
1.96067e-08
1.9585e-08
1.95678e-08
1.95535e-08
1.9541e-08
1.95287e-08
1.9516e-08
)
;
    }
    fixWall
    {
        type            empty;
        value           nonuniform List<scalar> 0();
    }
    procBoundary2to1
    {
        type            processor;
        value           nonuniform List<scalar> 8(-9.91622e-10 1.46534e-09 -6.95377e-11 -6.87945e-10 -4.55442e-10 4.79294e-10 9.11125e-10 -6.4741e-10);
    }
    procBoundary2to3
    {
        type            processor;
        value           nonuniform List<scalar> 8(1.40985e-09 -1.14779e-09 -5.95343e-11 3.61871e-10 4.55899e-10 -7.25115e-10 -1.25244e-09 9.56545e-10);
    }
}


// ************************************************************************* //
