/*--------------------------------*- C++ -*----------------------------------*\
  =========                 |
  \\      /  F ield         | OpenFOAM: The Open Source CFD Toolbox
   \\    /   O peration     | Website:  https://openfoam.org
    \\  /    A nd           | Version:  dev
     \\/     M anipulation  |

   OpenFOAM for Windows 20.09 (v1)
   Built by CFD Support, www.cfdsupport.com (based on Symscape).
\*---------------------------------------------------------------------------*/
FoamFile
{
    version     2.0;
    format      ascii;
    class       volSymmTensorField;
    location    "4";
    object      R;
}
// * * * * * * * * * * * * * * * * * * * * * * * * * * * * * * * * * * * * * //

dimensions      [0 2 -2 0 0 0 0];

internalField   nonuniform List<symmTensor> 
120
(
(1.48037e-16 -2.15768e-19 -0 1.48021e-16 -0 1.4803e-16)
(1.48026e-16 -6.14577e-20 -0 1.48033e-16 -0 1.48031e-16)
(1.48026e-16 -5.10176e-21 -0 1.48034e-16 -0 1.4803e-16)
(1.48025e-16 -7.63489e-20 -0 1.48035e-16 -0 1.4803e-16)
(1.4804e-16 -1.98211e-19 -0 1.48019e-16 -0 1.48031e-16)
(1.48028e-16 -7.12469e-20 -0 1.48032e-16 -0 1.48029e-16)
(1.48025e-16 -1.50017e-20 -0 1.48035e-16 -0 1.48029e-16)
(1.48023e-16 -6.39727e-20 -0 1.48037e-16 -0 1.48029e-16)
(1.4804e-16 -1.9441e-19 -0 1.48019e-16 -0 1.4803e-16)
(1.48032e-16 -1.02075e-19 -0 1.48026e-16 -0 1.48031e-16)
(1.48026e-16 -5.50627e-20 -0 1.48034e-16 -0 1.48029e-16)
(1.48023e-16 -8.34995e-20 -0 1.48037e-16 -0 1.4803e-16)
(1.48041e-16 -2.10001e-19 -0 1.48019e-16 -0 1.4803e-16)
(1.48033e-16 -1.39239e-19 -0 1.48027e-16 -0 1.48029e-16)
(1.48026e-16 -9.90002e-20 -0 1.48035e-16 -0 1.48029e-16)
(1.48022e-16 -1.18601e-19 -0 1.48038e-16 -0 1.48029e-16)
(1.48043e-16 -2.48663e-19 -0 1.48016e-16 -0 1.48031e-16)
(1.48036e-16 -1.91695e-19 -0 1.48024e-16 -0 1.4803e-16)
(1.48026e-16 -1.60719e-19 -0 1.48034e-16 -0 1.48029e-16)
(1.48021e-16 -1.78528e-19 -0 1.48039e-16 -0 1.48029e-16)
(1.48044e-16 -3.10716e-19 -0 1.48015e-16 -0 1.48031e-16)
(1.48038e-16 -2.60547e-19 -0 1.4802e-16 -0 1.48031e-16)
(1.48026e-16 -2.36613e-19 -0 1.48034e-16 -0 1.48029e-16)
(1.48021e-16 -2.54235e-19 -0 1.48038e-16 -0 1.4803e-16)
(1.48044e-16 -4.05115e-19 -0 1.48015e-16 -0 1.4803e-16)
(1.48039e-16 -3.59174e-19 -0 1.4802e-16 -0 1.4803e-16)
(1.48026e-16 -3.38011e-19 -0 1.48035e-16 -0 1.48029e-16)
(1.4802e-16 -3.56527e-19 -0 1.48041e-16 -0 1.48029e-16)
(1.48046e-16 -5.37554e-19 -0 1.48013e-16 -0 1.48031e-16)
(1.48041e-16 -4.91808e-19 -0 1.48018e-16 -0 1.48031e-16)
(1.48026e-16 -4.707e-19 -0 1.48034e-16 -0 1.48029e-16)
(1.4802e-16 -4.88583e-19 -0 1.48039e-16 -0 1.4803e-16)
(1.48045e-16 -7.15903e-19 -0 1.48014e-16 -0 1.4803e-16)
(1.48042e-16 -6.67726e-19 -0 1.48017e-16 -0 1.4803e-16)
(1.48026e-16 -6.43493e-19 -0 1.48035e-16 -0 1.48029e-16)
(1.48018e-16 -6.63056e-19 -0 1.48043e-16 -0 1.48029e-16)
(1.48047e-16 -9.53136e-19 -0 1.48012e-16 -0 1.48031e-16)
(1.48044e-16 -8.98331e-19 -0 1.48015e-16 -0 1.4803e-16)
(1.48027e-16 -8.66133e-19 -0 1.48033e-16 -0 1.4803e-16)
(1.48018e-16 -8.86095e-19 -0 1.48042e-16 -0 1.4803e-16)
(1.48046e-16 -1.25617e-18 -0 1.48013e-16 -0 1.4803e-16)
(1.48046e-16 -1.19455e-18 -0 1.48013e-16 -0 1.4803e-16)
(1.48026e-16 -1.15236e-18 -0 1.48035e-16 -0 1.48029e-16)
(1.48016e-16 -1.17375e-18 -0 1.48044e-16 -0 1.48029e-16)
(1.48046e-16 -1.63946e-18 -0 1.48013e-16 -0 1.4803e-16)
(1.48049e-16 -1.57171e-18 -0 1.48009e-16 -0 1.48031e-16)
(1.48027e-16 -1.51762e-18 -0 1.48032e-16 -0 1.4803e-16)
(1.48015e-16 -1.53683e-18 -0 1.48045e-16 -0 1.48029e-16)
(1.48044e-16 -2.11246e-18 -0 1.48016e-16 -0 1.48029e-16)
(1.48051e-16 -2.04823e-18 -0 1.48008e-16 -0 1.4803e-16)
(1.48027e-16 -1.98139e-18 -0 1.48033e-16 -0 1.48029e-16)
(1.48014e-16 -1.99244e-18 -0 1.48045e-16 -0 1.4803e-16)
(1.48045e-16 -2.68218e-18 -0 1.48013e-16 -0 1.48031e-16)
(1.48053e-16 -2.63462e-18 -0 1.48006e-16 -0 1.4803e-16)
(1.48029e-16 -2.56636e-18 -0 1.48031e-16 -0 1.48029e-16)
(1.48012e-16 -2.55422e-18 -0 1.4805e-16 -0 1.48028e-16)
(1.48042e-16 -3.37327e-18 -0 1.48016e-16 -0 1.48031e-16)
(1.48055e-16 -3.37998e-18 -0 1.48004e-16 -0 1.4803e-16)
(1.48031e-16 -3.30643e-18 -0 1.48028e-16 -0 1.4803e-16)
(1.48014e-16 -3.19136e-18 -0 1.48045e-16 -0 1.4803e-16)
(1.4803e-16 -4.72573e-20 -0 1.4803e-16 -0 1.48029e-16)
(1.48023e-16 -3.48088e-20 -0 1.48037e-16 -0 1.48029e-16)
(1.48023e-16 -3.59978e-20 -0 1.4804e-16 -0 1.48027e-16)
(1.48046e-16 -1.31352e-19 -0 1.48015e-16 -0 1.48029e-16)
(1.48031e-16 -3.73889e-20 -0 1.48028e-16 -0 1.4803e-16)
(1.48023e-16 -4.95602e-20 -0 1.48035e-16 -0 1.48031e-16)
(1.48023e-16 -7.57509e-20 -0 1.48037e-16 -0 1.48029e-16)
(1.48045e-16 -1.41266e-19 -0 1.48015e-16 -0 1.4803e-16)
(1.48032e-16 -6.8002e-20 -0 1.48027e-16 -0 1.4803e-16)
(1.48022e-16 -8.72094e-20 -0 1.48037e-16 -0 1.48031e-16)
(1.48022e-16 -1.1192e-19 -0 1.48038e-16 -0 1.48029e-16)
(1.48044e-16 -1.56143e-19 -0 1.48015e-16 -0 1.4803e-16)
(1.48032e-16 -1.08267e-19 -0 1.48027e-16 -0 1.4803e-16)
(1.4802e-16 -1.28354e-19 -0 1.48039e-16 -0 1.4803e-16)
(1.48019e-16 -1.54425e-19 -0 1.48042e-16 -0 1.48028e-16)
(1.48042e-16 -1.85178e-19 -0 1.48019e-16 -0 1.48028e-16)
(1.48032e-16 -1.72453e-19 -0 1.48027e-16 -0 1.48031e-16)
(1.4802e-16 -1.89436e-19 -0 1.48038e-16 -0 1.48031e-16)
(1.4802e-16 -2.09142e-19 -0 1.48039e-16 -0 1.4803e-16)
(1.48043e-16 -2.31193e-19 -0 1.48016e-16 -0 1.4803e-16)
(1.4803e-16 -2.52781e-19 -0 1.48029e-16 -0 1.4803e-16)
(1.48018e-16 -2.65873e-19 -0 1.48041e-16 -0 1.4803e-16)
(1.48017e-16 -2.81469e-19 -0 1.48043e-16 -0 1.48028e-16)
(1.48042e-16 -3.00769e-19 -0 1.48017e-16 -0 1.4803e-16)
(1.48031e-16 -3.62123e-19 -0 1.48028e-16 -0 1.4803e-16)
(1.48018e-16 -3.7331e-19 -0 1.48041e-16 -0 1.4803e-16)
(1.48017e-16 -3.79127e-19 -0 1.48043e-16 -0 1.48029e-16)
(1.48042e-16 -3.95201e-19 -0 1.48017e-16 -0 1.4803e-16)
(1.4803e-16 -5.01599e-19 -0 1.48029e-16 -0 1.4803e-16)
(1.48017e-16 -5.12758e-19 -0 1.48042e-16 -0 1.4803e-16)
(1.48017e-16 -5.07969e-19 -0 1.48043e-16 -0 1.48029e-16)
(1.48042e-16 -5.24492e-19 -0 1.48017e-16 -0 1.4803e-16)
(1.4803e-16 -6.83089e-19 -0 1.4803e-16 -0 1.4803e-16)
(1.48018e-16 -6.95709e-19 -0 1.48041e-16 -0 1.48031e-16)
(1.48017e-16 -6.77303e-19 -0 1.48044e-16 -0 1.48029e-16)
(1.48041e-16 -6.93145e-19 -0 1.48018e-16 -0 1.4803e-16)
(1.48029e-16 -9.14766e-19 -0 1.48029e-16 -0 1.4803e-16)
(1.48018e-16 -9.3164e-19 -0 1.48041e-16 -0 1.48031e-16)
(1.48017e-16 -8.9504e-19 -0 1.48043e-16 -0 1.48029e-16)
(1.48041e-16 -9.12847e-19 -0 1.48019e-16 -0 1.48029e-16)
(1.48027e-16 -1.20737e-18 -0 1.48032e-16 -0 1.4803e-16)
(1.48017e-16 -1.22931e-18 -0 1.48042e-16 -0 1.4803e-16)
(1.48017e-16 -1.1743e-18 -0 1.48044e-16 -0 1.48028e-16)
(1.4804e-16 -1.19261e-18 -0 1.4802e-16 -0 1.4803e-16)
(1.48027e-16 -1.57607e-18 -0 1.48033e-16 -0 1.4803e-16)
(1.48018e-16 -1.6084e-18 -0 1.4804e-16 -0 1.4803e-16)
(1.48018e-16 -1.52823e-18 -0 1.48043e-16 -0 1.48028e-16)
(1.48039e-16 -1.54466e-18 -0 1.48019e-16 -0 1.48031e-16)
(1.48025e-16 -2.02775e-18 -0 1.48034e-16 -0 1.4803e-16)
(1.48019e-16 -2.0751e-18 -0 1.4804e-16 -0 1.4803e-16)
(1.4802e-16 -1.9745e-18 -0 1.4804e-16 -0 1.48029e-16)
(1.48036e-16 -1.98137e-18 -0 1.48024e-16 -0 1.48029e-16)
(1.48024e-16 -2.58018e-18 -0 1.48034e-16 -0 1.48031e-16)
(1.4802e-16 -2.65698e-18 -0 1.48038e-16 -0 1.4803e-16)
(1.48021e-16 -2.52807e-18 -0 1.48041e-16 -0 1.48028e-16)
(1.48034e-16 -2.51284e-18 -0 1.48025e-16 -0 1.4803e-16)
(1.48023e-16 -3.19799e-18 -0 1.48036e-16 -0 1.48031e-16)
(1.48021e-16 -3.36413e-18 -0 1.48038e-16 -0 1.4803e-16)
(1.48026e-16 -3.18162e-18 -0 1.48034e-16 -0 1.4803e-16)
(1.4803e-16 -3.12735e-18 -0 1.4803e-16 -0 1.48029e-16)
)
;

boundaryField
{
    topWall
    {
        type            kqRWallFunction;
        value           nonuniform List<symmTensor> 0();
    }
    botWall
    {
        type            kqRWallFunction;
        value           nonuniform List<symmTensor> 0();
    }
    inlet
    {
        type            cyclic;
    }
    outlet
    {
        type            cyclic;
    }
    fixWall
    {
        type            empty;
    }
    procBoundary2to1
    {
        type            processor;
        value           nonuniform List<symmTensor> 8((1.48037e-16 -2.07035e-19 -0 1.4802e-16 -0 1.48032e-16) (1.48022e-16 -6.76711e-20 -0 1.48037e-16 -0 1.4803e-16) (1.48026e-16 8.11019e-22 -0 1.48033e-16 -0 1.4803e-16) (1.48025e-16 -7.53312e-20 -0 1.48034e-16 -0 1.48029e-16) (1.48029e-16 -5.29422e-20 -0 1.48031e-16 -0 1.48029e-16) (1.48023e-16 -4.63575e-20 -0 1.48036e-16 -0 1.4803e-16) (1.48027e-16 -4.08924e-20 -0 1.48033e-16 -0 1.4803e-16) (1.48051e-16 -1.10652e-19 -0 1.48006e-16 -0 1.48032e-16));
    }
    procBoundary2to3
    {
        type            processor;
        value           nonuniform List<symmTensor> 8((1.48034e-16 -4.21646e-18 -0 1.48025e-16 -0 1.4803e-16) (1.48054e-16 -4.21452e-18 -0 1.48006e-16 -0 1.48029e-16) (1.48034e-16 -4.10704e-18 -0 1.48027e-16 -0 1.48028e-16) (1.48015e-16 -3.97523e-18 -0 1.48046e-16 -0 1.48028e-16) (1.48019e-16 -3.99784e-18 -0 1.48039e-16 -0 1.48031e-16) (1.48022e-16 -4.18843e-18 -0 1.48035e-16 -0 1.48032e-16) (1.48031e-16 -3.98767e-18 -0 1.48028e-16 -0 1.4803e-16) (1.48024e-16 -3.93462e-18 -0 1.48039e-16 -0 1.48027e-16));
    }
}


// ************************************************************************* //
