/*--------------------------------*- C++ -*----------------------------------*\
  =========                 |
  \\      /  F ield         | OpenFOAM: The Open Source CFD Toolbox
   \\    /   O peration     | Website:  https://openfoam.org
    \\  /    A nd           | Version:  dev
     \\/     M anipulation  |

   OpenFOAM for Windows 20.09 (v1)
   Built by CFD Support, www.cfdsupport.com (based on Symscape).
\*---------------------------------------------------------------------------*/
FoamFile
{
    version     2.0;
    format      ascii;
    class       volVectorField;
    location    "4";
    object      U;
}
// * * * * * * * * * * * * * * * * * * * * * * * * * * * * * * * * * * * * * //

dimensions      [0 1 -1 0 0 0 0];

internalField   nonuniform List<vector> 
120
(
(0.0233819 2.01034e-05 0)
(0.0234075 -2.9259e-05 0)
(0.0234082 1.26439e-06 0)
(0.0234288 1.36625e-05 0)
(0.0234007 2.06371e-05 0)
(0.0234124 -2.95429e-05 0)
(0.023407 1.11618e-06 0)
(0.0234333 1.33955e-05 0)
(0.0234183 2.1206e-05 0)
(0.0234206 -2.9533e-05 0)
(0.0234102 6.69377e-07 0)
(0.0234401 1.30211e-05 0)
(0.0234349 2.16163e-05 0)
(0.0234303 -2.91807e-05 0)
(0.0234158 6.80515e-07 0)
(0.0234476 1.2765e-05 0)
(0.0234537 2.20743e-05 0)
(0.023444 -2.92957e-05 0)
(0.0234258 2.01186e-07 0)
(0.0234596 1.22544e-05 0)
(0.0234752 2.28142e-05 0)
(0.0234612 -2.86974e-05 0)
(0.0234407 2.77623e-07 0)
(0.0234758 1.20285e-05 0)
(0.0235024 2.33003e-05 0)
(0.0234845 -2.84851e-05 0)
(0.0234616 -1.87826e-07 0)
(0.0234986 1.1623e-05 0)
(0.0235366 2.39229e-05 0)
(0.0235153 -2.79749e-05 0)
(0.0234906 -1.52246e-07 0)
(0.023529 1.11431e-05 0)
(0.0235816 2.46129e-05 0)
(0.0235567 -2.755e-05 0)
(0.0235296 -5.08915e-07 0)
(0.0235697 1.09605e-05 0)
(0.0236396 2.50546e-05 0)
(0.023611 -2.7056e-05 0)
(0.0235818 -5.97098e-07 0)
(0.0236235 1.01274e-05 0)
(0.023716 2.59073e-05 0)
(0.023683 -2.65026e-05 0)
(0.0236504 -7.63396e-07 0)
(0.0236938 1.01035e-05 0)
(0.0238139 2.62404e-05 0)
(0.0237765 -2.58418e-05 0)
(0.0237403 -1.02566e-06 0)
(0.0237855 9.11555e-06 0)
(0.0239407 2.71023e-05 0)
(0.0238981 -2.49455e-05 0)
(0.0238571 -9.32673e-07 0)
(0.0239035 9.05617e-06 0)
(0.024101 2.709e-05 0)
(0.0240545 -2.43195e-05 0)
(0.0240082 -1.3507e-06 0)
(0.0240553 8.11405e-06 0)
(0.0243033 2.83199e-05 0)
(0.0242539 -2.33085e-05 0)
(0.0242027 -1.04377e-06 0)
(0.0242478 7.60515e-06 0)
(0.0234387 8.9702e-06 0)
(0.0234236 -9.82897e-06 0)
(0.0234777 -1.83057e-05 0)
(0.0234469 1.36173e-05 0)
(0.0234401 9.10738e-06 0)
(0.0234257 -9.93018e-06 0)
(0.0234829 -1.90524e-05 0)
(0.0234595 1.38045e-05 0)
(0.0234458 9.151e-06 0)
(0.023433 -1.0234e-05 0)
(0.0234909 -1.8944e-05 0)
(0.0234717 1.49404e-05 0)
(0.0234522 9.35688e-06 0)
(0.0234411 -1.04655e-05 0)
(0.0235017 -1.98062e-05 0)
(0.0234857 1.50754e-05 0)
(0.0234641 9.39998e-06 0)
(0.0234546 -1.09811e-05 0)
(0.023516 -2.00879e-05 0)
(0.0235016 1.57122e-05 0)
(0.0234801 9.62963e-06 0)
(0.0234718 -1.09814e-05 0)
(0.0235346 -2.05029e-05 0)
(0.0235218 1.62404e-05 0)
(0.0235034 9.41927e-06 0)
(0.0234961 -1.18565e-05 0)
(0.0235589 -2.12558e-05 0)
(0.0235472 1.66593e-05 0)
(0.0235347 9.76094e-06 0)
(0.0235282 -1.17405e-05 0)
(0.0235908 -2.16089e-05 0)
(0.0235802 1.71567e-05 0)
(0.023577 9.48782e-06 0)
(0.0235714 -1.268e-05 0)
(0.0236326 -2.23167e-05 0)
(0.023623 1.75565e-05 0)
(0.0236326 9.79604e-06 0)
(0.023628 -1.24835e-05 0)
(0.023687 -2.26978e-05 0)
(0.0236784 1.79752e-05 0)
(0.0237056 9.56935e-06 0)
(0.0237026 -1.33757e-05 0)
(0.0237575 -2.32559e-05 0)
(0.0237501 1.82658e-05 0)
(0.0237997 9.6202e-06 0)
(0.0237984 -1.33379e-05 0)
(0.0238487 -2.38257e-05 0)
(0.0238423 1.86719e-05 0)
(0.0239212 9.35696e-06 0)
(0.0239228 -1.40701e-05 0)
(0.0239657 -2.42831e-05 0)
(0.0239603 1.90882e-05 0)
(0.0240749 9.3407e-06 0)
(0.0240801 -1.39662e-05 0)
(0.0241157 -2.45907e-05 0)
(0.0241099 1.90272e-05 0)
(0.0242696 9.1056e-06 0)
(0.0242817 -1.46129e-05 0)
(0.0243061 -2.51533e-05 0)
(0.0242984 1.94255e-05 0)
)
;

boundaryField
{
    topWall
    {
        type            noSlip;
    }
    botWall
    {
        type            noSlip;
    }
    inlet
    {
        type            cyclic;
    }
    outlet
    {
        type            cyclic;
    }
    fixWall
    {
        type            empty;
    }
    procBoundary2to1
    {
        type            processor;
        value           nonuniform List<vector> 8((0.0233592 1.97697e-05 0) (0.0234005 -2.93286e-05 0) (0.0234067 1.50388e-06 0) (0.023419 1.38305e-05 0) (0.0234308 9.24876e-06 0) (0.0234186 -9.20922e-06 0) (0.0234765 -1.78371e-05 0) (0.0234353 1.24716e-05 0));
    }
    procBoundary2to3
    {
        type            processor;
        value           nonuniform List<vector> 8((0.0245563 2.81239e-05 0) (0.0245103 -2.25652e-05 0) (0.024453 -1.23579e-06 0) (0.024485 7.09512e-06 0) (0.024506 9.01228e-06 0) (0.0245338 -1.4499e-05 0) (0.0245437 -2.48581e-05 0) (0.0245303 1.8953e-05 0));
    }
}


// ************************************************************************* //
