/*--------------------------------*- C++ -*----------------------------------*\
  =========                 |
  \\      /  F ield         | OpenFOAM: The Open Source CFD Toolbox
   \\    /   O peration     | Website:  https://openfoam.org
    \\  /    A nd           | Version:  dev
     \\/     M anipulation  |

   OpenFOAM for Windows 20.09 (v1)
   Built by CFD Support, www.cfdsupport.com (based on Symscape).
\*---------------------------------------------------------------------------*/
FoamFile
{
    version     2.0;
    format      ascii;
    class       volVectorField;
    location    "4";
    object      UMean;
}
// * * * * * * * * * * * * * * * * * * * * * * * * * * * * * * * * * * * * * //

dimensions      [0 1 -1 0 0 0 0];

internalField   nonuniform List<vector> 
120
(
(0.0207283 9.9361e-06 0)
(0.0207499 -2.54892e-05 0)
(0.0207601 6.98262e-07 0)
(0.0207705 1.41919e-05 0)
(0.0207411 1.03125e-05 0)
(0.020752 -2.58892e-05 0)
(0.020758 5.26429e-07 0)
(0.0207732 1.40029e-05 0)
(0.020753 1.07002e-05 0)
(0.020757 -2.5835e-05 0)
(0.0207592 2.53758e-07 0)
(0.0207775 1.38201e-05 0)
(0.0207637 1.09634e-05 0)
(0.0207628 -2.58324e-05 0)
(0.0207624 1.30209e-07 0)
(0.0207824 1.36195e-05 0)
(0.020776 1.13181e-05 0)
(0.0207718 -2.59029e-05 0)
(0.0207689 -1.87784e-07 0)
(0.0207906 1.33119e-05 0)
(0.02079 1.18498e-05 0)
(0.0207831 -2.56532e-05 0)
(0.0207789 -2.30068e-07 0)
(0.0208017 1.31451e-05 0)
(0.0208082 1.21942e-05 0)
(0.020799 -2.55902e-05 0)
(0.0207935 -6.02864e-07 0)
(0.0208176 1.29108e-05 0)
(0.0208315 1.2734e-05 0)
(0.0208202 -2.54433e-05 0)
(0.0208138 -6.50777e-07 0)
(0.0208388 1.25326e-05 0)
(0.0208628 1.31326e-05 0)
(0.0208492 -2.5159e-05 0)
(0.0208416 -9.68301e-07 0)
(0.0208677 1.24875e-05 0)
(0.0209038 1.36375e-05 0)
(0.0208879 -2.51059e-05 0)
(0.0208789 -1.08333e-06 0)
(0.0209063 1.18275e-05 0)
(0.0209589 1.40885e-05 0)
(0.0209398 -2.46582e-05 0)
(0.0209287 -1.28645e-06 0)
(0.0209575 1.19183e-05 0)
(0.0210308 1.45456e-05 0)
(0.0210084 -2.45655e-05 0)
(0.0209945 -1.54421e-06 0)
(0.0210251 1.11335e-05 0)
(0.0211255 1.50545e-05 0)
(0.0210987 -2.39242e-05 0)
(0.0210809 -1.57283e-06 0)
(0.0211134 1.121e-05 0)
(0.0212474 1.51874e-05 0)
(0.0212167 -2.36582e-05 0)
(0.0211938 -1.90693e-06 0)
(0.0212282 1.04313e-05 0)
(0.0214042 1.60728e-05 0)
(0.0213693 -2.30769e-05 0)
(0.0213406 -1.84451e-06 0)
(0.021376 1.01219e-05 0)
(0.0207728 8.7468e-06 0)
(0.0207588 -5.20093e-06 0)
(0.0207903 -1.5451e-05 0)
(0.0207725 1.29547e-05 0)
(0.0207745 8.78271e-06 0)
(0.0207607 -5.23619e-06 0)
(0.0207942 -1.59616e-05 0)
(0.0207819 1.30154e-05 0)
(0.0207789 9.06186e-06 0)
(0.0207649 -5.38925e-06 0)
(0.0207992 -1.58207e-05 0)
(0.0207909 1.37858e-05 0)
(0.0207837 9.10183e-06 0)
(0.0207698 -5.48006e-06 0)
(0.0208065 -1.63924e-05 0)
(0.0208013 1.37691e-05 0)
(0.0207921 9.37071e-06 0)
(0.020778 -5.74712e-06 0)
(0.0208158 -1.65639e-05 0)
(0.0208126 1.41842e-05 0)
(0.0208033 9.50395e-06 0)
(0.0207892 -5.68041e-06 0)
(0.0208285 -1.68617e-05 0)
(0.0208269 1.44673e-05 0)
(0.0208197 9.58254e-06 0)
(0.0208054 -6.18849e-06 0)
(0.0208452 -1.73759e-05 0)
(0.0208446 1.47787e-05 0)
(0.0208417 9.81789e-06 0)
(0.0208275 -6.04292e-06 0)
(0.0208674 -1.76296e-05 0)
(0.0208678 1.50101e-05 0)
(0.0208717 9.83196e-06 0)
(0.0208579 -6.59061e-06 0)
(0.0208969 -1.81418e-05 0)
(0.0208981 1.53448e-05 0)
(0.0209115 1.00801e-05 0)
(0.0208982 -6.38461e-06 0)
(0.020936 -1.83975e-05 0)
(0.0209377 1.55053e-05 0)
(0.0209646 1.00678e-05 0)
(0.0209523 -6.91859e-06 0)
(0.0209874 -1.88205e-05 0)
(0.0209899 1.57829e-05 0)
(0.0210339 1.02215e-05 0)
(0.0210227 -6.79669e-06 0)
(0.0210549 -1.91979e-05 0)
(0.0210578 1.59533e-05 0)
(0.0211249 1.01735e-05 0)
(0.021116 -7.23221e-06 0)
(0.0211429 -1.95761e-05 0)
(0.0211461 1.63163e-05 0)
(0.021242 1.02028e-05 0)
(0.0212357 -7.10257e-06 0)
(0.0212571 -1.97431e-05 0)
(0.0212598 1.61895e-05 0)
(0.0213933 1.02494e-05 0)
(0.0213919 -7.37354e-06 0)
(0.0214043 -2.0185e-05 0)
(0.0214053 1.6468e-05 0)
)
;

boundaryField
{
    topWall
    {
        type            calculated;
        value           nonuniform List<vector> 0();
    }
    botWall
    {
        type            calculated;
        value           nonuniform List<vector> 0();
    }
    inlet
    {
        type            cyclic;
    }
    outlet
    {
        type            cyclic;
    }
    fixWall
    {
        type            empty;
    }
    procBoundary2to1
    {
        type            processor;
        value           nonuniform List<vector> 8((0.0207125 9.76462e-06 0) (0.0207462 -2.53356e-05 0) (0.020763 9.64194e-07 0) (0.0207659 1.42168e-05 0) (0.020767 8.76462e-06 0) (0.0207557 -4.84953e-06 0) (0.0207895 -1.51698e-05 0) (0.0207642 1.21127e-05 0));
    }
    procBoundary2to3
    {
        type            processor;
        value           nonuniform List<vector> 8((0.0216035 1.59494e-05 0) (0.0215678 -2.24154e-05 0) (0.0215316 -1.98074e-06 0) (0.0215611 9.60705e-06 0) (0.0215794 1.01214e-05 0) (0.0215885 -7.25502e-06 0) (0.0215904 -1.99261e-05 0) (0.0215878 1.6078e-05 0));
    }
}


// ************************************************************************* //
