/*--------------------------------*- C++ -*----------------------------------*\
  =========                 |
  \\      /  F ield         | OpenFOAM: The Open Source CFD Toolbox
   \\    /   O peration     | Website:  https://openfoam.org
    \\  /    A nd           | Version:  dev
     \\/     M anipulation  |

   OpenFOAM for Windows 20.09 (v1)
   Built by CFD Support, www.cfdsupport.com (based on Symscape).
\*---------------------------------------------------------------------------*/
FoamFile
{
    version     2.0;
    format      ascii;
    class       volSymmTensorField;
    location    "4";
    object      UPrime2Mean;
}
// * * * * * * * * * * * * * * * * * * * * * * * * * * * * * * * * * * * * * //

dimensions      [0 2 -2 0 0 0 0];

internalField   nonuniform List<symmTensor> 
120
(
(1.08666e-05 4.16355e-08 0 1.59527e-10 0 0)
(1.08994e-05 -1.54608e-08 0 2.19311e-11 0 0)
(1.08215e-05 2.3135e-09 0 4.94597e-13 0 0)
(1.0905e-05 -2.17197e-09 0 4.32594e-13 0 0)
(1.09158e-05 4.23754e-08 0 1.64502e-10 0 0)
(1.09222e-05 -1.50003e-08 0 2.06011e-11 0 0)
(1.08288e-05 2.41084e-09 0 5.36733e-13 0 0)
(1.09207e-05 -2.49383e-09 0 5.69488e-13 0 0)
(1.0963e-05 4.32122e-08 0 1.70327e-10 0 0)
(1.09487e-05 -1.52007e-08 0 2.1104e-11 0 0)
(1.08452e-05 1.70031e-09 0 2.66575e-13 0 0)
(1.09409e-05 -3.28304e-09 0 9.85141e-13 0 0)
(1.10112e-05 4.39137e-08 0 1.75132e-10 0 0)
(1.09808e-05 -1.37835e-08 0 1.73015e-11 0 0)
(1.0865e-05 2.25337e-09 0 4.67343e-13 0 0)
(1.09616e-05 -3.51428e-09 0 1.12668e-12 0 0)
(1.10652e-05 4.44482e-08 0 1.78546e-10 0 0)
(1.10192e-05 -1.39907e-08 0 1.77636e-11 0 0)
(1.08937e-05 1.59484e-09 0 2.33485e-13 0 0)
(1.09934e-05 -4.35591e-09 0 1.72594e-12 0 0)
(1.11269e-05 4.54345e-08 0 1.85523e-10 0 0)
(1.1068e-05 -1.25812e-08 0 1.43013e-11 0 0)
(1.09333e-05 2.0854e-09 0 3.97764e-13 0 0)
(1.10355e-05 -4.6077e-09 0 1.92387e-12 0 0)
(1.12015e-05 4.61758e-08 0 1.90351e-10 0 0)
(1.11293e-05 -1.19974e-08 0 1.29333e-11 0 0)
(1.09858e-05 1.7089e-09 0 2.65829e-13 0 0)
(1.10928e-05 -5.32814e-09 0 2.55924e-12 0 0)
(1.12927e-05 4.67087e-08 0 1.93196e-10 0 0)
(1.12091e-05 -1.05291e-08 0 9.89046e-12 0 0)
(1.10573e-05 2.05935e-09 0 3.83541e-13 0 0)
(1.11686e-05 -5.76845e-09 0 2.97932e-12 0 0)
(1.14074e-05 4.81684e-08 0 2.03393e-10 0 0)
(1.1312e-05 -9.98992e-09 0 8.82237e-12 0 0)
(1.1151e-05 1.90567e-09 0 3.25674e-13 0 0)
(1.1267e-05 -6.36712e-09 0 3.59814e-12 0 0)
(1.15501e-05 4.82013e-08 0 2.01156e-10 0 0)
(1.14435e-05 -8.19505e-09 0 5.86871e-12 0 0)
(1.12739e-05 2.02814e-09 0 3.64856e-13 0 0)
(1.13944e-05 -7.12921e-09 0 4.4606e-12 0 0)
(1.17309e-05 5.02866e-08 0 2.15563e-10 0 0)
(1.16125e-05 -7.80764e-09 0 5.24945e-12 0 0)
(1.14319e-05 2.19693e-09 0 4.22195e-13 0 0)
(1.15546e-05 -7.66362e-09 0 5.08293e-12 0 0)
(1.19534e-05 5.02287e-08 0 2.11064e-10 0 0)
(1.18247e-05 -5.45217e-09 0 2.51391e-12 0 0)
(1.16354e-05 2.19734e-09 0 4.14967e-13 0 0)
(1.17589e-05 -8.59625e-09 0 6.2842e-12 0 0)
(1.22309e-05 5.23419e-08 0 2.23997e-10 0 0)
(1.20936e-05 -4.41187e-09 0 1.60949e-12 0 0)
(1.18941e-05 2.74261e-09 0 6.32409e-13 0 0)
(1.20136e-05 -9.27403e-09 0 7.15916e-12 0 0)
(1.25662e-05 5.24151e-08 0 2.1863e-10 0 0)
(1.24276e-05 -2.89586e-09 0 6.74792e-13 0 0)
(1.22234e-05 2.41581e-09 0 4.77457e-13 0 0)
(1.23339e-05 -1.01098e-08 0 8.28677e-12 0 0)
(1.29706e-05 5.47933e-08 0 2.31471e-10 0 0)
(1.28415e-05 -1.03121e-09 0 8.28085e-14 0 0)
(1.26412e-05 3.53674e-09 0 9.89502e-13 0 0)
(1.2728e-05 -1.11539e-08 0 9.77453e-12 0 0)
(1.09672e-05 9.19047e-10 0 7.70155e-14 0 0)
(1.09582e-05 -1.90318e-08 0 3.30537e-11 0 0)
(1.1145e-05 -1.18391e-08 0 1.25764e-11 0 0)
(1.10377e-05 2.73463e-09 0 6.77513e-13 0 0)
(1.09658e-05 1.33561e-09 0 1.62675e-13 0 0)
(1.09598e-05 -1.93044e-08 0 3.40026e-11 0 0)
(1.11561e-05 -1.28246e-08 0 1.47427e-11 0 0)
(1.10639e-05 3.26059e-09 0 9.6091e-13 0 0)
(1.09759e-05 3.66845e-10 0 1.2261e-14 0 0)
(1.09856e-05 -1.99477e-08 0 3.62211e-11 0 0)
(1.11816e-05 -1.29739e-08 0 1.50535e-11 0 0)
(1.10904e-05 4.7766e-09 0 2.05726e-12 0 0)
(1.09894e-05 1.0503e-09 0 1.00382e-13 0 0)
(1.10124e-05 -2.05521e-08 0 3.83559e-11 0 0)
(1.12101e-05 -1.4199e-08 0 1.79849e-11 0 0)
(1.11207e-05 5.41187e-09 0 2.63368e-12 0 0)
(1.10175e-05 1.20677e-10 0 1.32181e-15 0 0)
(1.10562e-05 -2.16196e-08 0 4.22753e-11 0 0)
(1.12515e-05 -1.46844e-08 0 1.91647e-11 0 0)
(1.11587e-05 6.34067e-09 0 3.60293e-12 0 0)
(1.10569e-05 5.19179e-10 0 2.43781e-14 0 0)
(1.11057e-05 -2.19454e-08 0 4.33653e-11 0 0)
(1.13004e-05 -1.52055e-08 0 2.046e-11 0 0)
(1.12078e-05 7.37389e-09 0 4.85146e-12 0 0)
(1.11145e-05 -6.76187e-10 0 4.11379e-14 0 0)
(1.11726e-05 -2.35353e-08 0 4.95775e-11 0 0)
(1.13651e-05 -1.62488e-08 0 2.32311e-11 0 0)
(1.12715e-05 7.84328e-09 0 5.45775e-12 0 0)
(1.11918e-05 -2.36686e-10 0 5.00546e-15 0 0)
(1.12555e-05 -2.37457e-08 0 5.00963e-11 0 0)
(1.14459e-05 -1.67241e-08 0 2.44365e-11 0 0)
(1.13536e-05 8.98497e-09 0 7.11049e-12 0 0)
(1.12942e-05 -1.43673e-09 0 1.82767e-13 0 0)
(1.13632e-05 -2.54999e-08 0 5.72233e-11 0 0)
(1.15492e-05 -1.76255e-08 0 2.68987e-11 0 0)
(1.14585e-05 9.30079e-09 0 7.54937e-12 0 0)
(1.14265e-05 -1.1927e-09 0 1.24495e-13 0 0)
(1.14995e-05 -2.56924e-08 0 5.74025e-11 0 0)
(1.16792e-05 -1.82564e-08 0 2.85375e-11 0 0)
(1.15912e-05 1.04459e-08 0 9.41374e-12 0 0)
(1.15943e-05 -2.10822e-09 0 3.83342e-13 0 0)
(1.16728e-05 -2.74057e-08 0 6.43439e-11 0 0)
(1.18419e-05 -1.89607e-08 0 3.03591e-11 0 0)
(1.17579e-05 1.05763e-08 0 9.51354e-12 0 0)
(1.18053e-05 -2.56672e-09 0 5.58056e-13 0 0)
(1.18889e-05 -2.80182e-08 0 6.60295e-11 0 0)
(1.20453e-05 -1.99521e-08 0 3.30492e-11 0 0)
(1.19655e-05 1.16825e-08 0 1.14062e-11 0 0)
(1.20665e-05 -3.5236e-09 0 1.02894e-12 0 0)
(1.21578e-05 -2.96184e-08 0 7.21554e-11 0 0)
(1.22966e-05 -2.05046e-08 0 3.41914e-11 0 0)
(1.22216e-05 1.20381e-08 0 1.18573e-11 0 0)
(1.23845e-05 -3.76892e-09 0 1.14698e-12 0 0)
(1.24856e-05 -3.01283e-08 0 7.27008e-11 0 0)
(1.26101e-05 -2.13845e-08 0 3.62643e-11 0 0)
(1.25361e-05 1.24814e-08 0 1.2427e-11 0 0)
(1.2767e-05 -5.07707e-09 0 2.01901e-12 0 0)
(1.28875e-05 -3.22846e-08 0 8.08765e-11 0 0)
(1.29948e-05 -2.22486e-08 0 3.80923e-11 0 0)
(1.29161e-05 1.32041e-08 0 1.34986e-11 0 0)
)
;

boundaryField
{
    topWall
    {
        type            calculated;
        value           nonuniform List<symmTensor> 0();
    }
    botWall
    {
        type            calculated;
        value           nonuniform List<symmTensor> 0();
    }
    inlet
    {
        type            cyclic;
    }
    outlet
    {
        type            cyclic;
    }
    fixWall
    {
        type            empty;
    }
    procBoundary2to1
    {
        type            processor;
        value           nonuniform List<symmTensor> 8((1.08104e-05 4.08651e-08 0 1.54478e-10 0 0) (1.0872e-05 -1.63557e-08 0 2.46052e-11 0 0) (1.0786e-05 2.20186e-09 0 4.49486e-13 0 0) (1.08628e-05 -1.58173e-09 0 2.30317e-13 0 0) (1.09508e-05 1.99025e-09 0 3.61719e-13 0 0) (1.09431e-05 -1.7916e-08 0 2.93318e-11 0 0) (1.11414e-05 -1.10601e-08 0 1.09793e-11 0 0) (1.10104e-05 1.47943e-09 0 1.98785e-13 0 0));
    }
    procBoundary2to3
    {
        type            processor;
        value           nonuniform List<symmTensor> 8((1.34547e-05 5.54757e-08 0 2.28734e-10 0 0) (1.33616e-05 -6.80136e-10 0 3.46203e-14 0 0) (1.31706e-05 3.3585e-09 0 8.56419e-13 0 0) (1.31936e-05 -1.13345e-08 0 9.73731e-12 0 0) (1.32177e-05 -5.00929e-09 0 1.89844e-12 0 0) (1.33869e-05 -3.29256e-08 0 8.09816e-11 0 0) (1.346e-05 -2.24779e-08 0 3.75377e-11 0 0) (1.33619e-05 1.30552e-08 0 1.27556e-11 0 0));
    }
}


// ************************************************************************* //
