/*--------------------------------*- C++ -*----------------------------------*\
  =========                 |
  \\      /  F ield         | OpenFOAM: The Open Source CFD Toolbox
   \\    /   O peration     | Website:  https://openfoam.org
    \\  /    A nd           | Version:  dev
     \\/     M anipulation  |

   OpenFOAM for Windows 20.09 (v1)
   Built by CFD Support, www.cfdsupport.com (based on Symscape).
\*---------------------------------------------------------------------------*/
FoamFile
{
    version     2.0;
    format      ascii;
    class       volVectorField;
    location    "0";
    object      gradp;
}
// * * * * * * * * * * * * * * * * * * * * * * * * * * * * * * * * * * * * * //

dimensions      [1 -2 -2 0 0 0 0];

internalField   nonuniform List<vector> 
120
(
(6.93889e-17 -98.1 0)
(4.4081e-32 -98.1 0)
(-6.93889e-17 -98.1 0)
(6.93889e-17 -98.1 0)
(0 -98.1 0)
(-3.17637e-16 -98.1 0)
(0 -98.1 0)
(0 -98.1 0)
(0 -98.1 0)
(0 -98.1 0)
(0 -98.1 0)
(0 -98.1 0)
(-6.35275e-16 -98.1 0)
(0 -98.1 0)
(1.27055e-15 -98.1 0)
(0 -98.1 0)
(0 -98.1 0)
(-1.27055e-15 -98.1 0)
(0 -98.1 0)
(0 -98.1 0)
(1.27055e-15 -98.1 0)
(0 -98.1 0)
(0 -98.1 0)
(0 -98.1 0)
(3.81165e-15 -98.1 0)
(-1.27055e-15 -98.1 0)
(-1.27055e-15 -98.1 0)
(-2.5411e-15 -98.1 0)
(-2.5411e-15 -98.1 0)
(0 -98.1 0)
(2.5411e-15 -98.1 0)
(0 -98.1 0)
(0 -98.1 0)
(2.5411e-15 -98.1 0)
(-2.5411e-15 -98.1 0)
(0 -98.1 0)
(2.5411e-15 -98.1 0)
(0 -98.1 0)
(0 -98.1 0)
(0 -98.1 0)
(0 -98.1 0)
(2.5411e-15 -98.1 0)
(0 -98.1 0)
(-2.5411e-15 -98.1 0)
(2.5411e-15 -98.1 0)
(0 -98.1 0)
(-5.0822e-15 -98.1 0)
(-5.0822e-15 -98.1 0)
(0 -98.1 0)
(-2.5411e-15 -98.1 0)
(-2.5411e-15 -98.1 0)
(0 -98.1 0)
(-2.5411e-15 -98.1 0)
(0 -98.1 0)
(0 -98.1 0)
(0 -98.1 0)
(-5.0822e-15 -98.1 0)
(0 -98.1 0)
(0 -98.1 0)
(0 -98.1 0)
(6.93889e-17 -98.1 0)
(0 -98.1 0)
(-6.93889e-17 -98.1 0)
(-6.93889e-17 -98.1 0)
(-3.17637e-16 -98.1 0)
(0 -98.1 0)
(0 -98.1 0)
(6.35275e-16 -98.1 0)
(0 -98.1 0)
(0 -98.1 0)
(0 -98.1 0)
(0 -98.1 0)
(-6.35275e-16 -98.1 0)
(-6.35275e-16 -98.1 0)
(0 -98.1 0)
(6.35275e-16 -98.1 0)
(-1.27055e-15 -98.1 0)
(0 -98.1 0)
(1.27055e-15 -98.1 0)
(1.27055e-15 -98.1 0)
(-1.27055e-15 -98.1 0)
(0 -98.1 0)
(0 -98.1 0)
(0 -98.1 0)
(0 -98.1 0)
(3.81165e-15 -98.1 0)
(-2.5411e-15 -98.1 0)
(0 -98.1 0)
(0 -98.1 0)
(0 -98.1 0)
(0 -98.1 0)
(0 -98.1 0)
(0 -98.1 0)
(2.5411e-15 -98.1 0)
(0 -98.1 0)
(-2.5411e-15 -98.1 0)
(0 -98.1 0)
(0 -98.1 0)
(0 -98.1 0)
(0 -98.1 0)
(0 -98.1 0)
(2.5411e-15 -98.1 0)
(0 -98.1 0)
(-2.5411e-15 -98.1 0)
(0 -98.1 0)
(0 -98.1 0)
(5.0822e-15 -98.1 0)
(5.0822e-15 -98.1 0)
(2.5411e-15 -98.1 0)
(0 -98.1 0)
(0 -98.1 0)
(2.5411e-15 -98.1 0)
(0 -98.1 0)
(0 -98.1 0)
(0 -98.1 0)
(0 -98.1 0)
(0 -98.1 0)
(0 -98.1 0)
(5.0822e-15 -98.1 0)
(0 -98.1 0)
)
;

boundaryField
{
    topWall
    {
        type            extrapolatedCalculated;
        value           nonuniform List<vector> 0();
    }
    botWall
    {
        type            extrapolatedCalculated;
        value           nonuniform List<vector> 8((6.93889e-17 -98.1 0) (4.4081e-32 -98.1 0) (-6.93889e-17 -98.1 0) (6.93889e-17 -98.1 0) (6.93889e-17 -98.1 0) (0 -98.1 0) (-6.93889e-17 -98.1 0) (-6.93889e-17 -98.1 0));
    }
    inlet
    {
        type            cyclic;
    }
    outlet
    {
        type            cyclic;
    }
    fixWall
    {
        type            empty;
    }
    procBoundary0to1
    {
        type            processor;
        value           nonuniform List<vector> 8((0 -98.1 0) (0 -98.1 0) (0 -98.1 0) (0 -98.1 0) (0 -98.1 0) (0 -98.1 0) (0 -98.1 0) (0 -98.1 0));
    }
}


// ************************************************************************* //
