/*--------------------------------*- C++ -*----------------------------------*\
  =========                 |
  \\      /  F ield         | OpenFOAM: The Open Source CFD Toolbox
   \\    /   O peration     | Website:  https://openfoam.org
    \\  /    A nd           | Version:  dev
     \\/     M anipulation  |

   OpenFOAM for Windows 20.09 (v1)
   Built by CFD Support, www.cfdsupport.com (based on Symscape).
\*---------------------------------------------------------------------------*/
FoamFile
{
    version     2.0;
    format      ascii;
    class       surfaceScalarField;
    location    "6";
    object      alphaPhi0.water;
}
// * * * * * * * * * * * * * * * * * * * * * * * * * * * * * * * * * * * * * //

dimensions      [0 3 -1 0 0 0 0];

internalField   nonuniform List<scalar> 
217
(
1.13239e-09
-5.54663e-14
1.48119e-09
7.94407e-14
1.44897e-09
-2.93823e-14
-7.38116e-14
1.04207e-09
2.24682e-12
-1.09681e-16
1.22412e-12
4.08499e-18
1.47723e-12
-1.38901e-16
-2.15439e-16
2.24093e-12
1.10443e-14
-8.22787e-20
5.91234e-15
1.54014e-19
4.89403e-15
-1.00631e-18
-9.53723e-19
6.51836e-15
5.06031e-17
1.62099e-22
4.15156e-17
1.0245e-21
2.93253e-17
-5.05606e-21
-4.10557e-21
2.54574e-17
1.78214e-19
1.86148e-24
1.80564e-19
5.30708e-24
1.50833e-19
-1.60583e-23
-1.27969e-23
1.14264e-19
6.79136e-22
9.04723e-27
7.40299e-22
1.88209e-26
6.73644e-22
-6.85647e-26
-5.62784e-26
5.32843e-22
2.72273e-24
3.70988e-29
3.12265e-24
6.8507e-29
3.01828e-24
-2.89362e-28
-2.42791e-28
2.54286e-24
1.1663e-26
1.40494e-31
1.36316e-26
2.47385e-31
1.33519e-26
-1.20977e-30
-1.02803e-30
1.17424e-26
5.23371e-29
4.87344e-34
6.05136e-29
9.03672e-34
5.90296e-29
-5.09934e-33
-4.32713e-33
5.3184e-29
2.37305e-31
1.35446e-36
2.68961e-31
3.22199e-36
2.63386e-31
-2.15666e-35
-1.81986e-35
2.40235e-31
1.08233e-33
2.05514e-39
1.1963e-33
1.15218e-38
1.1821e-33
-9.18682e-38
-7.55518e-38
1.09242e-33
4.98973e-36
-8.75721e-42
5.3541e-36
4.14318e-41
5.30803e-36
-3.93103e-40
-3.10857e-40
4.9087e-36
2.32203e-38
-1.08052e-43
2.4349e-38
1.51334e-43
2.38403e-38
-1.68669e-42
-1.26037e-42
2.18586e-38
1.06674e-40
-6.89805e-46
1.10342e-40
5.65194e-46
1.06297e-40
-7.17971e-45
-5.02811e-45
9.6176e-41
4.79074e-43
4.90226e-43
4.65836e-43
4.15978e-43
1.20073e-09
3.51603e-13
1.01243e-09
-2.85616e-14
1.30024e-09
3.62051e-13
6.68275e-13
2.9298e-12
5.39258e-17
2.29081e-12
-8.56224e-17
2.60359e-12
4.80286e-17
1.20407e-16
9.32746e-15
1.52234e-19
9.59826e-15
-2.14369e-19
1.12082e-14
2.90719e-19
3.90077e-19
3.07287e-17
5.41235e-22
3.11524e-17
-5.62261e-22
4.0114e-17
2.89577e-20
1.57977e-20
1.07788e-19
3.91584e-24
9.99797e-20
-1.34499e-24
1.37088e-19
8.69088e-23
1.08291e-22
4.51952e-22
1.91372e-26
3.95208e-22
-5.81704e-27
4.80745e-22
2.13332e-26
3.85712e-25
2.17823e-24
9.60022e-29
1.88269e-24
-2.7299e-29
1.86397e-24
7.52226e-29
1.22152e-27
1.04068e-26
4.41976e-31
9.20281e-27
-1.3317e-31
8.15768e-27
9.62533e-31
3.92596e-30
4.83087e-29
2.00782e-33
4.3849e-29
-6.71353e-34
3.76586e-29
1.79136e-33
1.50661e-32
2.21597e-31
9.20443e-36
2.05406e-31
-3.5077e-36
1.74041e-31
7.91562e-36
7.25667e-35
1.01539e-33
4.26376e-38
9.57309e-34
-1.83583e-38
8.21382e-34
3.49996e-38
4.00167e-37
4.61762e-36
1.95146e-40
4.4136e-36
-9.50494e-41
3.87299e-36
1.51001e-40
2.35245e-39
2.07135e-38
8.81122e-43
2.00054e-38
-4.79095e-43
1.79632e-38
6.33808e-43
1.36138e-41
9.12137e-41
3.87589e-45
8.88601e-41
-2.34088e-45
8.04488e-41
2.5791e-45
7.73024e-44
4.11488e-43
3.845e-43
3.48727e-43
)
;

boundaryField
{
    topWall
    {
        type            calculated;
        value           nonuniform List<scalar> 0();
    }
    botWall
    {
        type            calculated;
        value           nonuniform List<scalar> 0();
    }
    inlet
    {
        type            cyclic;
        value           nonuniform List<scalar> 
15
(
-3.60377e-12
-1.36071e-09
-1.34177e-14
-5.01746e-17
-1.64161e-19
-5.89009e-22
-2.24942e-24
-9.21004e-27
-4.02235e-29
-1.86675e-31
-8.95938e-34
-4.28074e-36
-2.03439e-38
-9.41607e-41
-4.25473e-43
)
;
    }
    outlet
    {
        type            cyclic;
        value           nonuniform List<scalar> 
15
(
3.60377e-12
1.36071e-09
1.34177e-14
5.01746e-17
1.64161e-19
5.89009e-22
2.24942e-24
9.21004e-27
4.02235e-29
1.86675e-31
8.95938e-34
4.28074e-36
2.03439e-38
9.41607e-41
4.25473e-43
)
;
    }
    fixWall
    {
        type            empty;
        value           nonuniform List<scalar> 0();
    }
    procBoundary4to3
    {
        type            processor;
        value           nonuniform List<scalar> 8(2.72729e-11 -9.50406e-11 3.73812e-11 4.7674e-11 -6.2203e-10 1.35807e-11 -5.87359e-10 -8.90038e-10);
    }
    procBoundary4to5
    {
        type            processor;
        value           nonuniform List<scalar> 8(-2.44519e-49 1.13259e-48 -2.34047e-48 -1.67176e-48 8.85547e-46 -5.64358e-48 7.18802e-46 1.30696e-45);
    }
}


// ************************************************************************* //
