/*--------------------------------*- C++ -*----------------------------------*\
  =========                 |
  \\      /  F ield         | OpenFOAM: The Open Source CFD Toolbox
   \\    /   O peration     | Website:  https://openfoam.org
    \\  /    A nd           | Version:  dev
     \\/     M anipulation  |

   OpenFOAM for Windows 20.09 (v1)
   Built by CFD Support, www.cfdsupport.com (based on Symscape).
\*---------------------------------------------------------------------------*/
FoamFile
{
    version     2.0;
    format      ascii;
    class       volSymmTensorField;
    location    "6";
    object      devReff;
}
// * * * * * * * * * * * * * * * * * * * * * * * * * * * * * * * * * * * * * //

dimensions      [0 2 -2 0 0 0 0];

internalField   nonuniform List<symmTensor> 
120
(
(3.06933e-07 -0.00411844 -0 -8.66443e-07 -0 5.59509e-07)
(1.50362e-06 -0.00403583 -0 -3.07957e-06 -0 1.57595e-06)
(7.10903e-07 -0.00404293 -0 -1.21966e-06 -0 5.08761e-07)
(7.44791e-07 -0.00414934 -0 -1.16931e-06 -0 4.24519e-07)
(1.37502e-06 -0.00674087 -0 -1.71176e-06 -0 3.36745e-07)
(5.45733e-07 -0.00668365 -0 1.14751e-06 -0 -1.69324e-06)
(-3.85368e-06 -0.00669222 -0 4.38886e-06 -0 -5.35176e-07)
(-2.65374e-06 -0.00677708 -0 3.45789e-06 -0 -8.04154e-07)
(6.02098e-07 -0.00631875 -0 1.58017e-07 -0 -7.60115e-07)
(1.38444e-06 -0.0063556 -0 -1.22248e-06 -0 -1.61966e-07)
(-2.93369e-06 -0.00635955 -0 2.95564e-06 -0 -2.19553e-08)
(-1.42114e-06 -0.00632905 -0 1.11143e-06 -0 3.09714e-07)
(1.42586e-06 -0.00561194 -0 -1.56996e-06 -0 1.441e-07)
(2.15042e-06 -0.00564944 -0 -3.42097e-06 -0 1.27055e-06)
(-1.71247e-06 -0.00565031 -0 9.95906e-07 -0 7.16565e-07)
(-8.49523e-07 -0.00561846 -0 2.78854e-07 -0 5.70668e-07)
(1.20343e-06 -0.00496481 -0 -1.38899e-06 -0 1.85559e-07)
(-8.92474e-07 -0.00499628 -0 2.04842e-06 -0 -1.15595e-06)
(-2.63587e-06 -0.0049938 -0 3.39477e-06 -0 -7.58902e-07)
(-1.80663e-06 -0.00496326 -0 2.54261e-06 -0 -7.35983e-07)
(3.86288e-07 -0.00437113 -0 -1.35332e-07 -0 -2.50956e-07)
(2.3874e-07 -0.00439621 -0 -5.667e-07 -0 3.2796e-07)
(-1.02795e-06 -0.00439095 -0 7.32301e-07 -0 2.95647e-07)
(-2.43185e-07 -0.00436363 -0 -1.99636e-07 -0 4.42821e-07)
(4.46698e-07 -0.00383002 -0 -6.86302e-07 -0 2.39603e-07)
(-2.80495e-07 -0.00384699 -0 1.62277e-07 -0 1.18219e-07)
(-6.83294e-07 -0.00384123 -0 5.80646e-07 -0 1.02648e-07)
(-4.23555e-07 -0.00382036 -0 5.30352e-07 -0 -1.06798e-07)
(-2.12959e-07 -0.00333973 -0 3.20036e-07 -0 -1.07077e-07)
(-6.33955e-07 -0.00334948 -0 8.01934e-07 -0 -1.67979e-07)
(-4.92495e-07 -0.00334441 -0 5.54064e-07 -0 -6.15695e-08)
(4.53418e-08 -0.00332955 -0 -1.0408e-07 -0 5.87381e-08)
(-4.2357e-07 -0.00289614 -0 4.45867e-07 -0 -2.22964e-08)
(-5.25727e-07 -0.00290212 -0 4.94933e-07 -0 3.07944e-08)
(-1.04636e-07 -0.00289916 -0 9.33419e-08 -0 1.12937e-08)
(2.1117e-07 -0.00288893 -0 -1.36965e-07 -0 -7.42053e-08)
(-5.33845e-07 -0.00249971 -0 4.58462e-07 -0 7.53826e-08)
(-7.65703e-07 -0.00250113 -0 9.62783e-07 -0 -1.9708e-07)
(-9.03181e-08 -0.00249943 -0 1.94795e-07 -0 -1.04477e-07)
(4.0392e-07 -0.00249317 -0 -2.58517e-07 -0 -1.45403e-07)
(-6.23073e-07 -0.00214601 -0 4.99843e-07 -0 1.2323e-07)
(-2.7982e-07 -0.00214368 -0 1.0824e-08 -0 2.68996e-07)
(4.82704e-07 -0.00214292 -0 -8.10426e-07 -0 3.27722e-07)
(1.33918e-06 -0.00213944 -0 -1.95284e-06 -0 6.13657e-07)
(-9.83549e-07 -0.00183258 -0 1.2153e-06 -0 -2.31755e-07)
(-5.30788e-07 -0.00182649 -0 5.94815e-07 -0 -6.40266e-08)
(1.8498e-08 -0.00182739 -0 1.24366e-07 -0 -1.42864e-07)
(2.71554e-07 -0.00182555 -0 3.18594e-07 -0 -5.90148e-07)
(-5.23785e-07 -0.00155551 -0 3.65195e-07 -0 1.58589e-07)
(-4.25313e-07 -0.0015475 -0 4.74093e-07 -0 -4.87799e-08)
(2.95359e-07 -0.00154981 -0 -3.99215e-07 -0 1.03856e-07)
(1.17295e-06 -0.00154887 -0 -1.41754e-06 -0 2.4459e-07)
(-5.50936e-07 -0.00131385 -0 5.94468e-07 -0 -4.35319e-08)
(-2.88507e-08 -0.00130428 -0 -2.20461e-07 -0 2.49312e-07)
(3.32242e-07 -0.00130741 -0 -5.43435e-07 -0 2.11193e-07)
(1.34809e-06 -0.00130647 -0 -1.72141e-06 -0 3.73317e-07)
(-4.08656e-07 -0.00110296 -0 5.19173e-07 -0 -1.10517e-07)
(-6.34204e-07 -0.00109111 -0 1.10677e-06 -0 -4.72563e-07)
(-4.63835e-07 -0.00109608 -0 1.05124e-06 -0 -5.87407e-07)
(-1.94857e-07 -0.00109684 -0 1.36299e-06 -0 -1.16814e-06)
(-4.55843e-07 -0.00411153 -0 8.72286e-07 -0 -4.16443e-07)
(-7.45348e-08 -0.00414373 -0 -9.1286e-08 -0 1.65821e-07)
(5.18269e-08 -0.00410743 -0 -1.38183e-08 -0 -3.80086e-08)
(-5.86894e-07 -0.00408139 -0 1.1662e-06 -0 -5.79307e-07)
(4.53267e-07 -0.00675385 -0 -9.19288e-07 -0 4.66022e-07)
(-2.63854e-07 -0.00677 -0 4.43765e-07 -0 -1.7991e-07)
(2.68854e-06 -0.00674727 -0 -3.08409e-06 -0 3.95549e-07)
(1.61931e-06 -0.00673203 -0 -3.54407e-06 -0 1.92476e-06)
(1.82204e-07 -0.0063468 -0 -1.68092e-07 -0 -1.41118e-08)
(-4.78395e-08 -0.00631777 -0 7.51943e-08 -0 -2.73549e-08)
(1.22721e-06 -0.00634468 -0 -1.10122e-06 -0 -1.25991e-07)
(-3.65849e-07 -0.00636288 -0 9.36628e-07 -0 -5.70779e-07)
(-3.4277e-08 -0.00563062 -0 4.29809e-07 -0 -3.95532e-07)
(2.26702e-07 -0.00561127 -0 -4.65597e-07 -0 2.38895e-07)
(2.28266e-07 -0.00563127 -0 3.29487e-07 -0 -5.57753e-07)
(-9.63777e-07 -0.00563906 -0 2.48007e-06 -0 -1.51629e-06)
(7.53955e-07 -0.00497194 -0 -1.07272e-06 -0 3.1876e-07)
(-1.68003e-07 -0.00496028 -0 2.93931e-07 -0 -1.25928e-07)
(9.51736e-07 -0.00497332 -0 -1.47957e-06 -0 5.27839e-07)
(2.15273e-06 -0.00497695 -0 -3.45622e-06 -0 1.30348e-06)
(3.82064e-07 -0.00436847 -0 -3.0553e-07 -0 -7.6534e-08)
(3.84728e-08 -0.00436346 -0 -1.3545e-07 -0 9.69773e-08)
(5.43557e-08 -0.00437206 -0 1.19042e-07 -0 -1.73398e-07)
(5.24501e-07 -0.00437188 -0 -2.15271e-07 -0 -3.0923e-07)
(3.77371e-07 -0.00382122 -0 -3.16075e-07 -0 -6.1296e-08)
(-1.58254e-07 -0.00382052 -0 1.55555e-07 -0 2.69845e-09)
(1.698e-08 -0.00382705 -0 1.06221e-07 -0 -1.23201e-07)
(5.6794e-07 -0.00382471 -0 -2.59457e-07 -0 -3.08483e-07)
(4.98663e-07 -0.0033265 -0 -5.46114e-07 -0 4.74507e-08)
(-2.20577e-07 -0.00332857 -0 1.87951e-07 -0 3.2626e-08)
(1.63441e-07 -0.00333414 -0 -2.41288e-07 -0 7.78473e-08)
(9.96804e-07 -0.00333124 -0 -1.26103e-06 -0 2.64228e-07)
(3.85417e-07 -0.00288243 -0 -3.0204e-07 -0 -8.33777e-08)
(-4.20391e-07 -0.00288637 -0 4.25437e-07 -0 -5.04563e-09)
(-2.9996e-08 -0.00289119 -0 1.084e-07 -0 -7.84042e-08)
(4.68192e-07 -0.00288703 -0 -2.49893e-07 -0 -2.18299e-07)
(5.27128e-07 -0.00248637 -0 -5.20167e-07 -0 -6.96057e-09)
(-5.66492e-07 -0.00249107 -0 5.88131e-07 -0 -2.1639e-08)
(1.22445e-07 -0.00249447 -0 -1.8391e-07 -0 6.14648e-08)
(7.83652e-07 -0.00249078 -0 -1.00315e-06 -0 2.19499e-07)
(8.17747e-07 -0.00213369 -0 -1.09951e-06 -0 2.81758e-07)
(-4.43643e-07 -0.00213833 -0 2.02619e-07 -0 2.41025e-07)
(2.92324e-08 -0.00214081 -0 -3.13319e-09 -0 -2.60992e-08)
(5.31861e-07 -0.00213941 -0 -5.55762e-07 -0 2.39008e-08)
(1.35531e-07 -0.00182141 -0 2.96851e-07 -0 -4.32382e-07)
(-1.03167e-06 -0.00182539 -0 1.28196e-06 -0 -2.5028e-07)
(-1.91731e-07 -0.00182708 -0 4.05982e-07 -0 -2.14251e-07)
(-8.80987e-08 -0.00182839 -0 5.62652e-07 -0 -4.74554e-07)
(7.42028e-07 -0.00154655 -0 -9.46196e-07 -0 2.04168e-07)
(-7.5665e-07 -0.00154964 -0 6.41075e-07 -0 1.15574e-07)
(-1.16045e-08 -0.00155084 -0 -2.37803e-08 -0 3.53848e-08)
(5.97664e-07 -0.00155482 -0 -8.74932e-07 -0 2.77268e-07)
(5.87661e-07 -0.00130613 -0 -6.35944e-07 -0 4.8283e-08)
(-8.0133e-07 -0.0013082 -0 6.79636e-07 -0 1.21694e-07)
(-2.01765e-07 -0.00130927 -0 2.50506e-07 -0 -4.87414e-08)
(-3.0129e-08 -0.00131578 -0 2.86674e-07 -0 -2.56545e-07)
(-1.03286e-07 -0.00109722 -0 6.83011e-07 -0 -5.79724e-07)
(-1.29877e-06 -0.00109835 -0 1.62332e-06 -0 -3.2455e-07)
(-3.20902e-07 -0.0010994 -0 3.39933e-07 -0 -1.90312e-08)
(-2.43953e-08 -0.00110821 -0 2.11373e-07 -0 -1.86978e-07)
)
;

boundaryField
{
    topWall
    {
        type            calculated;
        value           nonuniform List<symmTensor> 0();
    }
    botWall
    {
        type            calculated;
        value           nonuniform List<symmTensor> 0();
    }
    inlet
    {
        type            cyclic;
    }
    outlet
    {
        type            cyclic;
    }
    fixWall
    {
        type            empty;
    }
    procBoundary4to3
    {
        type            processor;
        value           nonuniform List<symmTensor> 8((-3.81568e-07 -0.00109877 -0 2.80437e-07 -0 1.01131e-07) (-2.50426e-07 -0.00109012 -0 2.23831e-07 -0 2.65949e-08) (3.69597e-07 -0.00109108 -0 -2.74666e-07 -0 -9.49317e-08) (3.00298e-07 -0.00109863 -0 -1.66369e-07 -0 -1.3393e-07) (-2.18622e-07 -0.00109464 -0 2.38174e-07 -0 -1.95527e-08) (-2.21831e-07 -0.00109212 -0 2.22587e-07 -0 -7.56436e-10) (2.06575e-07 -0.00109513 -0 -1.95912e-07 -0 -1.06637e-08) (1.70636e-08 -0.00109839 -0 2.97403e-08 -0 -4.68039e-08));
    }
    procBoundary4to5
    {
        type            processor;
        value           nonuniform List<symmTensor> 8((3.40949e-07 -0.000923014 -0 -6.18592e-07 -0 2.77643e-07) (-1.11424e-07 -0.00090852 -0 1.72938e-07 -0 -6.15137e-08) (1.94124e-07 -0.000915609 -0 -4.5319e-07 -0 2.59066e-07) (1.99682e-06 -0.000917906 -0 -3.05345e-06 -0 1.05664e-06) (1.27595e-06 -0.000916713 -0 -2.06598e-06 -0 7.90035e-07) (-5.71738e-07 -0.000916658 -0 1.49588e-07 -0 4.2215e-07) (-1.44926e-07 -0.000918185 -0 -1.94427e-07 -0 3.39354e-07) (9.66236e-07 -0.000929502 -0 -1.82885e-06 -0 8.62617e-07));
    }
}


// ************************************************************************* //
