/*--------------------------------*- C++ -*----------------------------------*\
  =========                 |
  \\      /  F ield         | OpenFOAM: The Open Source CFD Toolbox
   \\    /   O peration     | Website:  https://openfoam.org
    \\  /    A nd           | Version:  dev
     \\/     M anipulation  |

   OpenFOAM for Windows 20.09 (v1)
   Built by CFD Support, www.cfdsupport.com (based on Symscape).
\*---------------------------------------------------------------------------*/
FoamFile
{
    version     2.0;
    format      ascii;
    class       volScalarField;
    location    "6";
    object      epsilon;
}
// * * * * * * * * * * * * * * * * * * * * * * * * * * * * * * * * * * * * * //

dimensions      [0 2 -3 0 0 0 0];

internalField   nonuniform List<scalar> 
120
(
2.98822e-15
2.98533e-15
2.98783e-15
3.00365e-15
3.48379e-15
3.4835e-15
3.48614e-15
3.50109e-15
3.75551e-15
3.76283e-15
3.76467e-15
3.77088e-15
3.8142e-15
3.82598e-15
3.82675e-15
3.82631e-15
3.71396e-15
3.72706e-15
3.72683e-15
3.72231e-15
3.50811e-15
3.52033e-15
3.51939e-15
3.51308e-15
3.24129e-15
3.25148e-15
3.25027e-15
3.24391e-15
2.94728e-15
2.95511e-15
2.95397e-15
2.94848e-15
2.64961e-15
2.65528e-15
2.65441e-15
2.65001e-15
2.36359e-15
2.36744e-15
2.36686e-15
2.3635e-15
2.09821e-15
2.10059e-15
2.10024e-15
2.09773e-15
1.85784e-15
1.85905e-15
1.85888e-15
1.85713e-15
1.64369e-15
1.64403e-15
1.64396e-15
1.64278e-15
1.455e-15
1.45467e-15
1.45457e-15
1.4539e-15
1.28976e-15
1.28886e-15
1.28884e-15
1.28847e-15
2.99797e-15
2.99417e-15
2.99482e-15
2.99275e-15
3.49598e-15
3.49019e-15
3.49216e-15
3.49112e-15
3.7686e-15
3.75956e-15
3.76492e-15
3.76649e-15
3.82541e-15
3.81582e-15
3.82236e-15
3.82504e-15
3.7217e-15
3.71332e-15
3.71967e-15
3.72288e-15
3.51251e-15
3.50575e-15
3.51133e-15
3.51455e-15
3.24311e-15
3.23795e-15
3.24255e-15
3.24564e-15
2.94726e-15
2.94349e-15
2.94721e-15
2.95015e-15
2.64858e-15
2.6458e-15
2.64881e-15
2.65157e-15
2.36209e-15
2.3602e-15
2.36238e-15
2.36505e-15
2.09661e-15
2.09526e-15
2.09674e-15
2.09943e-15
1.8563e-15
1.85522e-15
1.85614e-15
1.85894e-15
1.64227e-15
1.64125e-15
1.64188e-15
1.64468e-15
1.45366e-15
1.45266e-15
1.45305e-15
1.45583e-15
1.2885e-15
1.2875e-15
1.28769e-15
1.29039e-15
)
;

boundaryField
{
    topWall
    {
        type            epsilonWallFunction;
        value           nonuniform List<scalar> 0();
    }
    botWall
    {
        type            epsilonWallFunction;
        value           nonuniform List<scalar> 0();
    }
    inlet
    {
        type            cyclic;
    }
    outlet
    {
        type            cyclic;
    }
    fixWall
    {
        type            empty;
    }
    procBoundary4to3
    {
        type            processor;
        value           nonuniform List<scalar> 8(2.485e-15 2.48334e-15 2.4854e-15 2.49717e-15 2.4929e-15 2.48929e-15 2.49046e-15 2.48904e-15);
    }
    procBoundary4to5
    {
        type            processor;
        value           nonuniform List<scalar> 8(1.15158e-15 1.15041e-15 1.15029e-15 1.15021e-15 1.15038e-15 1.14939e-15 1.14942e-15 1.15201e-15);
    }
}


// ************************************************************************* //
