/*--------------------------------*- C++ -*----------------------------------*\
  =========                 |
  \\      /  F ield         | OpenFOAM: The Open Source CFD Toolbox
   \\    /   O peration     | Website:  https://openfoam.org
    \\  /    A nd           | Version:  dev
     \\/     M anipulation  |

   OpenFOAM for Windows 20.09 (v1)
   Built by CFD Support, www.cfdsupport.com (based on Symscape).
\*---------------------------------------------------------------------------*/
FoamFile
{
    version     2.0;
    format      ascii;
    class       volTensorField;
    location    "6";
    object      gradU;
}
// * * * * * * * * * * * * * * * * * * * * * * * * * * * * * * * * * * * * * //

dimensions      [0 0 -1 0 0 0 0];

internalField   nonuniform List<tensor> 
120
(
(0.000669327 -0.000110593 0 21.8279 0.00377877 0 0 0 0)
(0.000191672 6.78816e-05 0 21.3898 0.0123371 0 0 0 0)
(-0.000535675 -0.000288466 0 21.4278 0.00458033 0 0 0 0)
(-0.000848721 0.000187839 0 21.9913 0.00422365 0 0 0 0)
(-0.00275142 4.40368e-05 0 35.7265 0.00542854 0 0 0 0)
(-0.00593328 4.72988e-05 0 35.4233 -0.00752799 0 0 0 0)
(0.00879404 -0.00037966 0 35.4692 -0.0130487 0 0 0 0)
(0.0049014 0.000120897 0 35.9184 -0.0112944 0 0 0 0)
(-0.00360987 -0.0004776 0 33.4899 -0.00243305 0 0 0 0)
(-0.00409798 -0.000240072 0 33.6849 0.00281035 0 0 0 0)
(0.0077161 -0.00035124 0 33.706 -0.00789064 0 0 0 0)
(0.00458676 0.000466502 0 33.5435 -0.00212453 0 0 0 0)
(-0.00339667 0.000157453 0 29.7431 0.00454227 0 0 0 0)
(-0.00233166 -4.36611e-05 0 29.9421 0.0124325 0 0 0 0)
(0.00643694 -0.000461909 0 29.9471 -0.000740254 0 0 0 0)
(0.00376351 0.000259209 0 29.7776 0.000773308 0 0 0 0)
(-0.00269736 -9.38851e-05 0 26.3136 0.00417255 0 0 0 0)
(-0.000698205 -0.000328114 0 26.4806 -0.00849158 0 0 0 0)
(0.00497395 -0.00054556 0 26.4677 -0.0110072 0 0 0 0)
(0.00283722 0.000442387 0 26.3048 -0.00868829 0 0 0 0)
(-0.0016887 -0.000194293 0 23.1672 -0.000306404 0 0 0 0)
(0.000236433 -0.000296657 0 23.3002 0.00237085 0 0 0 0)
(0.00350753 -0.000465187 0 23.2725 -0.00115713 0 0 0 0)
(0.00181792 0.000504119 0 23.1267 0.00170251 0 0 0 0)
(-0.000548802 -5.02211e-05 0 20.2992 0.00245365 0 0 0 0)
(0.00105659 -0.000342293 0 20.3894 -0.000116754 0 0 0 0)
(0.00208275 -0.000556699 0 20.3591 -0.00126669 0 0 0 0)
(0.000839405 0.000471786 0 20.2474 -0.00168845 0 0 0 0)
(0.000280586 -0.000194074 0 17.7008 -0.00113185 0 0 0 0)
(0.00123484 -0.000358663 0 17.7526 -0.00257027 0 0 0 0)
(0.00114195 -0.000491382 0 17.7259 -0.00163143 0 0 0 0)
(3.55002e-05 0.000536484 0 17.6461 0.000431468 0 0 0 0)
(0.00106338 -0.000160425 0 15.3497 -0.00124063 0 0 0 0)
(0.00147478 -0.000350619 0 15.3816 -0.00122997 0 0 0 0)
(0.000307212 -0.00050667 0 15.366 -0.000217428 0 0 0 0)
(-0.000756246 0.000525193 0 15.3108 0.000166313 0 0 0 0)
(0.00161445 -0.000215969 0 13.2487 -0.00101516 0 0 0 0)
(0.00150685 -0.00034161 0 13.2563 -0.00307364 0 0 0 0)
(-3.75206e-05 -0.00046811 0 13.2474 -0.00079307 0 0 0 0)
(-0.00145571 0.000549765 0 13.2132 0.000299753 0 0 0 0)
(0.0019777 -0.000265652 0 11.3741 -0.000998027 0 0 0 0)
(0.00145436 -0.000346918 0 11.3619 0.000684156 0 0 0 0)
(-0.000410701 -0.000450447 0 11.3579 0.00301609 0 0 0 0)
(-0.00192264 0.000561077 0 11.3385 0.00680121 0 0 0 0)
(0.00199225 -0.000230168 0 9.71293 -0.00383471 0 0 0 0)
(0.00123692 -0.000274708 0 9.68065 -0.00174593 0 0 0 0)
(-0.000427609 -0.00036616 0 9.68553 -0.00070816 0 0 0 0)
(-0.00228351 0.000560503 0 9.67484 -0.00240817 0 0 0 0)
(0.00180829 -0.000248941 0 8.24443 -0.000547506 0 0 0 0)
(0.000997812 -0.000294809 0 8.20204 -0.00138561 0 0 0 0)
(-0.000507483 -0.000461484 0 8.21444 0.00133314 0 0 0 0)
(-0.00246016 0.000540672 0 8.20845 0.00440465 0 0 0 0)
(0.00134462 -0.00030415 0 6.96371 -0.0016907 0 0 0 0)
(0.00073713 -0.000243364 0 6.91291 0.0012449 0 0 0 0)
(-0.000320781 -0.000269655 0 6.92954 0.00199976 0 0 0 0)
(-0.00258314 0.000589091 0 6.92371 0.00555102 0 0 0 0)
(0.000790069 -0.000204201 0 5.84591 -0.00166868 0 0 0 0)
(0.00042835 -0.000233301 0 5.78312 -0.00418522 0 0 0 0)
(-0.000327465 -0.000389715 0 5.80962 -0.00434242 0 0 0 0)
(-0.00257919 0.000537563 0 5.81269 -0.0067075 0 0 0 0)
(0.000104411 0.000167015 0 21.7909 -0.00341513 0 0 0 0)
(0.000636943 5.08537e-05 0 21.9617 0.000681333 0 0 0 0)
(-0.000238064 0.000232044 0 21.7691 -6.41041e-05 0 0 0 0)
(2.01061e-05 -0.000306574 0 21.6317 -0.0046256 0 0 0 0)
(3.38003e-05 0.000133599 0 35.7953 0.00367107 0 0 0 0)
(0.000222451 8.6918e-05 0 35.8809 -0.00165274 0 0 0 0)
(-0.00607642 0.000202024 0 35.7603 0.00922104 0 0 0 0)
(0.000809436 -0.000255114 0 35.68 0.0144924 0 0 0 0)
(-0.000520236 0.00032771 0 33.6377 0.000408047 0 0 0 0)
(5.42841e-05 0.000143353 0 33.484 -0.000271755 0 0 0 0)
(-0.003586 0.000501129 0 33.6263 0.00258437 0 0 0 0)
(-0.000543063 -0.000369783 0 33.7237 -0.00399463 0 0 0 0)
(-0.000957325 0.000164479 0 29.8421 -0.00218715 0 0 0 0)
(3.2313e-05 0.00012319 0 29.7396 0.00186691 0 0 0 0)
(-0.00208295 0.000139977 0 29.8456 -0.00235119 0 0 0 0)
(-0.00146416 -0.000338738 0 29.8874 -0.0105903 0 0 0 0)
(-0.00115327 0.000345937 0 26.3509 0.00368741 0 0 0 0)
(0.0001115 0.000140619 0 26.2893 -0.00111263 0 0 0 0)
(-0.00112333 0.000293508 0 26.3583 0.00531965 0 0 0 0)
(-0.00225051 -0.000254892 0 26.3781 0.0126132 0 0 0 0)
(-0.00121528 0.00029074 0 23.1526 0.000606839 0 0 0 0)
(0.000155037 0.000150394 0 23.1262 0.000615933 0 0 0 0)
(-0.000603547 0.000368741 0 23.1715 -0.000774966 0 0 0 0)
(-0.00220939 -0.000357856 0 23.1713 -0.000248992 0 0 0 0)
(-0.00116247 0.000327827 0 20.2521 0.000675163 0 0 0 0)
(0.000426523 0.000117589 0 20.2486 -0.00040507 0 0 0 0)
(-0.000371479 0.000279093 0 20.2831 -0.000607966 0 0 0 0)
(-0.00232252 -0.000247082 0 20.2712 -0.00012992 0 0 0 0)
(-0.00119571 0.000312129 0 17.6301 0.00157295 0 0 0 0)
(0.000670988 0.000129009 0 17.6413 -0.00041161 0 0 0 0)
(-0.000226823 0.000373326 0 17.6706 0.000845709 0 0 0 0)
(-0.00194133 -0.000306829 0 17.6559 0.00404194 0 0 0 0)
(-0.00124231 0.000313776 0 15.2766 0.000579454 0 0 0 0)
(0.00110067 0.000105468 0 15.2976 -0.00114078 0 0 0 0)
(-0.000128282 0.000353319 0 15.3229 -0.000495031 0 0 0 0)
(-0.0018192 -0.000280042 0 15.3016 8.37223e-05 0 0 0 0)
(-0.00141533 0.000290345 0 13.1775 0.00136 0 0 0 0)
(0.00144386 0.0001111 0 13.2025 -0.00161589 0 0 0 0)
(-0.000161598 0.000393735 0 13.2203 0.000650242 0 0 0 0)
(-0.001495 -0.000319256 0 13.2014 0.00324002 0 0 0 0)
(-0.00142037 0.000281848 0 11.3083 0.00366035 0 0 0 0)
(0.00181437 9.36392e-05 0 11.3331 0.000101777 0 0 0 0)
(-0.000146629 0.000434251 0 11.3459 -6.08599e-05 0 0 0 0)
(-0.00134609 -0.000307798 0 11.3392 0.00153611 0 0 0 0)
(-0.00150497 0.000178687 0 9.65328 -0.00193247 0 0 0 0)
(0.0020707 4.90803e-05 0 9.67454 -0.00406043 0 0 0 0)
(-5.96761e-05 0.00041764 0 9.6831 -0.00164362 0 0 0 0)
(-0.00102411 -0.000334875 0 9.69081 -0.0027486 0 0 0 0)
(-0.00142533 0.00025431 0 8.19646 0.00304846 0 0 0 0)
(0.00231139 9.84534e-05 0 8.21299 -0.00139258 0 0 0 0)
(0.000124522 0.000456115 0 8.21898 0.000156787 0 0 0 0)
(-0.000849051 -0.000344317 0 8.2409 0.00305333 0 0 0 0)
(-0.00142935 8.20669e-05 0 6.9224 0.0018132 0 0 0 0)
(0.00244602 8.85733e-07 0 6.93348 -0.00147855 0 0 0 0)
(0.000405512 0.000491739 0 6.93862 -0.000793006 0 0 0 0)
(-0.000600002 -0.000346613 0 6.974 -0.00143953 0 0 0 0)
(-0.00126256 0.000137151 0 5.81512 -0.00334625 0 0 0 0)
(0.00258169 5.50166e-05 0 5.82119 -0.00516186 0 0 0 0)
(0.000799957 0.000456765 0 5.82639 -0.000951254 0 0 0 0)
(-0.000430844 -0.000359278 0 5.87386 -0.00105563 0 0 0 0)
)
;

boundaryField
{
    topWall
    {
        type            extrapolatedCalculated;
        value           nonuniform List<tensor> 0();
    }
    botWall
    {
        type            extrapolatedCalculated;
        value           nonuniform List<tensor> 0();
    }
    inlet
    {
        type            cyclic;
    }
    outlet
    {
        type            cyclic;
    }
    fixWall
    {
        type            empty;
    }
    procBoundary4to3
    {
        type            processor;
        value           nonuniform List<tensor> 8((0.00127915 -0.000238676 0 5.8237 -0.000475159 0 0 0 0) (0.000734106 3.39395e-05 0 5.77758 -0.000522676 0 0 0 0) (-0.001231 -0.000244435 0 5.78297 0.000476295 0 0 0 0) (-0.0011507 0.000254155 0 5.82247 8.59635e-05 0 0 0 0) (0.000527533 0.000192638 0 5.80139 -0.000682977 0 0 0 0) (0.000585848 3.10676e-05 0 5.78823 -0.000591861 0 0 0 0) (-0.000575684 0.000290473 0 5.80388 0.000490907 0 0 0 0) (-0.000169249 -0.000319162 0 5.82179 -0.000202842 0 0 0 0));
    }
    procBoundary4to5
    {
        type            processor;
        value           nonuniform List<tensor> 8((-0.000167763 -0.00035631 0 4.89233 0.00237502 0 0 0 0) (0.000132262 -0.000287926 0 4.81544 -0.000621296 0 0 0 0) (0.000172096 -0.000311693 0 4.85304 0.00188748 0 0 0 0) (-0.00249147 0.000605694 0 4.8643 0.0108917 0 0 0 0) (-0.00128767 0.000107828 0 4.85847 0.00756845 0 0 0 0) (0.0026338 4.08023e-05 0 4.85825 0.000722288 0 0 0 0) (0.00128334 0.000560176 0 4.86582 0.00141452 0 0 0 0) (-0.00027459 -0.00035857 0 4.92672 0.0071324 0 0 0 0));
    }
}


// ************************************************************************* //
