/*--------------------------------*- C++ -*----------------------------------*\
  =========                 |
  \\      /  F ield         | OpenFOAM: The Open Source CFD Toolbox
   \\    /   O peration     | Website:  https://openfoam.org
    \\  /    A nd           | Version:  dev
     \\/     M anipulation  |

   OpenFOAM for Windows 20.09 (v1)
   Built by CFD Support, www.cfdsupport.com (based on Symscape).
\*---------------------------------------------------------------------------*/
FoamFile
{
    version     2.0;
    format      ascii;
    class       volVectorField;
    location    "6";
    object      gradp_rgh;
}
// * * * * * * * * * * * * * * * * * * * * * * * * * * * * * * * * * * * * * //

dimensions      [1 -2 -2 0 0 0 0];

internalField   nonuniform List<vector> 
120
(
(-1.16225 -2566.34 0)
(-0.97838 -2594.93 0)
(-1.64645 -2593.94 0)
(-1.47861 -2576.87 0)
(-1.26192 -59.1047 0)
(-1.26798 -77.2958 0)
(-1.26264 -76.4479 0)
(-1.24882 -54.2901 0)
(-1.2622 -0.0847839 0)
(-1.26743 -0.0541289 0)
(-1.26302 -0.0421449 0)
(-1.24899 -0.0675659 0)
(-1.26226 -0.0163353 0)
(-1.26727 -0.0115156 0)
(-1.26286 0.00393877 0)
(-1.24898 0.00551096 0)
(-1.26221 -0.0152919 0)
(-1.2671 -0.0107822 0)
(-1.26274 0.00318049 0)
(-1.24901 0.00495816 0)
(-1.26225 -0.0150249 0)
(-1.26696 -0.0127584 0)
(-1.2626 0.00112217 0)
(-1.249 0.00381786 0)
(-1.26229 -0.0148352 0)
(-1.26683 -0.011716 0)
(-1.26246 0.00135199 0)
(-1.24899 0.00435174 0)
(-1.26229 -0.0144469 0)
(-1.26669 -0.0111758 0)
(-1.26233 0.00126179 0)
(-1.24899 0.00421818 0)
(-1.26231 -0.0146535 0)
(-1.26656 -0.0110549 0)
(-1.2622 0.000820317 0)
(-1.24899 0.00389956 0)
(-1.26231 -0.0143162 0)
(-1.26644 -0.0106198 0)
(-1.26208 0.000665524 0)
(-1.24899 0.00364312 0)
(-1.26231 -0.0136382 0)
(-1.26631 -0.00893433 0)
(-1.26196 0.00171794 0)
(-1.249 0.00518294 0)
(-1.26228 -0.0138826 0)
(-1.26618 -0.00678042 0)
(-1.26185 0.00262126 0)
(-1.24902 0.00524909 0)
(-1.2622 -0.0140463 0)
(-1.26604 -0.00589807 0)
(-1.26176 0.00228793 0)
(-1.24906 0.00379661 0)
(-1.26211 -0.0133944 0)
(-1.26591 -0.0057249 0)
(-1.26169 0.00123315 0)
(-1.2491 0.00346369 0)
(-1.26201 -0.0125682 0)
(-1.2658 -0.00798838 0)
(-1.26161 -0.00256105 0)
(-1.24914 -0.000130689 0)
(-1.2628 -2592.82 0)
(-1.22373 -2590.52 0)
(-0.928507 -2587.36 0)
(-1.31928 -2584.49 0)
(-1.23847 -62.6709 0)
(-1.23239 -52.83 0)
(-1.23697 -63.1701 0)
(-1.2508 -71.2985 0)
(-1.23847 -0.0515577 0)
(-1.23205 -0.0720728 0)
(-1.23631 -0.037762 0)
(-1.25152 -0.0333146 0)
(-1.23855 0.00302505 0)
(-1.23216 -0.00498914 0)
(-1.23633 -0.0105081 0)
(-1.25159 -0.0107667 0)
(-1.23864 0.00219266 0)
(-1.23227 -0.00468639 0)
(-1.23641 -0.0103995 0)
(-1.25162 -0.011401 0)
(-1.23871 0.00243262 0)
(-1.23237 -0.00467697 0)
(-1.23644 -0.00901747 0)
(-1.25167 -0.00841028 0)
(-1.23878 0.0018092 0)
(-1.23247 -0.00441413 0)
(-1.23647 -0.00930299 0)
(-1.25172 -0.00931748 0)
(-1.23885 0.00120305 0)
(-1.23256 -0.0042914 0)
(-1.23652 -0.0094173 0)
(-1.25176 -0.00987715 0)
(-1.23892 0.000587161 0)
(-1.23264 -0.00423467 0)
(-1.23657 -0.0093318 0)
(-1.2518 -0.00999345 0)
(-1.23899 0.000103354 0)
(-1.23272 -0.00410958 0)
(-1.23662 -0.00934289 0)
(-1.25185 -0.0102383 0)
(-1.23905 0.000285709 0)
(-1.2328 -0.00338921 0)
(-1.23667 -0.00961551 0)
(-1.25189 -0.0108616 0)
(-1.23913 -0.000987724 0)
(-1.23289 -0.00333462 0)
(-1.23674 -0.0106949 0)
(-1.25192 -0.0138721 0)
(-1.2392 -0.00273186 0)
(-1.23296 -0.00354355 0)
(-1.23684 -0.0111292 0)
(-1.25194 -0.0162421 0)
(-1.23925 -0.00339727 0)
(-1.23303 -0.00271525 0)
(-1.23695 -0.00990678 0)
(-1.25196 -0.0167994 0)
(-1.2393 -0.00491615 0)
(-1.23307 -0.00224869 0)
(-1.23708 -0.00721236 0)
(-1.252 -0.0159205 0)
)
;

boundaryField
{
    topWall
    {
        type            extrapolatedCalculated;
        value           nonuniform List<vector> 0();
    }
    botWall
    {
        type            extrapolatedCalculated;
        value           nonuniform List<vector> 0();
    }
    inlet
    {
        type            cyclic;
    }
    outlet
    {
        type            cyclic;
    }
    fixWall
    {
        type            empty;
    }
    procBoundary4to3
    {
        type            processor;
        value           nonuniform List<vector> 8((-1.08795 -2589.17 0) (-0.808053 -2571.85 0) (-1.56353 -2572.63 0) (-1.26746 -2593.98 0) (-1.01097 -2586.03 0) (-1.32337 -2595.73 0) (-1.33755 -2585.57 0) (-1.60112 -2577.53 0));
    }
    procBoundary4to5
    {
        type            processor;
        value           nonuniform List<vector> 8((-1.26197 -0.0102313 0) (-1.26574 -0.0113088 0) (-1.26155 -0.00613844 0) (-1.24914 -0.00100998 0) (-1.23929 -0.00351886 0) (-1.23307 -0.000386364 0) (-1.23718 -0.00280652 0) (-1.25205 -0.0106255 0));
    }
}


// ************************************************************************* //
