/*--------------------------------*- C++ -*----------------------------------*\
  =========                 |
  \\      /  F ield         | OpenFOAM: The Open Source CFD Toolbox
   \\    /   O peration     | Website:  https://openfoam.org
    \\  /    A nd           | Version:  dev
     \\/     M anipulation  |

   OpenFOAM for Windows 20.09 (v1)
   Built by CFD Support, www.cfdsupport.com (based on Symscape).
\*---------------------------------------------------------------------------*/
FoamFile
{
    version     2.0;
    format      ascii;
    class       volVectorField;
    location    "6";
    object      gradp;
}
// * * * * * * * * * * * * * * * * * * * * * * * * * * * * * * * * * * * * * //

dimensions      [1 -2 -2 0 0 0 0];

internalField   nonuniform List<vector> 
120
(
(3.73847 -32.1093 0)
(-1.26542 -32.7882 0)
(-1.26645 -32.7447 0)
(-1.25088 -32.0885 0)
(3.73783 -10.3131 0)
(-1.26758 -10.4539 0)
(-1.26316 -10.4339 0)
(-1.24901 -10.2481 0)
(3.7378 -9.82595 0)
(-1.26743 -9.82376 0)
(-1.26302 -9.80735 0)
(-1.249 -9.80613 0)
(3.73774 -9.8261 0)
(-1.26727 -9.82133 0)
(-1.26286 -9.80594 0)
(-1.24898 -9.80432 0)
(3.73779 -9.82529 0)
(-1.2671 -9.82078 0)
(-1.26274 -9.80682 0)
(-1.24901 -9.80504 0)
(3.73775 -9.82502 0)
(-1.26696 -9.82276 0)
(-1.2626 -9.80888 0)
(-1.249 -9.80618 0)
(3.73771 -9.82484 0)
(-1.26683 -9.82172 0)
(-1.26246 -9.80865 0)
(-1.24899 -9.80565 0)
(3.73771 -9.82445 0)
(-1.26669 -9.82118 0)
(-1.26233 -9.80874 0)
(-1.24899 -9.80578 0)
(3.73769 -9.82465 0)
(-1.26656 -9.82105 0)
(-1.2622 -9.80918 0)
(-1.24899 -9.8061 0)
(3.73769 -9.82432 0)
(-1.26644 -9.82062 0)
(-1.26208 -9.80933 0)
(-1.24899 -9.80636 0)
(3.73769 -9.82364 0)
(-1.26631 -9.81893 0)
(-1.26196 -9.80828 0)
(-1.249 -9.80482 0)
(3.73772 -9.82388 0)
(-1.26618 -9.81678 0)
(-1.26185 -9.80738 0)
(-1.24902 -9.80475 0)
(3.7378 -9.82405 0)
(-1.26604 -9.8159 0)
(-1.26176 -9.80771 0)
(-1.24906 -9.8062 0)
(3.73789 -9.82339 0)
(-1.26591 -9.81572 0)
(-1.26169 -9.80877 0)
(-1.2491 -9.80654 0)
(3.73799 -9.82257 0)
(-1.2658 -9.81799 0)
(-1.26161 -9.81256 0)
(-1.24914 -9.81013 0)
(-1.23849 -32.4182 0)
(-1.23173 -32.2603 0)
(-1.23354 -32.4412 0)
(3.74804 -32.5411 0)
(-1.2384 -10.3205 0)
(-1.23194 -10.2469 0)
(-1.23628 -10.3395 0)
(3.74853 -10.4133 0)
(-1.23847 -9.80573 0)
(-1.23205 -9.8152 0)
(-1.23631 -9.81925 0)
(3.74848 -9.81796 0)
(-1.23855 -9.80684 0)
(-1.23216 -9.81478 0)
(-1.23633 -9.82038 0)
(3.74841 -9.8207 0)
(-1.23864 -9.80781 0)
(-1.23227 -9.81469 0)
(-1.23641 -9.8204 0)
(3.74838 -9.8214 0)
(-1.23871 -9.80757 0)
(-1.23237 -9.81468 0)
(-1.23644 -9.81902 0)
(3.74833 -9.81841 0)
(-1.23878 -9.80819 0)
(-1.23247 -9.81441 0)
(-1.23647 -9.8193 0)
(3.74828 -9.81932 0)
(-1.23885 -9.8088 0)
(-1.23256 -9.81429 0)
(-1.23652 -9.81942 0)
(3.74824 -9.81988 0)
(-1.23892 -9.80941 0)
(-1.23264 -9.81423 0)
(-1.23657 -9.81933 0)
(3.7482 -9.81999 0)
(-1.23899 -9.8099 0)
(-1.23272 -9.81411 0)
(-1.23662 -9.81934 0)
(3.74815 -9.82024 0)
(-1.23905 -9.80971 0)
(-1.2328 -9.81339 0)
(-1.23667 -9.81962 0)
(3.74811 -9.82086 0)
(-1.23913 -9.81099 0)
(-1.23289 -9.81333 0)
(-1.23674 -9.82069 0)
(3.74808 -9.82387 0)
(-1.2392 -9.81273 0)
(-1.23296 -9.81354 0)
(-1.23684 -9.82113 0)
(3.74806 -9.82624 0)
(-1.23925 -9.8134 0)
(-1.23303 -9.81272 0)
(-1.23695 -9.81991 0)
(3.74804 -9.8268 0)
(-1.2393 -9.81492 0)
(-1.23307 -9.81225 0)
(-1.23708 -9.81721 0)
(3.748 -9.82592 0)
)
;

boundaryField
{
    topWall
    {
        type            extrapolatedCalculated;
        value           nonuniform List<vector> 0();
    }
    botWall
    {
        type            extrapolatedCalculated;
        value           nonuniform List<vector> 0();
    }
    inlet
    {
        type            cyclic;
    }
    outlet
    {
        type            cyclic;
    }
    fixWall
    {
        type            empty;
    }
    procBoundary4to3
    {
        type            processor;
        value           nonuniform List<vector> 8((3.74195 -75.1203 0) (-1.25699 -75.8848 0) (-1.27482 -75.8051 0) (-1.25445 -75.1757 0) (-1.23553 -75.5682 0) (-1.23155 -75.4809 0) (-1.2316 -75.5562 0) (3.74299 -75.5832 0));
    }
    procBoundary4to5
    {
        type            processor;
        value           nonuniform List<vector> 8((3.73803 -9.82023 0) (-1.26574 -9.82131 0) (-1.26155 -9.81614 0) (-1.24914 -9.81101 0) (-1.23929 -9.81352 0) (-1.23307 -9.81039 0) (-1.23718 -9.81281 0) (3.74795 -9.82063 0));
    }
}


// ************************************************************************* //
