/*--------------------------------*- C++ -*----------------------------------*\
  =========                 |
  \\      /  F ield         | OpenFOAM: The Open Source CFD Toolbox
   \\    /   O peration     | Website:  https://openfoam.org
    \\  /    A nd           | Version:  dev
     \\/     M anipulation  |

   OpenFOAM for Windows 20.09 (v1)
   Built by CFD Support, www.cfdsupport.com (based on Symscape).
\*---------------------------------------------------------------------------*/
FoamFile
{
    version     2.0;
    format      ascii;
    class       volScalarField;
    location    "6";
    object      k;
}
// * * * * * * * * * * * * * * * * * * * * * * * * * * * * * * * * * * * * * //

dimensions      [0 2 -2 0 0 0 0];

internalField   nonuniform List<scalar> 
120
(
1.06355e-15
1.06241e-15
1.06301e-15
1.06601e-15
1.14317e-15
1.14246e-15
1.1431e-15
1.14576e-15
1.19127e-15
1.19133e-15
1.19198e-15
1.19367e-15
1.21008e-15
1.2107e-15
1.2113e-15
1.21215e-15
1.20527e-15
1.20621e-15
1.20672e-15
1.20693e-15
1.1823e-15
1.18336e-15
1.18377e-15
1.18354e-15
1.14585e-15
1.14687e-15
1.14718e-15
1.1467e-15
1.0997e-15
1.10059e-15
1.10081e-15
1.1002e-15
1.04683e-15
1.04754e-15
1.04769e-15
1.04704e-15
9.89628e-16
9.90133e-16
9.90212e-16
9.89566e-16
9.29969e-16
9.30264e-16
9.30288e-16
9.29672e-16
8.69363e-16
8.69452e-16
8.69436e-16
8.68915e-16
8.08981e-16
8.08885e-16
8.08842e-16
8.08418e-16
7.49726e-16
7.49464e-16
7.49403e-16
7.49081e-16
6.92246e-16
6.91849e-16
6.91776e-16
6.91563e-16
1.06492e-15
1.06398e-15
1.06389e-15
1.06377e-15
1.14485e-15
1.14359e-15
1.14375e-15
1.14384e-15
1.19313e-15
1.19143e-15
1.19202e-15
1.19252e-15
1.21182e-15
1.20998e-15
1.21079e-15
1.21149e-15
1.20671e-15
1.20493e-15
1.2058e-15
1.20657e-15
1.18337e-15
1.18173e-15
1.18259e-15
1.18337e-15
1.14654e-15
1.1451e-15
1.1459e-15
1.14667e-15
1.10004e-15
1.0988e-15
1.09952e-15
1.10029e-15
1.04688e-15
1.04583e-15
1.04647e-15
1.04724e-15
9.89451e-16
9.88558e-16
9.89115e-16
9.89911e-16
9.29627e-16
9.28864e-16
9.29338e-16
9.30183e-16
8.6891e-16
8.68243e-16
8.68641e-16
8.69548e-16
8.08464e-16
8.07868e-16
8.08196e-16
8.09168e-16
7.4918e-16
7.48633e-16
7.48896e-16
7.49926e-16
6.91707e-16
6.91195e-16
6.91397e-16
6.92469e-16
)
;

boundaryField
{
    topWall
    {
        type            kqRWallFunction;
        value           nonuniform List<scalar> 0();
    }
    botWall
    {
        type            kqRWallFunction;
        value           nonuniform List<scalar> 0();
    }
    inlet
    {
        type            cyclic;
    }
    outlet
    {
        type            cyclic;
    }
    fixWall
    {
        type            empty;
    }
    procBoundary4to3
    {
        type            processor;
        value           nonuniform List<scalar> 8(9.71491e-16 9.70392e-16 9.70963e-16 9.73658e-16 9.72667e-16 9.71797e-16 9.71722e-16 9.71641e-16);
    }
    procBoundary4to5
    {
        type            processor;
        value           nonuniform List<scalar> 8(6.37524e-16 6.37068e-16 6.36954e-16 6.36847e-16 6.37026e-16 6.36533e-16 6.36674e-16 6.37743e-16);
    }
}


// ************************************************************************* //
