/*--------------------------------*- C++ -*----------------------------------*\
  =========                 |
  \\      /  F ield         | OpenFOAM: The Open Source CFD Toolbox
   \\    /   O peration     | Website:  https://openfoam.org
    \\  /    A nd           | Version:  dev
     \\/     M anipulation  |

   OpenFOAM for Windows 20.09 (v1)
   Built by CFD Support, www.cfdsupport.com (based on Symscape).
\*---------------------------------------------------------------------------*/
FoamFile
{
    version     2.0;
    format      ascii;
    class       volScalarField;
    location    "6";
    object      nut;
}
// * * * * * * * * * * * * * * * * * * * * * * * * * * * * * * * * * * * * * //

dimensions      [0 2 -1 0 0 0 0];

internalField   nonuniform List<scalar> 
120
(
1.65315e-17
1.68539e-17
1.6837e-17
1.64736e-17
1.11672e-17
1.12608e-17
1.12544e-17
1.11533e-17
1.24013e-17
1.23473e-17
1.23448e-17
1.24222e-17
1.38704e-17
1.38069e-17
1.38075e-17
1.38872e-17
1.51542e-17
1.50886e-17
1.50975e-17
1.51826e-17
1.64275e-17
1.63598e-17
1.63808e-17
1.64721e-17
1.78186e-17
1.77615e-17
1.77903e-17
1.78756e-17
1.93961e-17
1.93574e-17
1.93895e-17
1.94634e-17
2.11877e-17
2.11591e-17
2.11833e-17
2.12445e-17
2.3168e-17
2.31668e-17
2.31843e-17
2.32273e-17
2.5349e-17
2.53846e-17
2.53943e-17
2.54188e-17
2.77478e-17
2.78433e-17
2.7829e-17
2.78404e-17
3.04196e-17
3.05733e-17
3.05261e-17
3.05287e-17
3.33766e-17
3.36099e-17
3.35266e-17
3.35362e-17
3.3439e-17
3.34241e-17
3.34175e-17
3.34066e-17
1.66006e-17
1.6452e-17
1.66003e-17
1.66995e-17
1.1178e-17
1.11341e-17
1.11772e-17
1.12009e-17
1.23804e-17
1.24118e-17
1.2373e-17
1.23415e-17
1.38534e-17
1.38734e-17
1.38412e-17
1.38296e-17
1.51536e-17
1.51626e-17
1.51396e-17
1.51388e-17
1.64515e-17
1.64457e-17
1.64287e-17
1.64418e-17
1.78685e-17
1.78489e-17
1.78326e-17
1.78567e-17
1.94779e-17
1.94438e-17
1.94249e-17
1.9456e-17
2.12889e-17
2.12387e-17
2.12165e-17
2.12629e-17
2.3288e-17
2.32232e-17
2.32046e-17
2.32578e-17
2.5486e-17
2.54098e-17
2.53933e-17
2.54331e-17
2.79035e-17
2.78211e-17
2.78082e-17
2.78173e-17
3.05762e-17
3.04927e-17
3.04815e-17
3.044e-17
3.35495e-17
3.34718e-17
3.34564e-17
3.33365e-17
3.34196e-17
3.33961e-17
3.34107e-17
3.34442e-17
)
;

boundaryField
{
    topWall
    {
        type            nutkWallFunction;
        Cmu             0.09;
        kappa           0.41;
        E               9.8;
        value           nonuniform List<scalar> 0();
    }
    botWall
    {
        type            nutkWallFunction;
        Cmu             0.09;
        kappa           0.41;
        E               9.8;
        value           nonuniform List<scalar> 0();
    }
    inlet
    {
        type            cyclic;
    }
    outlet
    {
        type            cyclic;
    }
    fixWall
    {
        type            empty;
    }
    procBoundary4to3
    {
        type            processor;
        value           nonuniform List<scalar> 8(3.41818e-17 3.41273e-17 3.4139e-17 3.41671e-17 3.41559e-17 3.41444e-17 3.4123e-17 3.41367e-17);
    }
    procBoundary4to5
    {
        type            processor;
        value           nonuniform List<scalar> 8(3.17643e-17 3.17513e-17 3.17432e-17 3.17349e-17 3.17479e-17 3.17261e-17 3.17394e-17 3.17744e-17);
    }
}


// ************************************************************************* //
