/*--------------------------------*- C++ -*----------------------------------*\
  =========                 |
  \\      /  F ield         | OpenFOAM: The Open Source CFD Toolbox
   \\    /   O peration     | Website:  https://openfoam.org
    \\  /    A nd           | Version:  dev
     \\/     M anipulation  |

   OpenFOAM for Windows 20.09 (v1)
   Built by CFD Support, www.cfdsupport.com (based on Symscape).
\*---------------------------------------------------------------------------*/
FoamFile
{
    version     2.0;
    format      ascii;
    class       volScalarField;
    location    "6";
    object      omega;
}
// * * * * * * * * * * * * * * * * * * * * * * * * * * * * * * * * * * * * * //

dimensions      [0 0 -1 0 0 0 0];

internalField   nonuniform List<scalar> 
120
(
31.2186
31.2219
31.2303
31.3073
33.8608
33.8793
33.886
33.9521
35.0281
35.0946
35.0927
35.1008
35.0225
35.1126
35.1024
35.0736
34.2381
34.3321
34.3154
34.2679
32.9688
33.0541
33.0339
32.9809
31.4302
31.501
31.4809
31.4323
29.7786
29.8337
29.8163
29.7771
28.123
28.1641
28.151
28.1217
26.5374
26.567
26.5584
26.538
25.069
25.0895
25.0847
25.0714
23.7446
23.7577
23.7559
23.7478
22.5757
22.583
22.5832
22.5788
21.5634
21.5661
21.5664
21.5657
20.7018
20.6991
20.701
20.7014
31.28
31.2681
31.2774
31.2595
33.9295
33.9108
33.9251
33.9122
35.0955
35.0612
35.0937
35.0935
35.0749
35.0402
35.0768
35.0811
34.2685
34.242
34.2758
34.2833
32.9803
32.9623
32.991
32.9993
31.4291
31.4184
31.4411
31.4499
29.7693
29.7646
29.7826
29.7917
28.1108
28.1094
28.1242
28.1329
26.5253
26.528
26.5376
26.5461
25.0592
25.0636
25.0685
25.0779
23.7373
23.7417
23.7426
23.7536
22.5705
22.5732
22.5726
22.584
21.5593
21.5602
21.5584
21.5699
20.6976
20.6969
20.6939
20.7052
)
;

boundaryField
{
    topWall
    {
        beta1           0.075;
        blended         0;
        type            omegaWallFunction;
        value           nonuniform List<scalar> 0();
    }
    botWall
    {
        beta1           0.075;
        blended         0;
        type            omegaWallFunction;
        value           nonuniform List<scalar> 0();
    }
    inlet
    {
        type            cyclic;
    }
    outlet
    {
        type            cyclic;
    }
    fixWall
    {
        type            empty;
    }
    procBoundary4to3
    {
        type            processor;
        value           nonuniform List<scalar> 8(28.4213 28.4345 28.4414 28.497 28.4773 28.4614 28.4771 28.4632);
    }
    procBoundary4to5
    {
        type            processor;
        value           nonuniform List<scalar> 8(20.0704 20.0643 20.0659 20.0677 20.0652 20.0634 20.0594 20.0709);
    }
}


// ************************************************************************* //
