/*--------------------------------*- C++ -*----------------------------------*\
  =========                 |
  \\      /  F ield         | OpenFOAM: The Open Source CFD Toolbox
   \\    /   O peration     | Website:  https://openfoam.org
    \\  /    A nd           | Version:  dev
     \\/     M anipulation  |

   OpenFOAM for Windows 20.09 (v1)
   Built by CFD Support, www.cfdsupport.com (based on Symscape).
\*---------------------------------------------------------------------------*/
FoamFile
{
    version     2.0;
    format      ascii;
    class       volScalarField;
    location    "6";
    object      p;
}
// * * * * * * * * * * * * * * * * * * * * * * * * * * * * * * * * * * * * * //

dimensions      [1 -1 -2 0 0 0 0];

internalField   nonuniform List<scalar> 
120
(
-4.89125
-4.95426
-5.01779
-5.0809
-4.90025
-4.9635
-5.02701
-5.08981
-4.90844
-4.97168
-5.03518
-5.09798
-4.91663
-4.97987
-5.04335
-5.10616
-4.92481
-4.98805
-5.05152
-5.11433
-4.933
-4.99624
-5.0597
-5.1225
-4.94119
-5.00442
-5.06787
-5.13067
-4.94938
-5.01261
-5.07604
-5.13884
-4.95756
-5.02079
-5.08422
-5.14701
-4.96575
-5.02898
-5.09239
-5.15518
-4.97394
-5.03716
-5.10057
-5.16336
-4.98212
-5.04534
-5.10874
-5.17153
-4.99031
-5.05352
-5.11691
-5.1797
-4.9985
-5.0617
-5.12509
-5.18787
-5.00668
-5.06988
-5.13326
-5.19604
-5.14288
-5.20475
-5.26605
-5.32811
-5.15191
-5.21365
-5.2751
-5.33728
-5.16008
-5.22183
-5.28328
-5.34546
-5.16825
-5.23001
-5.29147
-5.35364
-5.17642
-5.23819
-5.29965
-5.36183
-5.1846
-5.24637
-5.30783
-5.37001
-5.19277
-5.25455
-5.31602
-5.37819
-5.20094
-5.26273
-5.3242
-5.38638
-5.20912
-5.2709
-5.33238
-5.39456
-5.21729
-5.27908
-5.34057
-5.40274
-5.22547
-5.28726
-5.34875
-5.41093
-5.23364
-5.29544
-5.35693
-5.41911
-5.24182
-5.30362
-5.36512
-5.4273
-5.25
-5.31179
-5.3733
-5.43549
-5.25818
-5.31997
-5.38148
-5.44368
)
;

boundaryField
{
    topWall
    {
        type            calculated;
        value           nonuniform List<scalar> 0();
    }
    botWall
    {
        type            calculated;
        value           nonuniform List<scalar> 0();
    }
    inlet
    {
        type            cyclic;
    }
    outlet
    {
        type            cyclic;
    }
    fixWall
    {
        type            empty;
    }
    procBoundary4to3
    {
        type            processor;
        value           nonuniform List<scalar> 8(-4.84673 -4.90885 -4.97243 -5.03633 -5.09788 -5.15988 -5.22103 -5.28305);
    }
    procBoundary4to5
    {
        type            processor;
        value           nonuniform List<scalar> 8(-5.01487 -5.07806 -5.14144 -5.20422 -5.26636 -5.32815 -5.38966 -5.45187);
    }
}


// ************************************************************************* //
