/*--------------------------------*- C++ -*----------------------------------*\
  =========                 |
  \\      /  F ield         | OpenFOAM: The Open Source CFD Toolbox
   \\    /   O peration     | Website:  https://openfoam.org
    \\  /    A nd           | Version:  dev
     \\/     M anipulation  |

   OpenFOAM for Windows 20.09 (v1)
   Built by CFD Support, www.cfdsupport.com (based on Symscape).
\*---------------------------------------------------------------------------*/
FoamFile
{
    version     2.0;
    format      ascii;
    class       volScalarField;
    location    "6";
    object      p_rgh;
}
// * * * * * * * * * * * * * * * * * * * * * * * * * * * * * * * * * * * * * //

dimensions      [1 -1 -2 0 0 0 0];

internalField   nonuniform List<scalar> 
120
(
-4.29899
-4.33192
-4.39683
-4.49656
-4.39737
-4.46067
-4.52417
-4.58693
-4.3975
-4.46075
-4.52424
-4.58705
-4.39751
-4.46076
-4.52424
-4.58704
-4.39753
-4.46076
-4.52424
-4.58704
-4.39754
-4.46078
-4.52423
-4.58704
-4.39755
-4.46079
-4.52423
-4.58703
-4.39756
-4.46079
-4.52423
-4.58703
-4.39758
-4.4608
-4.52423
-4.58702
-4.39759
-4.46081
-4.52423
-4.58702
-4.3976
-4.46082
-4.52423
-4.58702
-4.39761
-4.46083
-4.52423
-4.58701
-4.39762
-4.46083
-4.52423
-4.58701
-4.39763
-4.46084
-4.52422
-4.58701
-4.39764
-4.46084
-4.52422
-4.587
-4.54469
-4.62284
-4.66706
-4.71569
-4.64905
-4.71078
-4.77229
-4.83448
-4.64914
-4.71089
-4.77235
-4.83452
-4.64914
-4.7109
-4.77235
-4.83453
-4.64914
-4.7109
-4.77236
-4.83454
-4.64913
-4.71091
-4.77237
-4.83455
-4.64913
-4.71091
-4.77238
-4.83456
-4.64913
-4.71091
-4.77239
-4.83457
-4.64913
-4.71092
-4.77239
-4.83457
-4.64913
-4.71092
-4.7724
-4.83458
-4.64913
-4.71092
-4.77241
-4.83459
-4.64913
-4.71093
-4.77242
-4.8346
-4.64913
-4.71093
-4.77243
-4.83461
-4.64913
-4.71093
-4.77244
-4.83463
-4.64914
-4.71093
-4.77244
-4.83464
)
;

boundaryField
{
    topWall
    {
        type            zeroGradient;
    }
    botWall
    {
        type            zeroGradient;
    }
    inlet
    {
        type            fixedJump;
        patchType       cyclic;
        jump            uniform -0.5;
        value           nonuniform List<scalar> 
15
(
-4.36592
-4.25734
-4.36601
-4.36602
-4.36603
-4.36604
-4.36605
-4.36606
-4.36607
-4.36608
-4.36609
-4.36611
-4.36612
-4.36613
-4.36614
)
;
    }
    outlet
    {
        type            fixedJump;
        patchType       cyclic;
        value           nonuniform List<scalar> 
15
(
-4.86592
-4.75734
-4.86601
-4.86602
-4.86603
-4.86604
-4.86605
-4.86606
-4.86607
-4.86608
-4.86609
-4.86611
-4.86612
-4.86613
-4.86614
)
;
    }
    fixWall
    {
        type            empty;
    }
    procBoundary4to3
    {
        type            processor;
        value           nonuniform List<scalar> 8(-0.120136 -0.135788 -0.200941 -0.292141 -0.327687 -0.393238 -0.460024 -0.526994);
    }
    procBoundary4to5
    {
        type            processor;
        value           nonuniform List<scalar> 8(-4.39765 -4.46085 -4.52423 -4.58701 -4.64914 -4.71094 -4.77245 -4.83465);
    }
}


// ************************************************************************* //
