/*--------------------------------*- C++ -*----------------------------------*\
  =========                 |
  \\      /  F ield         | OpenFOAM: The Open Source CFD Toolbox
   \\    /   O peration     | Website:  https://openfoam.org
    \\  /    A nd           | Version:  dev
     \\/     M anipulation  |

   OpenFOAM for Windows 20.09 (v1)
   Built by CFD Support, www.cfdsupport.com (based on Symscape).
\*---------------------------------------------------------------------------*/
FoamFile
{
    version     2.0;
    format      ascii;
    class       surfaceScalarField;
    location    "6";
    object      phi;
}
// * * * * * * * * * * * * * * * * * * * * * * * * * * * * * * * * * * * * * //

dimensions      [0 3 -1 0 0 0 0];

internalField   nonuniform List<scalar> 
217
(
5.26654e-08
-7.75281e-10
5.2677e-08
2.78017e-10
5.26543e-08
-5.23367e-10
-1.08969e-09
5.26148e-08
7.74021e-08
-6.56899e-10
7.71616e-08
5.18693e-10
7.75213e-08
-8.8307e-10
-1.29128e-09
7.77228e-08
1.02077e-07
-5.02645e-10
1.01913e-07
6.82436e-10
1.02227e-07
-1.19759e-09
-1.47954e-09
1.02416e-07
1.24051e-07
-3.57255e-10
1.23961e-07
7.72734e-10
1.24222e-07
-1.45903e-09
-1.63339e-09
1.24376e-07
1.43525e-07
-2.40914e-10
1.43502e-07
7.95145e-10
1.43703e-07
-1.65957e-09
-1.74866e-09
1.43818e-07
1.60714e-07
-1.66484e-10
1.6073e-07
7.78806e-10
1.6087e-07
-1.79918e-09
-1.82142e-09
1.60943e-07
1.75794e-07
-1.39411e-10
1.75844e-07
7.28438e-10
1.75925e-07
-1.87961e-09
-1.85341e-09
1.75957e-07
1.8897e-07
-1.46811e-10
1.89028e-07
6.70821e-10
1.89069e-07
-1.92108e-09
-1.85189e-09
1.89067e-07
2.00414e-07
-1.86737e-10
2.00482e-07
6.03314e-10
2.00489e-07
-1.92793e-09
-1.81737e-09
2.00454e-07
2.10311e-07
-2.49574e-10
2.1038e-07
5.34533e-10
2.10373e-07
-1.92056e-09
-1.75367e-09
2.10309e-07
2.1882e-07
-3.27503e-10
2.18887e-07
4.68034e-10
2.18864e-07
-1.89774e-09
-1.6705e-09
2.18781e-07
2.261e-07
-4.06e-10
2.26157e-07
4.10665e-10
2.26134e-07
-1.87423e-09
-1.57232e-09
2.26036e-07
2.32288e-07
-4.76828e-10
2.32336e-07
3.63263e-10
2.32309e-07
-1.84744e-09
-1.4669e-09
2.32203e-07
2.37521e-07
-5.28322e-10
2.37558e-07
3.26721e-10
2.37539e-07
-1.82848e-09
-1.35651e-09
2.37428e-07
2.41925e-07
2.41948e-07
2.41929e-07
2.41819e-07
5.26227e-08
4.79323e-10
5.2645e-08
-2.60739e-10
5.26374e-08
7.65315e-10
1.12578e-09
7.77265e-08
4.75652e-10
7.77287e-08
-2.62885e-10
7.74825e-08
1.01136e-09
1.08791e-09
1.02396e-07
4.94921e-10
1.02391e-07
-2.57563e-10
1.02249e-07
1.15362e-09
1.10602e-09
1.24339e-07
5.32267e-10
1.24333e-07
-2.51275e-10
1.24253e-07
1.23333e-09
1.16233e-09
1.43773e-07
5.77771e-10
1.4377e-07
-2.48381e-10
1.4373e-07
1.27301e-09
1.2513e-09
1.60895e-07
6.2571e-10
1.60894e-07
-2.47276e-10
1.60875e-07
1.29109e-09
1.33837e-09
1.75911e-07
6.71372e-10
1.75921e-07
-2.57466e-10
1.75912e-07
1.2996e-09
1.42998e-09
1.8902e-07
7.18389e-10
1.89041e-07
-2.77833e-10
1.89038e-07
1.30219e-09
1.50557e-09
2.00405e-07
7.67349e-10
2.00443e-07
-3.16093e-10
2.00445e-07
1.30082e-09
1.57592e-09
2.10253e-07
8.23543e-10
2.10305e-07
-3.68633e-10
2.10305e-07
1.30091e-09
1.63269e-09
2.18724e-07
8.80026e-10
2.18792e-07
-4.36615e-10
2.18793e-07
1.30047e-09
1.68314e-09
2.25976e-07
9.40208e-10
2.26054e-07
-5.15357e-10
2.26058e-07
1.29651e-09
1.72007e-09
2.32146e-07
9.97217e-10
2.32235e-07
-6.043e-10
2.32247e-07
1.28489e-09
1.74974e-09
2.37371e-07
1.05455e-09
2.37466e-07
-6.99042e-10
2.37489e-07
1.26157e-09
1.76919e-09
2.41768e-07
2.41869e-07
2.41909e-07
)
;

boundaryField
{
    topWall
    {
        type            calculated;
        value           nonuniform List<scalar> 0();
    }
    botWall
    {
        type            calculated;
        value           nonuniform List<scalar> 0();
    }
    inlet
    {
        type            cyclic;
        value           nonuniform List<scalar> 
15
(
-7.75203e-08
-5.26418e-08
-1.02231e-07
-1.24197e-07
-1.43641e-07
-1.60788e-07
-1.75821e-07
-1.88963e-07
-2.00374e-07
-2.10248e-07
-2.18742e-07
-2.26021e-07
-2.32217e-07
-2.3747e-07
-2.41896e-07
)
;
    }
    outlet
    {
        type            cyclic;
        value           nonuniform List<scalar> 
15
(
7.75203e-08
5.26418e-08
1.02231e-07
1.24197e-07
1.43641e-07
1.60788e-07
1.75821e-07
1.88963e-07
2.00374e-07
2.10248e-07
2.18742e-07
2.26021e-07
2.32217e-07
2.3747e-07
2.41896e-07
)
;
    }
    fixWall
    {
        type            empty;
        value           nonuniform List<scalar> 0();
    }
    procBoundary4to3
    {
        type            processor;
        value           nonuniform List<scalar> 8(7.51693e-10 -2.89756e-10 5.46148e-10 1.13e-09 -4.87488e-10 2.38359e-10 -7.56993e-10 -1.13026e-09);
    }
    procBoundary4to5
    {
        type            processor;
        value           nonuniform List<scalar> 8(-5.57046e-10 3.04178e-10 -1.80901e-09 -1.24396e-09 1.10472e-09 -8.00791e-10 1.22316e-09 1.78244e-09);
    }
}


// ************************************************************************* //
