/*--------------------------------*- C++ -*----------------------------------*\
  =========                 |
  \\      /  F ield         | OpenFOAM: The Open Source CFD Toolbox
   \\    /   O peration     | Website:  https://openfoam.org
    \\  /    A nd           | Version:  dev
     \\/     M anipulation  |

   OpenFOAM for Windows 20.09 (v1)
   Built by CFD Support, www.cfdsupport.com (based on Symscape).
\*---------------------------------------------------------------------------*/
FoamFile
{
    version     2.0;
    format      ascii;
    class       volSymmTensorField;
    location    "6";
    object      R;
}
// * * * * * * * * * * * * * * * * * * * * * * * * * * * * * * * * * * * * * //

dimensions      [0 2 -2 0 0 0 0];

internalField   nonuniform List<symmTensor> 
120
(
(7.09059e-16 -3.60845e-16 -0 7.08956e-16 -0 7.09081e-16)
(7.08406e-16 -3.60503e-16 -0 7.07997e-16 -0 7.08413e-16)
(7.08738e-16 -3.60775e-16 -0 7.08565e-16 -0 7.0872e-16)
(7.10738e-16 -3.62279e-16 -0 7.10571e-16 -0 7.1071e-16)
(7.62198e-16 -3.98967e-16 -0 7.62015e-16 -0 7.62136e-16)
(7.61669e-16 -3.98896e-16 -0 7.61705e-16 -0 7.61536e-16)
(7.61834e-16 -3.99179e-16 -0 7.62326e-16 -0 7.62032e-16)
(7.63683e-16 -4.00611e-16 -0 7.64044e-16 -0 7.63792e-16)
(7.94218e-16 -4.1531e-16 -0 7.94189e-16 -0 7.94129e-16)
(7.9431e-16 -4.15915e-16 -0 7.94139e-16 -0 7.94208e-16)
(7.9446e-16 -4.1609e-16 -0 7.94845e-16 -0 7.9465e-16)
(7.95686e-16 -4.16689e-16 -0 7.95852e-16 -0 7.958e-16)
(8.06823e-16 -4.12552e-16 -0 8.06603e-16 -0 8.06729e-16)
(8.07292e-16 -4.13406e-16 -0 8.06884e-16 -0 8.07228e-16)
(8.07406e-16 -4.13489e-16 -0 8.07605e-16 -0 8.07584e-16)
(8.08038e-16 -4.13531e-16 -0 8.08122e-16 -0 8.08143e-16)
(8.0361e-16 -3.98761e-16 -0 8.03402e-16 -0 8.03528e-16)
(8.0407e-16 -3.9955e-16 -0 8.04306e-16 -0 8.04049e-16)
(8.04271e-16 -3.99587e-16 -0 8.04754e-16 -0 8.04421e-16)
(8.04478e-16 -3.99384e-16 -0 8.04827e-16 -0 8.04564e-16)
(7.88235e-16 -3.80576e-16 -0 7.88189e-16 -0 7.88179e-16)
(7.88926e-16 -3.81181e-16 -0 7.88856e-16 -0 7.88934e-16)
(7.89088e-16 -3.81214e-16 -0 7.8924e-16 -0 7.89202e-16)
(7.89007e-16 -3.80955e-16 -0 7.89011e-16 -0 7.89067e-16)
(7.63944e-16 -3.61702e-16 -0 7.63837e-16 -0 7.63924e-16)
(7.64553e-16 -3.6214e-16 -0 7.64595e-16 -0 7.64591e-16)
(7.64721e-16 -3.62185e-16 -0 7.6484e-16 -0 7.64795e-16)
(7.64428e-16 -3.61943e-16 -0 7.64519e-16 -0 7.64458e-16)
(7.33113e-16 -3.43322e-16 -0 7.33168e-16 -0 7.33124e-16)
(7.3366e-16 -3.43637e-16 -0 7.33807e-16 -0 7.33708e-16)
(7.3382e-16 -3.43685e-16 -0 7.33928e-16 -0 7.33865e-16)
(7.33474e-16 -3.43464e-16 -0 7.33459e-16 -0 7.33476e-16)
(6.97842e-16 -3.25222e-16 -0 6.97939e-16 -0 6.97887e-16)
(6.98304e-16 -3.25453e-16 -0 6.98418e-16 -0 6.98366e-16)
(6.98447e-16 -3.25492e-16 -0 6.9847e-16 -0 6.9846e-16)
(6.9805e-16 -3.25282e-16 -0 6.98011e-16 -0 6.98018e-16)
(6.59686e-16 -3.0694e-16 -0 6.59808e-16 -0 6.59761e-16)
(6.59995e-16 -3.07099e-16 -0 6.60207e-16 -0 6.60064e-16)
(6.6013e-16 -3.07122e-16 -0 6.60165e-16 -0 6.60128e-16)
(6.59761e-16 -3.06921e-16 -0 6.59679e-16 -0 6.59693e-16)
(6.19896e-16 -2.88316e-16 -0 6.20047e-16 -0 6.19996e-16)
(6.20138e-16 -2.88408e-16 -0 6.20177e-16 -0 6.20212e-16)
(6.20257e-16 -2.88415e-16 -0 6.20083e-16 -0 6.20236e-16)
(6.19962e-16 -2.88224e-16 -0 6.19518e-16 -0 6.19864e-16)
(5.79431e-16 -2.69506e-16 -0 5.79754e-16 -0 5.79541e-16)
(5.79556e-16 -2.69533e-16 -0 5.79722e-16 -0 5.79625e-16)
(5.79627e-16 -2.69528e-16 -0 5.79643e-16 -0 5.79603e-16)
(5.79317e-16 -2.69367e-16 -0 5.79324e-16 -0 5.79189e-16)
(5.39236e-16 -2.50784e-16 -0 5.3938e-16 -0 5.39346e-16)
(5.39188e-16 -2.50755e-16 -0 5.39333e-16 -0 5.39249e-16)
(5.39275e-16 -2.50741e-16 -0 5.39163e-16 -0 5.39245e-16)
(5.39135e-16 -2.5061e-16 -0 5.38716e-16 -0 5.38985e-16)
(4.9972e-16 -2.32415e-16 -0 4.99922e-16 -0 4.99809e-16)
(4.99637e-16 -2.32334e-16 -0 4.99603e-16 -0 4.99687e-16)
(4.99661e-16 -2.32315e-16 -0 4.99506e-16 -0 4.9964e-16)
(4.99627e-16 -2.32215e-16 -0 4.99081e-16 -0 4.99454e-16)
(4.61425e-16 -1.95475e-16 -0 4.6159e-16 -0 4.61478e-16)
(4.61121e-16 -1.93288e-16 -0 4.61429e-16 -0 4.61149e-16)
(4.61102e-16 -1.9413e-16 -0 4.6137e-16 -0 4.6108e-16)
(4.61008e-16 -1.942e-16 -0 4.61283e-16 -0 4.60835e-16)
(7.09908e-16 -3.61745e-16 -0 7.10025e-16 -0 7.09911e-16)
(7.09313e-16 -3.61315e-16 -0 7.09311e-16 -0 7.09334e-16)
(7.09265e-16 -3.61378e-16 -0 7.09259e-16 -0 7.09257e-16)
(7.09126e-16 -3.61233e-16 -0 7.09281e-16 -0 7.09126e-16)
(7.63259e-16 -4.00123e-16 -0 7.63178e-16 -0 7.6326e-16)
(7.62375e-16 -3.99501e-16 -0 7.62417e-16 -0 7.6238e-16)
(7.6266e-16 -3.99703e-16 -0 7.62318e-16 -0 7.62524e-16)
(7.62658e-16 -3.99644e-16 -0 7.62352e-16 -0 7.62676e-16)
(7.95429e-16 -4.16451e-16 -0 7.95406e-16 -0 7.95416e-16)
(7.94283e-16 -4.15599e-16 -0 7.94291e-16 -0 7.94284e-16)
(7.94762e-16 -4.16065e-16 -0 7.94609e-16 -0 7.94673e-16)
(7.94992e-16 -4.16197e-16 -0 7.95077e-16 -0 7.94979e-16)
(8.07878e-16 -4.13417e-16 -0 8.07912e-16 -0 8.07852e-16)
(8.06672e-16 -4.12592e-16 -0 8.06621e-16 -0 8.06672e-16)
(8.0721e-16 -4.131e-16 -0 8.07218e-16 -0 8.07153e-16)
(8.0759e-16 -4.13325e-16 -0 8.07842e-16 -0 8.07549e-16)
(8.04537e-16 -3.99318e-16 -0 8.0439e-16 -0 8.04502e-16)
(8.03271e-16 -3.98617e-16 -0 8.03308e-16 -0 8.03274e-16)
(8.03942e-16 -3.99058e-16 -0 8.03747e-16 -0 8.03908e-16)
(8.04555e-16 -3.9933e-16 -0 8.04105e-16 -0 8.04487e-16)
(7.88944e-16 -3.80899e-16 -0 7.88885e-16 -0 7.88905e-16)
(7.87826e-16 -3.80329e-16 -0 7.87811e-16 -0 7.87832e-16)
(7.88397e-16 -3.80683e-16 -0 7.88402e-16 -0 7.88377e-16)
(7.88962e-16 -3.80972e-16 -0 7.88898e-16 -0 7.88889e-16)
(7.64393e-16 -3.61881e-16 -0 7.64327e-16 -0 7.64351e-16)
(7.63384e-16 -3.61418e-16 -0 7.63414e-16 -0 7.63399e-16)
(7.63933e-16 -3.61705e-16 -0 7.63941e-16 -0 7.6392e-16)
(7.64501e-16 -3.61972e-16 -0 7.64423e-16 -0 7.64418e-16)
(7.33409e-16 -3.43404e-16 -0 7.33302e-16 -0 7.33363e-16)
(7.32511e-16 -3.43017e-16 -0 7.32553e-16 -0 7.32537e-16)
(7.33033e-16 -3.43257e-16 -0 7.32991e-16 -0 7.33024e-16)
(7.3363e-16 -3.43508e-16 -0 7.33397e-16 -0 7.33554e-16)
(6.97965e-16 -3.25229e-16 -0 6.97888e-16 -0 6.97912e-16)
(6.97174e-16 -3.24904e-16 -0 6.97269e-16 -0 6.9722e-16)
(6.97646e-16 -3.25106e-16 -0 6.97661e-16 -0 6.9764e-16)
(6.98215e-16 -3.2535e-16 -0 6.98134e-16 -0 6.98137e-16)
(6.59699e-16 -3.06883e-16 -0 6.5957e-16 -0 6.59633e-16)
(6.58969e-16 -3.06607e-16 -0 6.59111e-16 -0 6.59036e-16)
(6.59425e-16 -3.0678e-16 -0 6.59388e-16 -0 6.59418e-16)
(6.60037e-16 -3.07029e-16 -0 6.59817e-16 -0 6.59968e-16)
(6.19862e-16 -2.8821e-16 -0 6.19603e-16 -0 6.1979e-16)
(6.19183e-16 -2.87973e-16 -0 6.1927e-16 -0 6.19275e-16)
(6.19563e-16 -2.8812e-16 -0 6.19559e-16 -0 6.19555e-16)
(6.20194e-16 -2.88382e-16 -0 6.20047e-16 -0 6.20125e-16)
(5.79293e-16 -2.69365e-16 -0 5.79317e-16 -0 5.79209e-16)
(5.78677e-16 -2.69158e-16 -0 5.79018e-16 -0 5.78792e-16)
(5.79066e-16 -2.69282e-16 -0 5.79154e-16 -0 5.79062e-16)
(5.79686e-16 -2.69563e-16 -0 5.79782e-16 -0 5.79629e-16)
(5.39097e-16 -2.50624e-16 -0 5.38823e-16 -0 5.39009e-16)
(5.38457e-16 -2.50439e-16 -0 5.38683e-16 -0 5.38598e-16)
(5.38795e-16 -2.50541e-16 -0 5.38794e-16 -0 5.38803e-16)
(5.39542e-16 -2.50842e-16 -0 5.39304e-16 -0 5.3949e-16)
(4.99558e-16 -2.32246e-16 -0 4.9934e-16 -0 4.99462e-16)
(4.98947e-16 -2.32076e-16 -0 4.99209e-16 -0 4.9911e-16)
(4.99228e-16 -2.32158e-16 -0 4.99309e-16 -0 4.99256e-16)
(4.99945e-16 -2.32477e-16 -0 5.00001e-16 -0 4.99905e-16)
(4.6112e-16 -1.94344e-16 -0 4.61259e-16 -0 4.61035e-16)
(4.60567e-16 -1.94407e-16 -0 4.61084e-16 -0 4.60739e-16)
(4.60875e-16 -1.94679e-16 -0 4.60992e-16 -0 4.60928e-16)
(4.61642e-16 -1.96434e-16 -0 4.61683e-16 -0 4.61613e-16)
)
;

boundaryField
{
    topWall
    {
        type            kqRWallFunction;
        value           nonuniform List<symmTensor> 0();
    }
    botWall
    {
        type            kqRWallFunction;
        value           nonuniform List<symmTensor> 0();
    }
    inlet
    {
        type            cyclic;
    }
    outlet
    {
        type            cyclic;
    }
    fixWall
    {
        type            empty;
    }
    procBoundary4to3
    {
        type            processor;
        value           nonuniform List<symmTensor> 8((6.47592e-16 -1.99056e-16 -0 6.47712e-16 -0 6.47679e-16) (6.46883e-16 -1.97174e-16 -0 6.46969e-16 -0 6.46933e-16) (6.47375e-16 -1.97416e-16 -0 6.47259e-16 -0 6.47291e-16) (6.4916e-16 -1.98945e-16 -0 6.49075e-16 -0 6.49081e-16) (6.48405e-16 -1.98158e-16 -0 6.48488e-16 -0 6.48441e-16) (6.47825e-16 -1.97636e-16 -0 6.47905e-16 -0 6.47865e-16) (6.47852e-16 -1.98056e-16 -0 6.47779e-16 -0 6.47813e-16) (6.47764e-16 -1.98726e-16 -0 6.47766e-16 -0 6.47752e-16));
    }
    procBoundary4to5
    {
        type            processor;
        value           nonuniform List<symmTensor> 8((4.25073e-16 -1.5539e-16 -0 4.24912e-16 -0 4.25063e-16) (4.24693e-16 -1.52887e-16 -0 4.24741e-16 -0 4.24701e-16) (4.24669e-16 -1.54041e-16 -0 4.2456e-16 -0 4.2468e-16) (4.24901e-16 -1.54387e-16 -0 4.24051e-16 -0 4.24742e-16) (4.24899e-16 -1.54249e-16 -0 4.24336e-16 -0 4.24817e-16) (4.24259e-16 -1.54135e-16 -0 4.2438e-16 -0 4.24426e-16) (4.24425e-16 -1.54456e-16 -0 4.24417e-16 -0 4.24506e-16) (4.25325e-16 -1.56532e-16 -0 4.24854e-16 -0 4.25307e-16));
    }
}


// ************************************************************************* //
