/*--------------------------------*- C++ -*----------------------------------*\
  =========                 |
  \\      /  F ield         | OpenFOAM: The Open Source CFD Toolbox
   \\    /   O peration     | Website:  https://openfoam.org
    \\  /    A nd           | Version:  dev
     \\/     M anipulation  |

   OpenFOAM for Windows 20.09 (v1)
   Built by CFD Support, www.cfdsupport.com (based on Symscape).
\*---------------------------------------------------------------------------*/
FoamFile
{
    version     2.0;
    format      ascii;
    class       volVectorField;
    location    "6";
    object      U;
}
// * * * * * * * * * * * * * * * * * * * * * * * * * * * * * * * * * * * * * //

dimensions      [0 1 -1 0 0 0 0];

internalField   nonuniform List<vector> 
120
(
(0.0631857 -1.68017e-05 0)
(0.0632149 7.20219e-06 0)
(0.0632049 -1.00136e-05 0)
(0.0631613 -2.16444e-05 0)
(0.0932025 -1.0535e-05 0)
(0.0925623 2.08445e-05 0)
(0.0926091 -5.80508e-06 0)
(0.0934417 -1.71216e-05 0)
(0.12273 -7.75416e-06 0)
(0.122254 -5.34446e-06 0)
(0.12232 -3.17614e-05 0)
(0.123025 -4.04684e-05 0)
(0.149019 -1.459e-05 0)
(0.148704 2.55284e-05 0)
(0.148786 -1.89561e-05 0)
(0.149348 -2.06625e-05 0)
(0.172302 -1.83721e-07 0)
(0.172157 1.53764e-05 0)
(0.172232 -3.29951e-05 0)
(0.172655 -3.91796e-05 0)
(0.192875 -7.63578e-06 0)
(0.192838 1.13757e-05 0)
(0.192899 -3.73015e-05 0)
(0.193189 -3.5143e-05 0)
(0.210914 -6.94393e-07 0)
(0.210991 1.93278e-05 0)
(0.211019 -3.49237e-05 0)
(0.211199 -3.6342e-05 0)
(0.226707 -3.54637e-06 0)
(0.226821 1.11811e-05 0)
(0.22683 -3.94127e-05 0)
(0.226935 -3.7957e-05 0)
(0.240415 -2.58081e-06 0)
(0.240579 1.50441e-05 0)
(0.240563 -3.76427e-05 0)
(0.240609 -3.56229e-05 0)
(0.25229 -5.61409e-06 0)
(0.252457 9.1312e-06 0)
(0.25244 -3.97751e-05 0)
(0.252453 -3.76798e-05 0)
(0.262496 -4.27275e-06 0)
(0.262672 9.92132e-06 0)
(0.262642 -3.89645e-05 0)
(0.262631 -3.51233e-05 0)
(0.271247 -7.27747e-06 0)
(0.271393 1.02715e-05 0)
(0.27137 -3.47482e-05 0)
(0.27135 -2.63445e-05 0)
(0.278684 -1.06639e-05 0)
(0.278807 7.01144e-06 0)
(0.278784 -4.01448e-05 0)
(0.278756 -3.9137e-05 0)
(0.284987 -8.18998e-06 0)
(0.285063 7.96211e-06 0)
(0.285061 -3.25263e-05 0)
(0.285031 -1.90034e-05 0)
(0.290291 -1.34818e-05 0)
(0.290328 9.08627e-06 0)
(0.290333 -3.68119e-05 0)
(0.290296 -2.98853e-05 0)
(0.06312 8.77034e-06 0)
(0.0631717 -4.94286e-06 0)
(0.0631837 1.38557e-05 0)
(0.0631479 1.82615e-05 0)
(0.0930993 6.28465e-06 0)
(0.0934451 -3.76167e-06 0)
(0.0931215 1.49765e-05 0)
(0.0928375 1.64408e-05 0)
(0.122779 1.48888e-05 0)
(0.122973 -7.69742e-06 0)
(0.122784 2.92241e-05 0)
(0.122615 4.24155e-05 0)
(0.149162 6.96473e-06 0)
(0.149252 -4.2146e-06 0)
(0.149165 1.92837e-05 0)
(0.149044 9.78306e-06 0)
(0.172516 1.12435e-05 0)
(0.172539 -4.58591e-06 0)
(0.172527 2.53055e-05 0)
(0.172427 2.47649e-05 0)
(0.19308 1.31104e-05 0)
(0.193067 -6.06898e-06 0)
(0.193096 2.81498e-05 0)
(0.193007 3.08051e-05 0)
(0.211103 1.22549e-05 0)
(0.211083 -3.55936e-06 0)
(0.211146 2.40138e-05 0)
(0.211046 2.43499e-05 0)
(0.226834 1.42357e-05 0)
(0.226815 -6.74409e-06 0)
(0.226901 2.71365e-05 0)
(0.226792 3.05885e-05 0)
(0.240487 1.48765e-05 0)
(0.240485 -4.24538e-06 0)
(0.240597 2.54234e-05 0)
(0.240472 3.10865e-05 0)
(0.252295 1.52014e-05 0)
(0.252311 -8.64539e-06 0)
(0.252439 2.63115e-05 0)
(0.252295 3.07281e-05 0)
(0.262449 1.71432e-05 0)
(0.262489 -6.93853e-06 0)
(0.262631 2.65071e-05 0)
(0.262475 3.64866e-05 0)
(0.271142 2.1302e-05 0)
(0.2712 -8.47576e-06 0)
(0.271349 2.62101e-05 0)
(0.271194 3.32883e-05 0)
(0.278538 1.39224e-05 0)
(0.278614 -1.37059e-05 0)
(0.278769 2.37677e-05 0)
(0.278626 3.19056e-05 0)
(0.284803 2.63828e-05 0)
(0.284888 -1.07967e-05 0)
(0.285047 2.64714e-05 0)
(0.284929 3.83771e-05 0)
(0.290076 1.69444e-05 0)
(0.290169 -1.61701e-05 0)
(0.290334 2.24461e-05 0)
(0.290249 2.95063e-05 0)
)
;

boundaryField
{
    topWall
    {
        type            noSlip;
    }
    botWall
    {
        type            noSlip;
    }
    inlet
    {
        type            cyclic;
    }
    outlet
    {
        type            cyclic;
    }
    fixWall
    {
        type            empty;
    }
    procBoundary4to3
    {
        type            processor;
        value           nonuniform List<vector> 8((0.0568227 -1.68329e-05 0) (0.0569126 2.82545e-07 0) (0.0568961 -1.3439e-05 0) (0.0567895 -2.4161e-05 0) (0.056781 1.19765e-05 0) (0.0568423 -4.89723e-06 0) (0.0568396 1.50833e-05 0) (0.0567847 2.41501e-05 0));
    }
    procBoundary4to5
    {
        type            processor;
        value           nonuniform List<vector> 8((0.29473 -1.09711e-05 0) (0.294702 9.8674e-07 0) (0.294744 -3.97637e-05 0) (0.294719 -3.01826e-05 0) (0.294495 2.08057e-05 0) (0.29459 -1.93998e-05 0) (0.294758 2.48859e-05 0) (0.294718 3.66178e-05 0));
    }
}


// ************************************************************************* //
