/*--------------------------------*- C++ -*----------------------------------*\
  =========                 |
  \\      /  F ield         | OpenFOAM: The Open Source CFD Toolbox
   \\    /   O peration     | Website:  https://openfoam.org
    \\  /    A nd           | Version:  dev
     \\/     M anipulation  |

   OpenFOAM for Windows 20.09 (v1)
   Built by CFD Support, www.cfdsupport.com (based on Symscape).
\*---------------------------------------------------------------------------*/
FoamFile
{
    version     2.0;
    format      ascii;
    class       volVectorField;
    location    "6";
    object      UMean;
}
// * * * * * * * * * * * * * * * * * * * * * * * * * * * * * * * * * * * * * //

dimensions      [0 1 -1 0 0 0 0];

internalField   nonuniform List<vector> 
120
(
(0.0475169 9.60216e-06 0)
(0.0474784 -3.38903e-06 0)
(0.0474053 -2.50218e-06 0)
(0.0474287 -4.18073e-06 0)
(0.0735405 7.08685e-06 0)
(0.0738167 -1.76639e-06 0)
(0.0735068 4.20018e-07 0)
(0.073722 -4.52886e-06 0)
(0.0981118 2.27617e-06 0)
(0.09831 -4.54121e-06 0)
(0.0980207 -5.93984e-06 0)
(0.0982154 -9.25398e-06 0)
(0.119501 5.094e-06 0)
(0.119634 -1.1384e-06 0)
(0.119389 3.55508e-06 0)
(0.119554 -6.2448e-06 0)
(0.138 -3.75162e-06 0)
(0.138105 1.72583e-06 0)
(0.137903 -1.83171e-06 0)
(0.13803 -9.20302e-06 0)
(0.153923 3.51365e-06 0)
(0.154 -3.01645e-06 0)
(0.153836 1.92393e-06 0)
(0.153933 -9.86084e-06 0)
(0.167524 -6.53083e-06 0)
(0.167598 3.86078e-06 0)
(0.16747 4.56825e-07 0)
(0.167532 -8.94323e-06 0)
(0.179101 1.30266e-06 0)
(0.179158 -1.12455e-06 0)
(0.179056 3.40105e-06 0)
(0.179103 -1.07874e-05 0)
(0.188874 -7.13147e-06 0)
(0.188929 3.89595e-06 0)
(0.18885 1.41338e-06 0)
(0.188882 -9.03498e-06 0)
(0.197088 -2.04859e-06 0)
(0.197132 -2.84082e-07 0)
(0.19708 3.90064e-06 0)
(0.197109 -1.14258e-05 0)
(0.203944 -6.8058e-06 0)
(0.203984 3.16725e-06 0)
(0.203957 2.26951e-06 0)
(0.203976 -9.28194e-06 0)
(0.209645 -4.34105e-06 0)
(0.209657 8.98719e-07 0)
(0.20966 4.25076e-06 0)
(0.209684 -8.94597e-06 0)
(0.214343 -6.78409e-06 0)
(0.214336 2.55416e-06 0)
(0.214364 1.86109e-06 0)
(0.214389 -1.00747e-05 0)
(0.218201 -5.27614e-06 0)
(0.218166 1.08275e-06 0)
(0.218218 3.39292e-06 0)
(0.218249 -6.22833e-06 0)
(0.221339 -6.20595e-06 0)
(0.221285 2.70689e-06 0)
(0.221357 1.13533e-06 0)
(0.221387 -7.92931e-06 0)
(0.0474271 4.55117e-06 0)
(0.047477 -6.98474e-06 0)
(0.0474535 -8.54934e-06 0)
(0.0474544 1.20646e-05 0)
(0.0736885 3.79473e-06 0)
(0.0736462 -7.35258e-06 0)
(0.0736928 -7.66224e-06 0)
(0.0733562 7.86678e-06 0)
(0.0981677 5.8259e-06 0)
(0.0981165 -6.66828e-06 0)
(0.0981925 -5.42975e-06 0)
(0.0979965 2.03413e-05 0)
(0.119498 6.22913e-06 0)
(0.119453 -9.38044e-06 0)
(0.119536 -4.25036e-06 0)
(0.119404 9.00969e-06 0)
(0.137977 5.91023e-06 0)
(0.137946 -5.11866e-06 0)
(0.13803 -4.98845e-06 0)
(0.137944 1.61213e-05 0)
(0.153888 9.08129e-06 0)
(0.153869 -1.17278e-05 0)
(0.153937 -3.33875e-06 0)
(0.153863 1.39717e-05 0)
(0.167497 6.32031e-06 0)
(0.167497 -5.96704e-06 0)
(0.167555 -4.88102e-06 0)
(0.16748 1.48203e-05 0)
(0.179073 9.64318e-06 0)
(0.179084 -1.16254e-05 0)
(0.179128 -3.10867e-06 0)
(0.179054 1.34e-05 0)
(0.188854 6.81014e-06 0)
(0.188876 -8.29644e-06 0)
(0.188913 -3.86595e-06 0)
(0.188836 1.61398e-05 0)
(0.197067 9.31416e-06 0)
(0.197094 -1.14547e-05 0)
(0.19713 -2.54422e-06 0)
(0.197052 1.32355e-05 0)
(0.203917 7.35063e-06 0)
(0.203956 -1.03745e-05 0)
(0.203996 -2.08091e-06 0)
(0.203916 1.70833e-05 0)
(0.209593 1.01357e-05 0)
(0.20964 -1.16137e-05 0)
(0.209684 -2.40295e-06 0)
(0.209613 1.44298e-05 0)
(0.214274 7.16535e-06 0)
(0.214331 -1.34708e-05 0)
(0.214381 -2.4308e-06 0)
(0.214318 1.6307e-05 0)
(0.218112 1.14684e-05 0)
(0.21817 -1.25029e-05 0)
(0.218221 -1.75369e-06 0)
(0.218176 1.62119e-05 0)
(0.221239 8.94752e-06 0)
(0.221301 -1.56055e-05 0)
(0.221357 -2.96486e-06 0)
(0.221327 1.56439e-05 0)
)
;

boundaryField
{
    topWall
    {
        type            calculated;
        value           nonuniform List<vector> 0();
    }
    botWall
    {
        type            calculated;
        value           nonuniform List<vector> 0();
    }
    inlet
    {
        type            cyclic;
    }
    outlet
    {
        type            cyclic;
    }
    fixWall
    {
        type            empty;
    }
    procBoundary4to3
    {
        type            processor;
        value           nonuniform List<vector> 8((0.0421137 1.07044e-05 0) (0.0420667 -4.73588e-06 0) (0.0420185 -3.81746e-06 0) (0.0420243 -4.36217e-06 0) (0.0420392 5.27042e-06 0) (0.0420857 -6.61684e-06 0) (0.0420556 -8.95353e-06 0) (0.0420548 1.47936e-05 0));
    }
    procBoundary4to5
    {
        type            processor;
        value           nonuniform List<vector> 8((0.22389 -5.08263e-06 0) (0.223802 -2.50082e-07 0) (0.223896 5.34135e-07 0) (0.223933 -7.53347e-06 0) (0.223774 1.03971e-05 0) (0.22383 -1.52516e-05 0) (0.223881 -9.21611e-07 0) (0.223882 1.56478e-05 0));
    }
}


// ************************************************************************* //
