/*--------------------------------*- C++ -*----------------------------------*\
  =========                 |
  \\      /  F ield         | OpenFOAM: The Open Source CFD Toolbox
   \\    /   O peration     | Website:  https://openfoam.org
    \\  /    A nd           | Version:  dev
     \\/     M anipulation  |

   OpenFOAM for Windows 20.09 (v1)
   Built by CFD Support, www.cfdsupport.com (based on Symscape).
\*---------------------------------------------------------------------------*/
FoamFile
{
    version     2.0;
    format      ascii;
    class       volSymmTensorField;
    location    "6";
    object      UPrime2Mean;
}
// * * * * * * * * * * * * * * * * * * * * * * * * * * * * * * * * * * * * * //

dimensions      [0 2 -2 0 0 0 0];

internalField   nonuniform List<symmTensor> 
120
(
(0.000111636 -6.68752e-08 0 3.70425e-10 0 0)
(0.000112048 8.8286e-08 0 7.33395e-11 0 0)
(0.000112361 -1.17147e-08 0 4.14806e-11 0 0)
(0.000111475 -1.07116e-07 0 1.09362e-10 0 0)
(0.000173331 -6.09081e-08 0 1.57144e-10 0 0)
(0.000167328 1.72679e-07 0 1.89132e-10 0 0)
(0.00017129 -1.83761e-09 0 3.83517e-11 0 0)
(0.000182669 -1.07939e-07 0 6.4715e-11 0 0)
(0.000279447 1.04662e-08 0 1.32639e-10 0 0)
(0.000274123 1.40845e-08 0 4.92413e-12 0 0)
(0.000278649 -1.77394e-07 0 2.24937e-10 0 0)
(0.000289151 -2.59245e-07 0 3.17402e-10 0 0)
(0.000407808 -1.25763e-07 0 1.57981e-10 0 0)
(0.00040366 2.80944e-07 0 2.37681e-10 0 0)
(0.000408525 -1.68844e-07 0 1.81568e-10 0 0)
(0.000417154 -1.74994e-07 0 7.7296e-11 0 0)
(0.00055472 1.24841e-07 0 4.61511e-11 0 0)
(0.000552698 1.21167e-07 0 6.56892e-11 0 0)
(0.000557222 -3.24251e-07 0 3.18933e-10 0 0)
(0.000563705 -3.09514e-07 0 2.96637e-10 0 0)
(0.000717164 -1.02439e-07 0 4.71243e-11 0 0)
(0.000716726 2.21215e-07 0 7.42324e-11 0 0)
(0.000720892 -4.10529e-07 0 5.34393e-10 0 0)
(0.000724999 -3.31204e-07 0 2.08136e-10 0 0)
(0.00088994 1.53815e-07 0 2.94647e-11 0 0)
(0.00089177 1.63345e-07 0 8.8544e-11 0 0)
(0.00089475 -4.50329e-07 0 4.16188e-10 0 0)
(0.000897035 -3.28607e-07 0 2.57218e-10 0 0)
(0.00106983 -6.39118e-08 0 8.01713e-12 0 0)
(0.00107266 2.27457e-07 0 5.32794e-11 0 0)
(0.00107479 -5.40731e-07 0 6.42353e-10 0 0)
(0.00107563 -3.92942e-07 0 2.42634e-10 0 0)
(0.0012515 1.35743e-07 0 1.58574e-11 0 0)
(0.00125573 1.39125e-07 0 4.63559e-11 0 0)
(0.00125653 -5.66755e-07 0 5.168e-10 0 0)
(0.00125656 -3.73999e-07 0 2.43671e-10 0 0)
(0.00143184 -7.15633e-08 0 4.26318e-12 0 0)
(0.00143633 2.01674e-07 0 3.11888e-11 0 0)
(0.00143658 -6.40041e-07 0 6.68649e-10 0 0)
(0.00143597 -4.18913e-07 0 2.30595e-10 0 0)
(0.00160639 1.01989e-07 0 7.96494e-12 0 0)
(0.00161139 8.71781e-08 0 1.83673e-11 0 0)
(0.0016105 -6.65149e-07 0 5.82899e-10 0 0)
(0.00160968 -4.26496e-07 0 2.26056e-10 0 0)
(0.00177289 -6.6697e-08 0 2.91871e-12 0 0)
(0.00177775 2.25677e-07 0 3.11792e-11 0 0)
(0.00177629 -6.27428e-07 0 5.39134e-10 0 0)
(0.00177501 -2.86142e-07 0 1.05708e-10 0 0)
(0.00192808 -3.09761e-08 0 9.22048e-12 0 0)
(0.00193301 8.31946e-08 0 6.63924e-12 0 0)
(0.00193094 -7.34003e-07 0 6.10202e-10 0 0)
(0.00192942 -5.52105e-07 0 2.80001e-10 0 0)
(0.00207132 -5.27743e-08 0 2.93774e-12 0 0)
(0.0020755 1.59237e-07 0 1.55354e-11 0 0)
(0.00207352 -6.35786e-07 0 4.53235e-10 0 0)
(0.00207175 -2.08206e-07 0 6.07546e-11 0 0)
(0.00220129 -1.27077e-07 0 1.91911e-11 0 0)
(0.00220465 1.75371e-07 0 1.48118e-11 0 0)
(0.00220245 -6.98466e-07 0 5.03651e-10 0 0)
(0.00220036 -4.39964e-07 0 1.60834e-10 0 0)
(0.000111147 -1.43923e-08 0 4.72963e-11 0 0)
(0.000111826 -4.86822e-08 0 1.114e-10 0 0)
(0.000111977 9.80443e-08 0 1.7188e-10 0 0)
(0.000111438 3.93398e-08 0 1.4386e-11 0 0)
(0.000174552 -2.60028e-08 0 3.54471e-11 0 0)
(0.000175753 -5.92299e-08 0 1.44556e-10 0 0)
(0.00017326 1.19897e-07 0 1.77188e-10 0 0)
(0.000173118 5.25056e-08 0 2.39657e-11 0 0)
(0.000281401 4.45008e-08 0 3.59956e-11 0 0)
(0.000282146 -8.03373e-08 0 6.41686e-11 0 0)
(0.000280868 2.32719e-07 0 4.13773e-10 0 0)
(0.000280546 1.97711e-07 0 1.63718e-10 0 0)
(0.000410541 5.01958e-08 0 1.5104e-11 0 0)
(0.000410546 -9.65121e-08 0 1.84953e-10 0 0)
(0.000410518 1.79544e-07 0 1.97848e-10 0 0)
(0.000409863 5.41079e-08 0 1.77153e-11 0 0)
(0.000558094 9.34398e-08 0 1.58596e-11 0 0)
(0.000557813 -7.65214e-08 0 4.04413e-11 0 0)
(0.00055879 2.42912e-07 0 3.52931e-10 0 0)
(0.00055753 1.26716e-07 0 2.94894e-11 0 0)
(0.000720588 1.52167e-07 0 5.12379e-11 0 0)
(0.000719917 -1.53013e-07 0 2.40401e-10 0 0)
(0.000721507 3.19988e-07 0 3.51719e-10 0 0)
(0.00072006 2.79949e-07 0 1.1159e-10 0 0)
(0.000893364 1.63452e-07 0 3.43147e-11 0 0)
(0.000892678 -9.23486e-08 0 6.00328e-11 0 0)
(0.000894698 2.71357e-07 0 3.40369e-10 0 0)
(0.000892686 1.5814e-07 0 3.1472e-11 0 0)
(0.00107242 2.13112e-07 0 6.76411e-11 0 0)
(0.00107175 -1.92844e-07 0 2.25678e-10 0 0)
(0.001074 3.65203e-07 0 3.30338e-10 0 0)
(0.00107171 3.34552e-07 0 1.09942e-10 0 0)
(0.00125328 2.35335e-07 0 4.69872e-11 0 0)
(0.00125258 -1.22991e-07 0 9.96541e-11 0 0)
(0.00125542 3.35366e-07 0 3.42435e-10 0 0)
(0.00125284 2.76474e-07 0 7.43246e-11 0 0)
(0.00143229 2.66967e-07 0 7.02822e-11 0 0)
(0.00143188 -2.30151e-07 0 1.81241e-10 0 0)
(0.00143495 3.96114e-07 0 3.04936e-10 0 0)
(0.00143202 3.73941e-07 0 1.07604e-10 0 0)
(0.0016056 3.06226e-07 0 6.04002e-11 0 0)
(0.00160554 -1.71125e-07 0 1.17615e-10 0 0)
(0.00160915 3.88283e-07 0 3.15679e-10 0 0)
(0.00160587 3.98823e-07 0 1.24164e-10 0 0)
(0.00177074 3.82687e-07 0 8.75748e-11 0 0)
(0.00177127 -2.23389e-07 0 1.5511e-10 0 0)
(0.00177504 4.32166e-07 0 3.03328e-10 0 0)
(0.00177141 4.29347e-07 0 1.20605e-10 0 0)
(0.00192504 2.71928e-07 0 4.42004e-11 0 0)
(0.00192597 -2.84127e-07 0 1.3385e-10 0 0)
(0.00193017 3.87623e-07 0 2.67562e-10 0 0)
(0.00192641 3.71792e-07 0 8.2689e-11 0 0)
(0.00206738 4.92413e-07 0 1.18302e-10 0 0)
(0.00206888 -2.45341e-07 0 1.29184e-10 0 0)
(0.00207316 4.67774e-07 0 2.93065e-10 0 0)
(0.00206949 5.27574e-07 0 1.63219e-10 0 0)
(0.0021963 3.13801e-07 0 4.85144e-11 0 0)
(0.00219808 -3.28681e-07 0 1.52336e-10 0 0)
(0.00220268 3.99538e-07 0 2.54167e-10 0 0)
(0.00219983 3.69003e-07 0 6.7676e-11 0 0)
)
;

boundaryField
{
    topWall
    {
        type            calculated;
        value           nonuniform List<symmTensor> 0();
    }
    botWall
    {
        type            calculated;
        value           nonuniform List<symmTensor> 0();
    }
    inlet
    {
        type            cyclic;
    }
    outlet
    {
        type            cyclic;
    }
    fixWall
    {
        type            empty;
    }
    procBoundary4to3
    {
        type            processor;
        value           nonuniform List<symmTensor> 8((9.81496e-05 -6.06347e-08 0 4.2809e-10 0 0) (9.90691e-05 5.90606e-08 0 5.24639e-11 0 0) (9.90093e-05 -2.19152e-08 0 5.25155e-11 0 0) (9.76963e-05 -1.10152e-07 0 1.35957e-10 0 0) (9.77425e-05 -3.04838e-09 0 6.03382e-11 0 0) (9.84153e-05 -4.48679e-08 0 1.03122e-10 0 0) (9.84682e-05 9.79702e-08 0 1.99099e-10 0 0) (9.78501e-05 5.41427e-08 0 3.16529e-11 0 0));
    }
    procBoundary4to5
    {
        type            processor;
        value           nonuniform List<symmTensor> 8((0.00231719 -8.77923e-08 0 1.46097e-11 0 0) (0.00231907 4.35235e-10 0 1.64836e-12 0 0) (0.00231767 -7.91396e-07 0 5.55264e-10 0 0) (0.00231586 -4.51897e-07 0 1.7378e-10 0 0) (0.00231191 4.12033e-07 0 7.87156e-11 0 0) (0.00231417 -3.78681e-07 0 1.22494e-10 0 0) (0.00231911 4.49613e-07 0 2.47229e-10 0 0) (0.00231675 5.22299e-07 0 1.45227e-10 0 0));
    }
}


// ************************************************************************* //
