/*--------------------------------*- C++ -*----------------------------------*\
  =========                 |
  \\      /  F ield         | OpenFOAM: The Open Source CFD Toolbox
   \\    /   O peration     | Website:  https://openfoam.org
    \\  /    A nd           | Version:  dev
     \\/     M anipulation  |

   OpenFOAM for Windows 20.09 (v1)
   Built by CFD Support, www.cfdsupport.com (based on Symscape).
\*---------------------------------------------------------------------------*/
FoamFile
{
    version     2.0;
    format      ascii;
    class       volScalarField;
    location    "70";
    object      epsilon;
}
// * * * * * * * * * * * * * * * * * * * * * * * * * * * * * * * * * * * * * //

dimensions      [0 2 -3 0 0 0 0];

internalField   nonuniform List<scalar> 
1600
(
2.78534e-05
2.78533e-05
2.78533e-05
2.78534e-05
2.78534e-05
2.78534e-05
2.78534e-05
2.78535e-05
2.78535e-05
2.78535e-05
2.78534e-05
2.78534e-05
2.78533e-05
2.78533e-05
2.78533e-05
2.78534e-05
2.78535e-05
2.78536e-05
2.78536e-05
2.78537e-05
2.78537e-05
2.78537e-05
2.78537e-05
2.78537e-05
2.78536e-05
2.78534e-05
2.78533e-05
2.78532e-05
2.78532e-05
2.78532e-05
2.78532e-05
2.78532e-05
2.78532e-05
2.78532e-05
2.78532e-05
2.78532e-05
2.78532e-05
2.78532e-05
2.78532e-05
2.78533e-05
1.96681e-05
1.96681e-05
1.96681e-05
1.96681e-05
1.96681e-05
1.96681e-05
1.96681e-05
1.96681e-05
1.96682e-05
1.96682e-05
1.96682e-05
1.96681e-05
1.96681e-05
1.96681e-05
1.96681e-05
1.96681e-05
1.96681e-05
1.96682e-05
1.96682e-05
1.96682e-05
1.96682e-05
1.96682e-05
1.96682e-05
1.96682e-05
1.96682e-05
1.96681e-05
1.9668e-05
1.9668e-05
1.9668e-05
1.9668e-05
1.9668e-05
1.9668e-05
1.9668e-05
1.9668e-05
1.9668e-05
1.9668e-05
1.9668e-05
1.9668e-05
1.9668e-05
1.96682e-05
1.50443e-05
1.50443e-05
1.50443e-05
1.50443e-05
1.50443e-05
1.50443e-05
1.50443e-05
1.50443e-05
1.50443e-05
1.50443e-05
1.50443e-05
1.50443e-05
1.50443e-05
1.50443e-05
1.50443e-05
1.50443e-05
1.50443e-05
1.50443e-05
1.50443e-05
1.50443e-05
1.50443e-05
1.50443e-05
1.50443e-05
1.50443e-05
1.50443e-05
1.50443e-05
1.50442e-05
1.50442e-05
1.50442e-05
1.50442e-05
1.50442e-05
1.50442e-05
1.50442e-05
1.50442e-05
1.50442e-05
1.50442e-05
1.50442e-05
1.50442e-05
1.50442e-05
1.50443e-05
1.25314e-05
1.25314e-05
1.25314e-05
1.25314e-05
1.25314e-05
1.25314e-05
1.25314e-05
1.25314e-05
1.25314e-05
1.25314e-05
1.25314e-05
1.25314e-05
1.25314e-05
1.25313e-05
1.25313e-05
1.25313e-05
1.25313e-05
1.25313e-05
1.25313e-05
1.25313e-05
1.25313e-05
1.25313e-05
1.25313e-05
1.25313e-05
1.25313e-05
1.25313e-05
1.25313e-05
1.25312e-05
1.25312e-05
1.25312e-05
1.25312e-05
1.25313e-05
1.25313e-05
1.25313e-05
1.25313e-05
1.25313e-05
1.25313e-05
1.25313e-05
1.25313e-05
1.25313e-05
1.10469e-05
1.10469e-05
1.10469e-05
1.10469e-05
1.1047e-05
1.1047e-05
1.1047e-05
1.1047e-05
1.1047e-05
1.1047e-05
1.1047e-05
1.1047e-05
1.10469e-05
1.10469e-05
1.10469e-05
1.10469e-05
1.10469e-05
1.10469e-05
1.10469e-05
1.10469e-05
1.10469e-05
1.10469e-05
1.10469e-05
1.10469e-05
1.10469e-05
1.10469e-05
1.10468e-05
1.10468e-05
1.10468e-05
1.10468e-05
1.10468e-05
1.10468e-05
1.10468e-05
1.10469e-05
1.10468e-05
1.10468e-05
1.10468e-05
1.10469e-05
1.10469e-05
1.10469e-05
1.01207e-05
1.01208e-05
1.01209e-05
1.0121e-05
1.01211e-05
1.01211e-05
1.01211e-05
1.01211e-05
1.01211e-05
1.01211e-05
1.01211e-05
1.01211e-05
1.0121e-05
1.0121e-05
1.0121e-05
1.0121e-05
1.0121e-05
1.0121e-05
1.0121e-05
1.0121e-05
1.0121e-05
1.0121e-05
1.0121e-05
1.0121e-05
1.0121e-05
1.0121e-05
1.0121e-05
1.0121e-05
1.0121e-05
1.0121e-05
1.0121e-05
1.0121e-05
1.0121e-05
1.0121e-05
1.0121e-05
1.0121e-05
1.0121e-05
1.0121e-05
1.0121e-05
1.01209e-05
9.52632e-06
9.52647e-06
9.52664e-06
9.52674e-06
9.52679e-06
9.52682e-06
9.52683e-06
9.52684e-06
9.52685e-06
9.52685e-06
9.52682e-06
9.52678e-06
9.52676e-06
9.52674e-06
9.52671e-06
9.52672e-06
9.52672e-06
9.52673e-06
9.52673e-06
9.52673e-06
9.52674e-06
9.52675e-06
9.52675e-06
9.52677e-06
9.52677e-06
9.52676e-06
9.52675e-06
9.52675e-06
9.52675e-06
9.52676e-06
9.52675e-06
9.52676e-06
9.52675e-06
9.52676e-06
9.52676e-06
9.52676e-06
9.52677e-06
9.52678e-06
9.52679e-06
9.52668e-06
9.14267e-06
9.14283e-06
9.14299e-06
9.14309e-06
9.14314e-06
9.14317e-06
9.14318e-06
9.14319e-06
9.1432e-06
9.1432e-06
9.14318e-06
9.14316e-06
9.14315e-06
9.14313e-06
9.14312e-06
9.14314e-06
9.14314e-06
9.14314e-06
9.14314e-06
9.14315e-06
9.14315e-06
9.14316e-06
9.14317e-06
9.14318e-06
9.14318e-06
9.14317e-06
9.14316e-06
9.14318e-06
9.14317e-06
9.14317e-06
9.14318e-06
9.14317e-06
9.14318e-06
9.14318e-06
9.14318e-06
9.14319e-06
9.1432e-06
9.14321e-06
9.14321e-06
9.14308e-06
8.89959e-06
8.89974e-06
8.89989e-06
8.89998e-06
8.90003e-06
8.90005e-06
8.90007e-06
8.90009e-06
8.9001e-06
8.9001e-06
8.9001e-06
8.9001e-06
8.90008e-06
8.90007e-06
8.90009e-06
8.90008e-06
8.90009e-06
8.90008e-06
8.90009e-06
8.9001e-06
8.90011e-06
8.90012e-06
8.90012e-06
8.90013e-06
8.90012e-06
8.90013e-06
8.90013e-06
8.90013e-06
8.90013e-06
8.90013e-06
8.90013e-06
8.90013e-06
8.90013e-06
8.90014e-06
8.90014e-06
8.90016e-06
8.90016e-06
8.90016e-06
8.90017e-06
8.90002e-06
8.75352e-06
8.75368e-06
8.75383e-06
8.75391e-06
8.75395e-06
8.75398e-06
8.754e-06
8.75402e-06
8.75403e-06
8.75404e-06
8.75405e-06
8.75405e-06
8.75405e-06
8.75405e-06
8.75406e-06
8.75406e-06
8.75405e-06
8.75405e-06
8.75405e-06
8.75407e-06
8.75407e-06
8.75408e-06
8.75407e-06
8.75408e-06
8.75409e-06
8.75408e-06
8.75409e-06
8.75409e-06
8.75408e-06
8.75409e-06
8.75408e-06
8.75408e-06
8.75409e-06
8.7541e-06
8.75411e-06
8.75412e-06
8.75412e-06
8.75414e-06
8.75414e-06
8.75397e-06
8.67577e-06
8.67596e-06
8.67613e-06
8.67621e-06
8.67625e-06
8.67628e-06
8.6763e-06
8.67632e-06
8.67633e-06
8.67634e-06
8.67634e-06
8.67635e-06
8.67636e-06
8.67636e-06
8.67637e-06
8.67636e-06
8.67635e-06
8.67631e-06
8.67631e-06
8.67632e-06
8.67632e-06
8.67633e-06
8.67634e-06
8.67635e-06
8.67635e-06
8.67634e-06
8.67635e-06
8.67634e-06
8.67635e-06
8.67634e-06
8.67634e-06
8.67635e-06
8.67635e-06
8.67636e-06
8.67637e-06
8.67638e-06
8.6764e-06
8.67642e-06
8.67641e-06
8.67624e-06
8.64637e-06
8.64662e-06
8.64683e-06
8.64692e-06
8.64696e-06
8.64698e-06
8.647e-06
8.64701e-06
8.64702e-06
8.64703e-06
8.64703e-06
8.64704e-06
8.64705e-06
8.64705e-06
8.64702e-06
8.64699e-06
8.64694e-06
8.6469e-06
8.6469e-06
8.6469e-06
8.6469e-06
8.64692e-06
8.64693e-06
8.64694e-06
8.64694e-06
8.64693e-06
8.64692e-06
8.64693e-06
8.64693e-06
8.64693e-06
8.64694e-06
8.64695e-06
8.64695e-06
8.64696e-06
8.64697e-06
8.64699e-06
8.647e-06
8.64701e-06
8.647e-06
8.64683e-06
8.65083e-06
8.65121e-06
8.65139e-06
8.65145e-06
8.65147e-06
8.65147e-06
8.65147e-06
8.65147e-06
8.65149e-06
8.65149e-06
8.6515e-06
8.6515e-06
8.65149e-06
8.65143e-06
8.65137e-06
8.65133e-06
8.65128e-06
8.65123e-06
8.65121e-06
8.6512e-06
8.65121e-06
8.65122e-06
8.65123e-06
8.65125e-06
8.65123e-06
8.65123e-06
8.65123e-06
8.65124e-06
8.65126e-06
8.65125e-06
8.65126e-06
8.65127e-06
8.65128e-06
8.65128e-06
8.65129e-06
8.6513e-06
8.6513e-06
8.65131e-06
8.65131e-06
8.65115e-06
8.67834e-06
8.67852e-06
8.67858e-06
8.67858e-06
8.67853e-06
8.6785e-06
8.67848e-06
8.6785e-06
8.67851e-06
8.67851e-06
8.67851e-06
8.67847e-06
8.67841e-06
8.67833e-06
8.67827e-06
8.67822e-06
8.67816e-06
8.67811e-06
8.67807e-06
8.67804e-06
8.67805e-06
8.67806e-06
8.67808e-06
8.67807e-06
8.67807e-06
8.67808e-06
8.6781e-06
8.67811e-06
8.6781e-06
8.6781e-06
8.6781e-06
8.67811e-06
8.67811e-06
8.67812e-06
8.67812e-06
8.67813e-06
8.67814e-06
8.67816e-06
8.67816e-06
8.67815e-06
8.71902e-06
8.71921e-06
8.71925e-06
8.7192e-06
8.71913e-06
8.71909e-06
8.71909e-06
8.71911e-06
8.71911e-06
8.71912e-06
8.71908e-06
8.719e-06
8.71892e-06
8.71884e-06
8.71878e-06
8.71872e-06
8.71867e-06
8.71861e-06
8.71855e-06
8.71851e-06
8.71851e-06
8.71851e-06
8.71853e-06
8.71853e-06
8.71854e-06
8.71855e-06
8.71856e-06
8.71855e-06
8.71855e-06
8.71854e-06
8.71855e-06
8.71855e-06
8.71855e-06
8.71856e-06
8.71856e-06
8.71858e-06
8.71859e-06
8.71861e-06
8.71861e-06
8.71866e-06
8.76576e-06
8.76594e-06
8.76598e-06
8.76593e-06
8.7659e-06
8.76586e-06
8.76588e-06
8.76588e-06
8.76589e-06
8.76588e-06
8.76582e-06
8.76573e-06
8.76565e-06
8.76558e-06
8.76552e-06
8.76547e-06
8.76541e-06
8.76535e-06
8.76528e-06
8.76523e-06
8.7652e-06
8.7652e-06
8.7652e-06
8.76521e-06
8.76522e-06
8.76524e-06
8.76523e-06
8.76523e-06
8.76522e-06
8.76523e-06
8.76523e-06
8.76523e-06
8.76524e-06
8.76525e-06
8.76526e-06
8.76527e-06
8.76528e-06
8.76529e-06
8.7653e-06
8.76536e-06
8.81243e-06
8.81256e-06
8.81259e-06
8.81259e-06
8.81256e-06
8.81257e-06
8.81256e-06
8.81256e-06
8.81257e-06
8.81254e-06
8.81249e-06
8.81242e-06
8.81235e-06
8.81229e-06
8.81224e-06
8.81219e-06
8.81214e-06
8.81208e-06
8.81201e-06
8.81194e-06
8.81189e-06
8.81187e-06
8.81187e-06
8.81188e-06
8.81189e-06
8.8119e-06
8.81191e-06
8.81189e-06
8.81189e-06
8.8119e-06
8.8119e-06
8.81191e-06
8.81192e-06
8.81193e-06
8.81193e-06
8.81195e-06
8.81195e-06
8.81196e-06
8.81197e-06
8.81203e-06
8.85369e-06
8.85376e-06
8.85379e-06
8.85378e-06
8.85379e-06
8.85378e-06
8.85377e-06
8.85377e-06
8.85377e-06
8.85375e-06
8.85372e-06
8.85366e-06
8.85362e-06
8.85358e-06
8.85354e-06
8.8535e-06
8.85345e-06
8.85339e-06
8.85332e-06
8.85323e-06
8.85317e-06
8.85314e-06
8.85313e-06
8.85315e-06
8.85316e-06
8.85317e-06
8.85316e-06
8.85316e-06
8.85316e-06
8.85317e-06
8.85317e-06
8.85318e-06
8.85319e-06
8.85319e-06
8.8532e-06
8.8532e-06
8.85321e-06
8.85322e-06
8.85323e-06
8.8533e-06
8.88488e-06
8.88489e-06
8.88491e-06
8.88491e-06
8.88489e-06
8.88488e-06
8.88487e-06
8.88488e-06
8.88487e-06
8.88487e-06
8.88485e-06
8.88482e-06
8.8848e-06
8.88478e-06
8.88475e-06
8.88472e-06
8.88468e-06
8.88462e-06
8.88454e-06
8.88445e-06
8.88437e-06
8.88433e-06
8.88433e-06
8.88433e-06
8.88434e-06
8.88434e-06
8.88434e-06
8.88435e-06
8.88436e-06
8.88436e-06
8.88437e-06
8.88437e-06
8.88438e-06
8.88438e-06
8.88438e-06
8.88439e-06
8.88439e-06
8.8844e-06
8.88441e-06
8.88449e-06
8.90188e-06
8.90187e-06
8.90194e-06
8.90195e-06
8.90195e-06
8.90195e-06
8.90196e-06
8.90197e-06
8.90197e-06
8.90198e-06
8.90197e-06
8.90197e-06
8.90196e-06
8.90195e-06
8.90194e-06
8.90192e-06
8.90189e-06
8.90182e-06
8.90173e-06
8.90163e-06
8.90154e-06
8.90149e-06
8.90148e-06
8.90149e-06
8.9015e-06
8.9015e-06
8.90151e-06
8.90151e-06
8.90152e-06
8.90152e-06
8.90152e-06
8.90153e-06
8.90153e-06
8.90154e-06
8.90154e-06
8.90154e-06
8.90155e-06
8.90156e-06
8.90156e-06
8.90162e-06
8.90128e-06
8.90164e-06
8.9018e-06
8.90188e-06
8.90191e-06
8.90194e-06
8.90196e-06
8.90197e-06
8.90198e-06
8.90199e-06
8.90199e-06
8.90199e-06
8.902e-06
8.902e-06
8.902e-06
8.902e-06
8.90196e-06
8.90187e-06
8.90175e-06
8.90164e-06
8.90155e-06
8.90151e-06
8.9015e-06
8.90151e-06
8.90152e-06
8.90152e-06
8.90153e-06
8.90153e-06
8.90153e-06
8.90153e-06
8.90153e-06
8.90154e-06
8.90154e-06
8.90155e-06
8.90155e-06
8.90156e-06
8.90157e-06
8.90158e-06
8.90158e-06
8.90149e-06
8.88475e-06
8.88474e-06
8.8848e-06
8.88483e-06
8.88484e-06
8.88486e-06
8.88487e-06
8.88489e-06
8.88489e-06
8.8849e-06
8.88491e-06
8.88491e-06
8.88493e-06
8.88494e-06
8.88494e-06
8.88492e-06
8.88486e-06
8.88474e-06
8.88461e-06
8.88449e-06
8.88441e-06
8.88436e-06
8.88437e-06
8.88438e-06
8.88438e-06
8.88439e-06
8.88439e-06
8.8844e-06
8.88439e-06
8.88439e-06
8.8844e-06
8.8844e-06
8.88441e-06
8.88441e-06
8.88442e-06
8.88443e-06
8.88444e-06
8.88445e-06
8.88445e-06
8.8845e-06
8.85365e-06
8.85372e-06
8.85377e-06
8.85377e-06
8.85378e-06
8.85378e-06
8.85379e-06
8.8538e-06
8.85381e-06
8.85381e-06
8.85382e-06
8.85383e-06
8.85383e-06
8.85384e-06
8.85385e-06
8.85379e-06
8.85367e-06
8.85354e-06
8.85341e-06
8.8533e-06
8.85321e-06
8.85319e-06
8.8532e-06
8.8532e-06
8.85321e-06
8.85322e-06
8.85323e-06
8.85322e-06
8.85322e-06
8.85323e-06
8.85323e-06
8.85324e-06
8.85324e-06
8.85325e-06
8.85327e-06
8.85328e-06
8.85328e-06
8.85328e-06
8.85328e-06
8.85332e-06
8.81239e-06
8.81253e-06
8.8126e-06
8.81261e-06
8.81261e-06
8.81262e-06
8.81262e-06
8.81262e-06
8.81262e-06
8.81263e-06
8.81263e-06
8.81264e-06
8.81264e-06
8.81265e-06
8.81261e-06
8.8125e-06
8.81238e-06
8.81225e-06
8.81211e-06
8.812e-06
8.81192e-06
8.81192e-06
8.81192e-06
8.81194e-06
8.81194e-06
8.81196e-06
8.81195e-06
8.81195e-06
8.81196e-06
8.81197e-06
8.81198e-06
8.81199e-06
8.812e-06
8.81201e-06
8.81201e-06
8.81201e-06
8.81201e-06
8.812e-06
8.81201e-06
8.81206e-06
8.76572e-06
8.76587e-06
8.76596e-06
8.76597e-06
8.76597e-06
8.76597e-06
8.76598e-06
8.76599e-06
8.76598e-06
8.76598e-06
8.76598e-06
8.76599e-06
8.766e-06
8.76598e-06
8.76589e-06
8.76578e-06
8.76565e-06
8.76552e-06
8.76539e-06
8.76527e-06
8.76521e-06
8.76521e-06
8.76523e-06
8.76523e-06
8.76525e-06
8.76524e-06
8.76525e-06
8.76526e-06
8.76528e-06
8.76529e-06
8.7653e-06
8.7653e-06
8.76532e-06
8.76532e-06
8.7653e-06
8.76531e-06
8.7653e-06
8.7653e-06
8.76531e-06
8.76537e-06
8.719e-06
8.71916e-06
8.71925e-06
8.71925e-06
8.71925e-06
8.71926e-06
8.71927e-06
8.71927e-06
8.71926e-06
8.71926e-06
8.71927e-06
8.71928e-06
8.71929e-06
8.71924e-06
8.71913e-06
8.71901e-06
8.71889e-06
8.71875e-06
8.71863e-06
8.71852e-06
8.71847e-06
8.71849e-06
8.71849e-06
8.71851e-06
8.7185e-06
8.71851e-06
8.71852e-06
8.71854e-06
8.71855e-06
8.71857e-06
8.71857e-06
8.71859e-06
8.7186e-06
8.71859e-06
8.71858e-06
8.71859e-06
8.71858e-06
8.71859e-06
8.71859e-06
8.71864e-06
8.67849e-06
8.67865e-06
8.67873e-06
8.67874e-06
8.67874e-06
8.67875e-06
8.67875e-06
8.67875e-06
8.67876e-06
8.67876e-06
8.67877e-06
8.67879e-06
8.67877e-06
8.67868e-06
8.67857e-06
8.67846e-06
8.67833e-06
8.67821e-06
8.67809e-06
8.67799e-06
8.67797e-06
8.67797e-06
8.67799e-06
8.67799e-06
8.67799e-06
8.678e-06
8.67801e-06
8.67802e-06
8.67804e-06
8.67805e-06
8.67807e-06
8.67808e-06
8.67808e-06
8.67806e-06
8.67808e-06
8.67808e-06
8.67808e-06
8.67807e-06
8.67807e-06
8.67812e-06
8.65154e-06
8.6517e-06
8.65179e-06
8.6518e-06
8.6518e-06
8.65181e-06
8.65182e-06
8.65183e-06
8.65184e-06
8.65185e-06
8.65185e-06
8.65186e-06
8.65181e-06
8.65169e-06
8.65159e-06
8.65148e-06
8.65138e-06
8.65126e-06
8.65115e-06
8.65106e-06
8.65105e-06
8.65107e-06
8.65107e-06
8.65107e-06
8.65107e-06
8.65108e-06
8.65108e-06
8.6511e-06
8.65112e-06
8.65114e-06
8.65115e-06
8.65115e-06
8.65115e-06
8.65116e-06
8.65116e-06
8.65115e-06
8.65115e-06
8.65115e-06
8.65115e-06
8.65119e-06
8.6471e-06
8.64727e-06
8.64736e-06
8.64737e-06
8.64737e-06
8.64738e-06
8.64739e-06
8.64741e-06
8.64742e-06
8.6474e-06
8.64742e-06
8.6474e-06
8.6473e-06
8.64721e-06
8.64712e-06
8.64703e-06
8.64694e-06
8.64684e-06
8.64673e-06
8.64666e-06
8.64667e-06
8.64667e-06
8.64667e-06
8.64668e-06
8.64668e-06
8.64669e-06
8.6467e-06
8.64671e-06
8.64673e-06
8.64675e-06
8.64674e-06
8.64676e-06
8.64677e-06
8.64676e-06
8.64676e-06
8.64675e-06
8.64674e-06
8.64675e-06
8.64674e-06
8.64677e-06
8.67642e-06
8.67656e-06
8.67663e-06
8.67664e-06
8.67664e-06
8.67665e-06
8.67666e-06
8.67666e-06
8.67664e-06
8.67665e-06
8.67665e-06
8.67658e-06
8.67651e-06
8.67644e-06
8.67637e-06
8.6763e-06
8.67623e-06
8.67614e-06
8.67605e-06
8.67599e-06
8.676e-06
8.67599e-06
8.676e-06
8.67601e-06
8.67601e-06
8.67602e-06
8.67603e-06
8.67605e-06
8.67606e-06
8.67606e-06
8.67607e-06
8.67608e-06
8.67608e-06
8.67608e-06
8.67607e-06
8.67605e-06
8.67607e-06
8.67606e-06
8.67605e-06
8.67609e-06
8.75411e-06
8.75414e-06
8.7542e-06
8.7542e-06
8.75421e-06
8.7542e-06
8.75421e-06
8.7542e-06
8.75419e-06
8.7542e-06
8.75417e-06
8.75413e-06
8.75408e-06
8.75403e-06
8.75397e-06
8.75392e-06
8.75386e-06
8.75379e-06
8.75371e-06
8.75366e-06
8.75367e-06
8.75367e-06
8.75367e-06
8.75368e-06
8.75368e-06
8.7537e-06
8.75371e-06
8.75372e-06
8.75372e-06
8.75373e-06
8.75373e-06
8.75374e-06
8.75374e-06
8.75373e-06
8.75372e-06
8.75373e-06
8.75373e-06
8.75372e-06
8.75373e-06
8.75379e-06
8.89995e-06
8.89992e-06
8.90001e-06
8.90003e-06
8.90004e-06
8.90005e-06
8.90004e-06
8.90005e-06
8.90005e-06
8.90005e-06
8.90004e-06
8.90002e-06
8.89999e-06
8.89995e-06
8.89991e-06
8.89987e-06
8.89983e-06
8.89978e-06
8.89971e-06
8.89967e-06
8.89967e-06
8.89967e-06
8.89968e-06
8.89968e-06
8.89969e-06
8.8997e-06
8.8997e-06
8.89971e-06
8.89971e-06
8.89972e-06
8.89971e-06
8.89972e-06
8.89971e-06
8.89971e-06
8.89972e-06
8.89973e-06
8.89972e-06
8.89972e-06
8.89972e-06
8.89978e-06
9.14237e-06
9.14261e-06
9.14279e-06
9.14287e-06
9.14291e-06
9.14293e-06
9.14294e-06
9.14295e-06
9.14296e-06
9.14296e-06
9.14296e-06
9.14296e-06
9.14294e-06
9.14292e-06
9.14289e-06
9.14287e-06
9.14284e-06
9.14281e-06
9.14275e-06
9.14272e-06
9.1427e-06
9.14271e-06
9.14271e-06
9.14271e-06
9.14272e-06
9.14272e-06
9.14273e-06
9.14273e-06
9.14274e-06
9.14274e-06
9.14274e-06
9.14274e-06
9.14273e-06
9.14273e-06
9.14274e-06
9.14274e-06
9.14275e-06
9.14275e-06
9.14276e-06
9.14265e-06
9.52586e-06
9.52605e-06
9.52623e-06
9.52633e-06
9.52638e-06
9.52641e-06
9.52643e-06
9.52645e-06
9.52646e-06
9.52646e-06
9.52646e-06
9.52646e-06
9.52646e-06
9.52645e-06
9.52644e-06
9.52643e-06
9.52641e-06
9.52639e-06
9.52635e-06
9.52632e-06
9.5263e-06
9.5263e-06
9.5263e-06
9.5263e-06
9.5263e-06
9.5263e-06
9.5263e-06
9.5263e-06
9.52631e-06
9.52631e-06
9.52631e-06
9.5263e-06
9.52631e-06
9.52631e-06
9.52631e-06
9.52632e-06
9.52632e-06
9.52633e-06
9.52633e-06
9.52622e-06
1.01202e-05
1.01203e-05
1.01205e-05
1.01205e-05
1.01206e-05
1.01206e-05
1.01206e-05
1.01206e-05
1.01206e-05
1.01206e-05
1.01206e-05
1.01206e-05
1.01206e-05
1.01206e-05
1.01206e-05
1.01206e-05
1.01206e-05
1.01206e-05
1.01206e-05
1.01206e-05
1.01206e-05
1.01206e-05
1.01206e-05
1.01206e-05
1.01205e-05
1.01205e-05
1.01205e-05
1.01205e-05
1.01205e-05
1.01205e-05
1.01205e-05
1.01205e-05
1.01205e-05
1.01205e-05
1.01205e-05
1.01205e-05
1.01205e-05
1.01206e-05
1.01206e-05
1.01205e-05
1.10463e-05
1.10464e-05
1.10464e-05
1.10464e-05
1.10465e-05
1.10465e-05
1.10465e-05
1.10465e-05
1.10465e-05
1.10465e-05
1.10465e-05
1.10465e-05
1.10465e-05
1.10465e-05
1.10465e-05
1.10465e-05
1.10465e-05
1.10465e-05
1.10465e-05
1.10465e-05
1.10465e-05
1.10465e-05
1.10465e-05
1.10465e-05
1.10465e-05
1.10464e-05
1.10464e-05
1.10464e-05
1.10464e-05
1.10464e-05
1.10464e-05
1.10464e-05
1.10464e-05
1.10464e-05
1.10464e-05
1.10464e-05
1.10464e-05
1.10464e-05
1.10464e-05
1.10465e-05
1.25308e-05
1.25309e-05
1.25309e-05
1.25309e-05
1.25309e-05
1.25309e-05
1.25309e-05
1.25309e-05
1.2531e-05
1.2531e-05
1.2531e-05
1.2531e-05
1.2531e-05
1.2531e-05
1.2531e-05
1.2531e-05
1.2531e-05
1.2531e-05
1.2531e-05
1.2531e-05
1.2531e-05
1.2531e-05
1.2531e-05
1.2531e-05
1.25309e-05
1.25309e-05
1.25309e-05
1.25309e-05
1.25309e-05
1.25309e-05
1.25309e-05
1.25309e-05
1.25309e-05
1.25309e-05
1.25309e-05
1.25309e-05
1.25309e-05
1.25309e-05
1.25309e-05
1.2531e-05
1.50438e-05
1.50439e-05
1.50439e-05
1.50439e-05
1.50439e-05
1.50439e-05
1.50439e-05
1.50439e-05
1.50439e-05
1.5044e-05
1.5044e-05
1.5044e-05
1.5044e-05
1.5044e-05
1.5044e-05
1.5044e-05
1.5044e-05
1.5044e-05
1.5044e-05
1.5044e-05
1.5044e-05
1.5044e-05
1.5044e-05
1.5044e-05
1.5044e-05
1.50439e-05
1.50439e-05
1.50439e-05
1.50439e-05
1.50439e-05
1.50439e-05
1.50439e-05
1.50439e-05
1.50439e-05
1.50439e-05
1.50439e-05
1.50439e-05
1.50439e-05
1.50439e-05
1.5044e-05
1.96676e-05
1.96677e-05
1.96677e-05
1.96677e-05
1.96677e-05
1.96677e-05
1.96677e-05
1.96678e-05
1.96678e-05
1.96678e-05
1.96678e-05
1.96678e-05
1.96678e-05
1.96678e-05
1.96678e-05
1.96678e-05
1.96678e-05
1.96679e-05
1.96679e-05
1.96679e-05
1.96679e-05
1.96679e-05
1.96679e-05
1.96679e-05
1.96678e-05
1.96678e-05
1.96677e-05
1.96677e-05
1.96677e-05
1.96677e-05
1.96677e-05
1.96677e-05
1.96677e-05
1.96677e-05
1.96677e-05
1.96677e-05
1.96677e-05
1.96677e-05
1.96677e-05
1.96679e-05
2.78527e-05
2.78526e-05
2.78526e-05
2.78526e-05
2.78526e-05
2.78527e-05
2.78528e-05
2.78528e-05
2.78528e-05
2.78528e-05
2.78528e-05
2.78528e-05
2.78528e-05
2.78528e-05
2.78528e-05
2.78528e-05
2.78529e-05
2.78529e-05
2.7853e-05
2.7853e-05
2.7853e-05
2.7853e-05
2.7853e-05
2.7853e-05
2.78529e-05
2.78528e-05
2.78527e-05
2.78527e-05
2.78526e-05
2.78526e-05
2.78526e-05
2.78526e-05
2.78526e-05
2.78526e-05
2.78526e-05
2.78526e-05
2.78526e-05
2.78526e-05
2.78526e-05
2.78528e-05
)
;

boundaryField
{
    bottomWall
    {
        type            epsilonWallFunction;
        value           nonuniform List<scalar> 
40
(
2.78534e-05
2.78533e-05
2.78533e-05
2.78534e-05
2.78534e-05
2.78534e-05
2.78534e-05
2.78535e-05
2.78535e-05
2.78535e-05
2.78534e-05
2.78534e-05
2.78533e-05
2.78533e-05
2.78533e-05
2.78534e-05
2.78535e-05
2.78536e-05
2.78536e-05
2.78537e-05
2.78537e-05
2.78537e-05
2.78537e-05
2.78537e-05
2.78536e-05
2.78534e-05
2.78533e-05
2.78532e-05
2.78532e-05
2.78532e-05
2.78532e-05
2.78532e-05
2.78532e-05
2.78532e-05
2.78532e-05
2.78532e-05
2.78532e-05
2.78532e-05
2.78532e-05
2.78533e-05
)
;
    }
    topWall
    {
        type            epsilonWallFunction;
        value           nonuniform List<scalar> 
40
(
2.78527e-05
2.78526e-05
2.78526e-05
2.78526e-05
2.78526e-05
2.78527e-05
2.78528e-05
2.78528e-05
2.78528e-05
2.78528e-05
2.78528e-05
2.78528e-05
2.78528e-05
2.78528e-05
2.78528e-05
2.78528e-05
2.78529e-05
2.78529e-05
2.7853e-05
2.7853e-05
2.7853e-05
2.7853e-05
2.7853e-05
2.7853e-05
2.78529e-05
2.78528e-05
2.78527e-05
2.78527e-05
2.78526e-05
2.78526e-05
2.78526e-05
2.78526e-05
2.78526e-05
2.78526e-05
2.78526e-05
2.78526e-05
2.78526e-05
2.78526e-05
2.78526e-05
2.78528e-05
)
;
    }
    sides1_half0
    {
        type            empty;
    }
    sides1_half1
    {
        type            empty;
    }
    sides2_half0
    {
        type            empty;
    }
    sides2_half1
    {
        type            empty;
    }
    inout1_half0
    {
        type            cyclic;
    }
    inout1_half1
    {
        type            cyclic;
    }
    inout2_half0
    {
        type            cyclic;
    }
    inout2_half1
    {
        type            cyclic;
    }
}


// ************************************************************************* //
