/*--------------------------------*- C++ -*----------------------------------*\
  =========                 |
  \\      /  F ield         | OpenFOAM: The Open Source CFD Toolbox
   \\    /   O peration     | Website:  https://openfoam.org
    \\  /    A nd           | Version:  dev
     \\/     M anipulation  |

   OpenFOAM for Windows 20.09 (v1)
   Built by CFD Support, www.cfdsupport.com (based on Symscape).
\*---------------------------------------------------------------------------*/
FoamFile
{
    version     2.0;
    format      ascii;
    class       volScalarField;
    location    "70";
    object      k;
}
// * * * * * * * * * * * * * * * * * * * * * * * * * * * * * * * * * * * * * //

dimensions      [0 2 -2 0 0 0 0];

internalField   nonuniform List<scalar> 
1600
(
0.000207251
0.000207251
0.000207251
0.000207251
0.000207251
0.000207252
0.000207252
0.000207252
0.000207252
0.000207252
0.000207252
0.000207252
0.000207251
0.000207251
0.000207251
0.000207251
0.000207252
0.000207253
0.000207253
0.000207254
0.000207254
0.000207254
0.000207254
0.000207254
0.000207253
0.000207252
0.000207251
0.00020725
0.00020725
0.00020725
0.00020725
0.00020725
0.00020725
0.00020725
0.00020725
0.00020725
0.00020725
0.00020725
0.00020725
0.000207251
0.000306095
0.000306095
0.000306095
0.000306096
0.000306097
0.000306097
0.000306097
0.000306098
0.000306098
0.000306098
0.000306098
0.000306097
0.000306096
0.000306096
0.000306096
0.000306096
0.000306096
0.000306097
0.000306097
0.000306098
0.000306098
0.000306098
0.000306098
0.000306098
0.000306098
0.000306097
0.000306096
0.000306095
0.000306094
0.000306094
0.000306094
0.000306094
0.000306094
0.000306094
0.000306094
0.000306094
0.000306094
0.000306094
0.000306095
0.000306096
0.000341123
0.000341124
0.000341126
0.000341127
0.000341128
0.000341128
0.000341128
0.000341129
0.000341129
0.000341129
0.000341129
0.000341127
0.000341125
0.000341125
0.000341125
0.000341125
0.000341126
0.000341126
0.000341126
0.000341127
0.000341127
0.000341127
0.000341127
0.000341127
0.000341127
0.000341126
0.000341125
0.000341123
0.000341123
0.000341123
0.000341123
0.000341123
0.000341123
0.000341123
0.000341123
0.000341123
0.000341123
0.000341123
0.000341123
0.000341124
0.000365742
0.000365745
0.000365749
0.00036575
0.00036575
0.00036575
0.000365751
0.000365751
0.000365751
0.000365751
0.00036575
0.000365747
0.000365745
0.000365745
0.000365745
0.000365745
0.000365746
0.000365746
0.000365746
0.000365746
0.000365747
0.000365747
0.000365747
0.000365747
0.000365747
0.000365747
0.000365745
0.000365743
0.000365742
0.000365742
0.000365742
0.000365742
0.000365742
0.000365742
0.000365742
0.000365742
0.000365742
0.000365742
0.000365742
0.000365743
0.000386531
0.000386536
0.00038654
0.000386541
0.000386541
0.000386542
0.000386542
0.000386542
0.000386542
0.000386542
0.000386539
0.000386536
0.000386534
0.000386534
0.000386534
0.000386534
0.000386534
0.000386534
0.000386534
0.000386534
0.000386535
0.000386535
0.000386535
0.000386535
0.000386536
0.000386535
0.000386533
0.000386531
0.000386529
0.000386529
0.000386529
0.00038653
0.00038653
0.00038653
0.00038653
0.00038653
0.00038653
0.00038653
0.00038653
0.00038653
0.000405304
0.000405311
0.000405314
0.000405315
0.000405315
0.000405316
0.000405316
0.000405316
0.000405316
0.000405315
0.00040531
0.000405306
0.000405305
0.000405305
0.000405305
0.000405305
0.000405305
0.000405305
0.000405305
0.000405305
0.000405306
0.000405306
0.000405306
0.000405307
0.000405307
0.000405306
0.000405304
0.000405301
0.0004053
0.000405299
0.0004053
0.0004053
0.0004053
0.0004053
0.0004053
0.0004053
0.0004053
0.0004053
0.0004053
0.000405301
0.000422747
0.000422755
0.000422758
0.000422759
0.000422759
0.00042276
0.00042276
0.00042276
0.000422759
0.000422756
0.000422751
0.000422747
0.000422745
0.000422746
0.000422746
0.000422746
0.000422746
0.000422746
0.000422746
0.000422746
0.000422746
0.000422747
0.000422747
0.000422748
0.000422748
0.000422747
0.000422744
0.000422741
0.00042274
0.000422739
0.000422739
0.000422739
0.00042274
0.00042274
0.00042274
0.00042274
0.00042274
0.00042274
0.00042274
0.000422741
0.000439165
0.000439173
0.000439177
0.000439178
0.000439178
0.000439178
0.000439178
0.000439178
0.000439177
0.000439172
0.000439167
0.000439162
0.000439162
0.000439162
0.000439162
0.000439162
0.000439162
0.000439162
0.000439163
0.000439162
0.000439163
0.000439163
0.000439163
0.000439164
0.000439164
0.000439163
0.00043916
0.000439157
0.000439155
0.000439154
0.000439155
0.000439155
0.000439155
0.000439155
0.000439156
0.000439156
0.000439156
0.000439156
0.000439156
0.000439157
0.000454699
0.000454708
0.000454712
0.000454712
0.000454713
0.000454713
0.000454713
0.000454713
0.00045471
0.000454704
0.000454698
0.000454694
0.000454694
0.000454694
0.000454694
0.000454694
0.000454695
0.000454695
0.000454695
0.000454695
0.000454695
0.000454695
0.000454696
0.000454696
0.000454696
0.000454696
0.000454693
0.00045469
0.000454687
0.000454687
0.000454687
0.000454687
0.000454688
0.000454688
0.000454688
0.000454688
0.000454688
0.000454688
0.000454688
0.00045469
0.000469405
0.000469414
0.000469417
0.000469418
0.000469418
0.000469419
0.000469419
0.000469417
0.000469413
0.000469407
0.000469401
0.000469398
0.000469397
0.000469397
0.000469397
0.000469398
0.000469399
0.000469399
0.000469398
0.000469398
0.000469399
0.000469399
0.0004694
0.0004694
0.000469401
0.0004694
0.000469397
0.000469393
0.000469391
0.000469391
0.000469391
0.000469391
0.000469392
0.000469392
0.000469392
0.000469393
0.000469392
0.000469392
0.000469392
0.000469394
0.000483284
0.000483293
0.000483297
0.000483297
0.000483297
0.000483298
0.000483297
0.000483295
0.00048329
0.000483284
0.000483278
0.000483275
0.000483274
0.000483274
0.000483275
0.000483275
0.000483276
0.000483275
0.000483275
0.000483276
0.000483276
0.000483276
0.000483277
0.000483278
0.000483278
0.000483278
0.000483275
0.000483271
0.000483269
0.000483269
0.000483269
0.000483269
0.00048327
0.000483271
0.000483271
0.000483271
0.000483271
0.00048327
0.00048327
0.000483273
0.000496304
0.000496312
0.000496315
0.000496315
0.000496315
0.000496316
0.000496315
0.000496311
0.000496306
0.0004963
0.000496295
0.000496292
0.000496291
0.000496291
0.000496292
0.000496293
0.000496292
0.000496292
0.000496292
0.000496293
0.000496293
0.000496294
0.000496294
0.000496295
0.000496296
0.000496296
0.000496293
0.000496288
0.000496287
0.000496288
0.000496287
0.000496288
0.000496288
0.000496289
0.000496289
0.000496289
0.000496288
0.000496288
0.000496289
0.000496291
0.000508401
0.000508408
0.000508411
0.000508411
0.000508412
0.000508412
0.00050841
0.000508406
0.000508401
0.000508395
0.000508389
0.000508387
0.000508386
0.000508387
0.000508387
0.000508388
0.000508387
0.000508387
0.000508388
0.000508388
0.000508389
0.000508389
0.00050839
0.00050839
0.000508391
0.000508391
0.000508388
0.000508384
0.000508384
0.000508384
0.000508384
0.000508384
0.000508385
0.000508385
0.000508385
0.000508385
0.000508385
0.000508384
0.000508385
0.000508388
0.00051949
0.000519497
0.0005195
0.0005195
0.000519501
0.0005195
0.000519498
0.000519494
0.000519488
0.000519483
0.000519478
0.000519475
0.000519475
0.000519475
0.000519476
0.000519476
0.000519476
0.000519476
0.000519476
0.000519476
0.000519477
0.000519477
0.000519478
0.000519479
0.00051948
0.000519479
0.000519476
0.000519473
0.000519473
0.000519473
0.000519473
0.000519473
0.000519474
0.000519474
0.000519475
0.000519474
0.000519474
0.000519474
0.000519474
0.000519477
0.000529466
0.000529473
0.000529476
0.000529476
0.000529477
0.000529476
0.000529473
0.000529469
0.000529463
0.000529458
0.000529453
0.00052945
0.00052945
0.000529451
0.000529451
0.000529451
0.000529451
0.000529451
0.000529451
0.000529452
0.000529453
0.000529453
0.000529454
0.000529455
0.000529455
0.000529454
0.000529453
0.00052945
0.000529449
0.000529449
0.00052945
0.00052945
0.00052945
0.00052945
0.000529451
0.000529451
0.00052945
0.00052945
0.000529451
0.000529453
0.000538204
0.000538211
0.000538213
0.000538214
0.000538214
0.000538213
0.00053821
0.000538206
0.000538201
0.000538196
0.000538191
0.000538189
0.000538188
0.000538188
0.000538189
0.000538189
0.000538189
0.000538189
0.000538189
0.00053819
0.000538191
0.000538192
0.000538192
0.000538193
0.000538193
0.000538192
0.000538191
0.000538189
0.000538188
0.000538188
0.000538188
0.000538188
0.000538189
0.000538189
0.000538189
0.000538189
0.000538189
0.000538189
0.000538189
0.000538192
0.000545562
0.000545567
0.000545569
0.000545569
0.000545569
0.000545568
0.000545565
0.000545561
0.000545556
0.000545552
0.000545548
0.000545545
0.000545544
0.000545544
0.000545545
0.000545545
0.000545545
0.000545545
0.000545546
0.000545547
0.000545547
0.000545548
0.000545548
0.000545549
0.000545549
0.000545549
0.000545548
0.000545546
0.000545545
0.000545545
0.000545545
0.000545545
0.000545546
0.000545546
0.000545546
0.000545546
0.000545546
0.000545546
0.000545546
0.000545549
0.000551374
0.000551378
0.000551379
0.000551379
0.000551379
0.000551378
0.000551375
0.000551372
0.000551368
0.000551364
0.00055136
0.000551357
0.000551356
0.000551356
0.000551357
0.000551357
0.000551357
0.000551357
0.000551358
0.000551358
0.000551359
0.000551359
0.000551359
0.00055136
0.00055136
0.00055136
0.000551359
0.000551359
0.000551357
0.000551358
0.000551358
0.000551358
0.000551358
0.000551358
0.000551358
0.000551358
0.000551358
0.000551359
0.000551359
0.000551362
0.000555458
0.00055546
0.000555461
0.000555461
0.000555461
0.000555461
0.000555459
0.000555456
0.000555452
0.000555448
0.000555445
0.000555442
0.000555441
0.000555441
0.000555441
0.000555441
0.000555441
0.000555442
0.000555442
0.000555443
0.000555444
0.000555444
0.000555444
0.000555444
0.000555444
0.000555444
0.000555444
0.000555444
0.000555443
0.000555443
0.000555443
0.000555443
0.000555444
0.000555443
0.000555444
0.000555444
0.000555444
0.000555444
0.000555444
0.000555447
0.00055761
0.000557612
0.000557614
0.000557614
0.000557614
0.000557614
0.000557613
0.00055761
0.000557607
0.000557604
0.0005576
0.000557598
0.000557596
0.000557596
0.000557596
0.000557596
0.000557596
0.000557597
0.000557597
0.000557598
0.000557598
0.000557598
0.000557599
0.000557599
0.000557599
0.000557599
0.000557599
0.000557599
0.000557598
0.000557599
0.000557599
0.000557599
0.000557599
0.000557599
0.000557599
0.000557599
0.0005576
0.000557599
0.000557599
0.000557601
0.000557608
0.000557611
0.000557613
0.000557613
0.000557613
0.000557613
0.000557612
0.000557609
0.000557606
0.000557603
0.0005576
0.000557598
0.000557596
0.000557596
0.000557596
0.000557596
0.000557596
0.000557596
0.000557597
0.000557598
0.000557598
0.000557598
0.000557598
0.000557599
0.000557599
0.000557599
0.000557599
0.000557599
0.000557599
0.000557599
0.000557599
0.000557599
0.000557599
0.000557599
0.000557599
0.0005576
0.0005576
0.000557599
0.000557599
0.000557601
0.000555454
0.000555458
0.000555459
0.000555459
0.000555459
0.000555458
0.000555456
0.000555454
0.000555451
0.000555448
0.000555445
0.000555442
0.00055544
0.00055544
0.00055544
0.00055544
0.00055544
0.000555441
0.000555441
0.000555442
0.000555442
0.000555442
0.000555443
0.000555443
0.000555443
0.000555443
0.000555443
0.000555443
0.000555443
0.000555443
0.000555444
0.000555443
0.000555443
0.000555444
0.000555444
0.000555444
0.000555444
0.000555444
0.000555444
0.000555446
0.000551371
0.000551375
0.000551376
0.000551376
0.000551375
0.000551374
0.000551371
0.000551369
0.000551366
0.000551363
0.000551359
0.000551356
0.000551354
0.000551354
0.000551354
0.000551354
0.000551354
0.000551355
0.000551355
0.000551356
0.000551356
0.000551356
0.000551357
0.000551357
0.000551357
0.000551357
0.000551357
0.000551357
0.000551357
0.000551357
0.000551357
0.000551357
0.000551358
0.000551358
0.000551358
0.000551358
0.000551358
0.000551358
0.000551359
0.000551361
0.00054556
0.000545565
0.000545566
0.000545565
0.000545564
0.000545562
0.000545559
0.000545557
0.000545554
0.00054555
0.000545546
0.000545543
0.000545541
0.00054554
0.000545541
0.000545541
0.000545541
0.000545541
0.000545542
0.000545542
0.000545543
0.000545543
0.000545543
0.000545543
0.000545544
0.000545544
0.000545544
0.000545544
0.000545544
0.000545544
0.000545544
0.000545544
0.000545544
0.000545544
0.000545544
0.000545545
0.000545545
0.000545546
0.000545546
0.000545549
0.000538205
0.000538209
0.00053821
0.000538209
0.000538208
0.000538205
0.000538202
0.0005382
0.000538196
0.000538193
0.000538189
0.000538185
0.000538183
0.000538183
0.000538183
0.000538183
0.000538183
0.000538183
0.000538184
0.000538184
0.000538184
0.000538184
0.000538185
0.000538185
0.000538185
0.000538185
0.000538186
0.000538186
0.000538186
0.000538186
0.000538186
0.000538186
0.000538186
0.000538186
0.000538186
0.000538187
0.000538188
0.000538188
0.000538189
0.000538191
0.000529465
0.00052947
0.000529471
0.00052947
0.000529469
0.000529466
0.000529463
0.000529461
0.000529457
0.000529453
0.000529449
0.000529445
0.000529443
0.000529443
0.000529443
0.000529443
0.000529443
0.000529443
0.000529443
0.000529444
0.000529444
0.000529444
0.000529445
0.000529445
0.000529445
0.000529446
0.000529447
0.000529447
0.000529446
0.000529446
0.000529446
0.000529446
0.000529446
0.000529446
0.000529447
0.000529448
0.000529448
0.000529448
0.000529449
0.000529451
0.000519486
0.000519492
0.000519493
0.000519493
0.000519491
0.000519489
0.000519486
0.000519483
0.00051948
0.000519476
0.000519471
0.000519467
0.000519465
0.000519465
0.000519465
0.000519465
0.000519465
0.000519465
0.000519466
0.000519466
0.000519467
0.000519467
0.000519467
0.000519468
0.000519468
0.000519469
0.00051947
0.000519469
0.000519469
0.000519468
0.000519468
0.000519468
0.000519468
0.000519469
0.000519469
0.00051947
0.00051947
0.00051947
0.000519471
0.000519473
0.000508394
0.000508401
0.000508403
0.000508402
0.000508401
0.000508398
0.000508396
0.000508393
0.00050839
0.000508385
0.00050838
0.000508376
0.000508374
0.000508375
0.000508375
0.000508375
0.000508375
0.000508376
0.000508376
0.000508376
0.000508377
0.000508377
0.000508378
0.000508378
0.000508378
0.000508379
0.000508379
0.000508378
0.000508378
0.000508378
0.000508378
0.000508378
0.000508378
0.000508379
0.000508379
0.000508379
0.000508379
0.000508379
0.000508379
0.000508381
0.000496296
0.000496303
0.000496304
0.000496304
0.000496303
0.000496301
0.000496299
0.000496296
0.000496292
0.000496288
0.000496283
0.000496279
0.000496278
0.000496278
0.000496278
0.000496279
0.000496279
0.000496279
0.00049628
0.00049628
0.000496281
0.000496281
0.000496281
0.000496281
0.000496282
0.000496282
0.000496283
0.000496281
0.000496281
0.000496281
0.000496281
0.000496281
0.000496282
0.000496281
0.000496281
0.000496281
0.000496281
0.000496281
0.000496281
0.000496284
0.000483275
0.000483282
0.000483284
0.000483284
0.000483283
0.000483281
0.000483279
0.000483276
0.000483273
0.000483269
0.000483264
0.00048326
0.000483259
0.00048326
0.00048326
0.00048326
0.00048326
0.000483261
0.000483262
0.000483262
0.000483263
0.000483263
0.000483263
0.000483263
0.000483263
0.000483264
0.000483264
0.000483263
0.000483262
0.000483262
0.000483262
0.000483262
0.000483263
0.000483262
0.000483262
0.000483262
0.000483262
0.000483261
0.000483262
0.000483264
0.000469394
0.000469402
0.000469404
0.000469404
0.000469403
0.000469402
0.0004694
0.000469397
0.000469394
0.00046939
0.000469385
0.000469382
0.000469382
0.000469382
0.000469382
0.000469382
0.000469382
0.000469383
0.000469384
0.000469384
0.000469384
0.000469384
0.000469385
0.000469385
0.000469385
0.000469386
0.000469385
0.000469384
0.000469383
0.000469383
0.000469383
0.000469384
0.000469384
0.000469383
0.000469383
0.000469383
0.000469383
0.000469383
0.000469383
0.000469385
0.000454688
0.000454695
0.000454697
0.000454697
0.000454697
0.000454697
0.000454695
0.000454692
0.000454689
0.000454685
0.000454681
0.000454678
0.000454678
0.000454678
0.000454678
0.000454678
0.000454678
0.000454679
0.00045468
0.00045468
0.00045468
0.00045468
0.00045468
0.00045468
0.000454681
0.000454682
0.000454681
0.000454679
0.000454678
0.000454678
0.000454678
0.000454679
0.000454679
0.000454679
0.000454679
0.000454678
0.000454678
0.000454678
0.000454678
0.00045468
0.000439154
0.00043916
0.000439163
0.000439163
0.000439163
0.000439162
0.000439161
0.000439159
0.000439156
0.000439153
0.000439149
0.000439146
0.000439146
0.000439146
0.000439146
0.000439146
0.000439146
0.000439147
0.000439147
0.000439147
0.000439147
0.000439147
0.000439148
0.000439148
0.000439149
0.000439149
0.000439148
0.000439146
0.000439145
0.000439145
0.000439146
0.000439146
0.000439146
0.000439146
0.000439146
0.000439146
0.000439146
0.000439146
0.000439146
0.000439147
0.000422737
0.000422742
0.000422744
0.000422745
0.000422745
0.000422745
0.000422744
0.000422742
0.00042274
0.000422737
0.000422734
0.000422731
0.000422731
0.000422731
0.000422731
0.000422731
0.000422731
0.000422732
0.000422732
0.000422732
0.000422732
0.000422732
0.000422732
0.000422733
0.000422733
0.000422734
0.000422732
0.00042273
0.00042273
0.00042273
0.00042273
0.00042273
0.00042273
0.00042273
0.00042273
0.00042273
0.00042273
0.00042273
0.00042273
0.000422731
0.000405295
0.000405299
0.000405301
0.000405302
0.000405302
0.000405302
0.000405302
0.000405301
0.000405299
0.000405297
0.000405294
0.000405292
0.000405291
0.000405291
0.000405291
0.000405291
0.000405292
0.000405292
0.000405292
0.000405292
0.000405292
0.000405293
0.000405293
0.000405294
0.000405294
0.000405294
0.000405293
0.000405291
0.00040529
0.00040529
0.00040529
0.00040529
0.00040529
0.00040529
0.00040529
0.00040529
0.00040529
0.00040529
0.000405291
0.000405291
0.000386524
0.000386527
0.000386528
0.000386529
0.00038653
0.00038653
0.00038653
0.000386529
0.000386529
0.000386527
0.000386525
0.000386523
0.000386522
0.000386522
0.000386522
0.000386522
0.000386522
0.000386522
0.000386522
0.000386523
0.000386523
0.000386524
0.000386524
0.000386525
0.000386525
0.000386524
0.000386523
0.000386521
0.00038652
0.00038652
0.00038652
0.000386521
0.000386521
0.000386521
0.000386521
0.000386521
0.000386521
0.000386521
0.000386521
0.000386521
0.000365736
0.000365737
0.000365739
0.000365739
0.00036574
0.000365741
0.000365741
0.000365741
0.000365741
0.00036574
0.000365738
0.000365737
0.000365736
0.000365736
0.000365736
0.000365736
0.000365736
0.000365736
0.000365736
0.000365737
0.000365737
0.000365738
0.000365738
0.000365738
0.000365738
0.000365738
0.000365736
0.000365735
0.000365734
0.000365734
0.000365734
0.000365734
0.000365734
0.000365734
0.000365734
0.000365734
0.000365734
0.000365734
0.000365734
0.000365735
0.000341118
0.000341118
0.000341118
0.000341119
0.000341119
0.00034112
0.000341121
0.000341121
0.000341121
0.000341121
0.00034112
0.000341119
0.000341118
0.000341118
0.000341118
0.000341118
0.000341118
0.000341118
0.000341119
0.000341119
0.00034112
0.00034112
0.00034112
0.000341121
0.00034112
0.000341119
0.000341118
0.000341117
0.000341117
0.000341116
0.000341116
0.000341116
0.000341116
0.000341116
0.000341116
0.000341116
0.000341117
0.000341117
0.000341117
0.000341118
0.00030609
0.000306089
0.000306089
0.00030609
0.00030609
0.000306091
0.000306092
0.000306092
0.000306092
0.000306092
0.000306092
0.000306091
0.000306091
0.000306091
0.000306091
0.000306091
0.000306091
0.000306091
0.000306092
0.000306092
0.000306093
0.000306093
0.000306093
0.000306093
0.000306093
0.000306092
0.000306091
0.00030609
0.00030609
0.000306089
0.000306089
0.000306089
0.000306089
0.000306089
0.000306089
0.000306089
0.00030609
0.000306089
0.00030609
0.000306091
0.000207246
0.000207246
0.000207246
0.000207246
0.000207246
0.000207246
0.000207247
0.000207247
0.000207248
0.000207248
0.000207247
0.000207247
0.000207247
0.000207247
0.000207247
0.000207247
0.000207247
0.000207248
0.000207248
0.000207248
0.000207249
0.000207249
0.000207249
0.000207249
0.000207248
0.000207247
0.000207247
0.000207246
0.000207246
0.000207246
0.000207246
0.000207246
0.000207246
0.000207246
0.000207246
0.000207246
0.000207246
0.000207246
0.000207246
0.000207247
)
;

boundaryField
{
    bottomWall
    {
        type            kqRWallFunction;
        value           nonuniform List<scalar> 
40
(
0.000207251
0.000207251
0.000207251
0.000207251
0.000207251
0.000207252
0.000207252
0.000207252
0.000207252
0.000207252
0.000207252
0.000207252
0.000207251
0.000207251
0.000207251
0.000207251
0.000207252
0.000207253
0.000207253
0.000207254
0.000207254
0.000207254
0.000207254
0.000207254
0.000207253
0.000207252
0.000207251
0.00020725
0.00020725
0.00020725
0.00020725
0.00020725
0.00020725
0.00020725
0.00020725
0.00020725
0.00020725
0.00020725
0.00020725
0.000207251
)
;
    }
    topWall
    {
        type            kqRWallFunction;
        value           nonuniform List<scalar> 
40
(
0.000207246
0.000207246
0.000207246
0.000207246
0.000207246
0.000207246
0.000207247
0.000207247
0.000207248
0.000207248
0.000207247
0.000207247
0.000207247
0.000207247
0.000207247
0.000207247
0.000207247
0.000207248
0.000207248
0.000207248
0.000207249
0.000207249
0.000207249
0.000207249
0.000207248
0.000207247
0.000207247
0.000207246
0.000207246
0.000207246
0.000207246
0.000207246
0.000207246
0.000207246
0.000207246
0.000207246
0.000207246
0.000207246
0.000207246
0.000207247
)
;
    }
    sides1_half0
    {
        type            empty;
    }
    sides1_half1
    {
        type            empty;
    }
    sides2_half0
    {
        type            empty;
    }
    sides2_half1
    {
        type            empty;
    }
    inout1_half0
    {
        type            cyclic;
    }
    inout1_half1
    {
        type            cyclic;
    }
    inout2_half0
    {
        type            cyclic;
    }
    inout2_half1
    {
        type            cyclic;
    }
}


// ************************************************************************* //
