/*--------------------------------*- C++ -*----------------------------------*\
  =========                 |
  \\      /  F ield         | OpenFOAM: The Open Source CFD Toolbox
   \\    /   O peration     | Website:  https://openfoam.org
    \\  /    A nd           | Version:  dev
     \\/     M anipulation  |

   OpenFOAM for Windows 20.09 (v1)
   Built by CFD Support, www.cfdsupport.com (based on Symscape).
\*---------------------------------------------------------------------------*/
FoamFile
{
    version     2.0;
    format      ascii;
    class       volScalarField;
    location    "70";
    object      nut;
}
// * * * * * * * * * * * * * * * * * * * * * * * * * * * * * * * * * * * * * //

dimensions      [0 2 -1 0 0 0 0];

internalField   nonuniform List<scalar> 
1600
(
0.000138791
0.00013879
0.00013879
0.00013879
0.000138791
0.000138791
0.000138791
0.000138791
0.000138791
0.000138791
0.000138791
0.000138791
0.00013879
0.00013879
0.00013879
0.00013879
0.000138791
0.000138791
0.000138792
0.000138792
0.000138792
0.000138792
0.000138792
0.000138792
0.000138792
0.000138791
0.00013879
0.00013879
0.00013879
0.00013879
0.00013879
0.00013879
0.00013879
0.00013879
0.00013879
0.00013879
0.00013879
0.00013879
0.00013879
0.00013879
0.000428739
0.000428739
0.00042874
0.000428742
0.000428744
0.000428744
0.000428745
0.000428745
0.000428746
0.000428746
0.000428745
0.000428743
0.000428741
0.00042874
0.00042874
0.000428741
0.000428741
0.000428742
0.000428743
0.000428744
0.000428744
0.000428745
0.000428745
0.000428745
0.000428745
0.000428744
0.000428741
0.000428739
0.000428738
0.000428738
0.000428738
0.000428738
0.000428738
0.000428738
0.000428739
0.000428738
0.000428739
0.000428739
0.000428739
0.000428739
0.000696134
0.000696138
0.000696147
0.000696151
0.000696153
0.000696154
0.000696155
0.000696156
0.000696156
0.000696156
0.000696154
0.000696147
0.000696143
0.000696142
0.000696143
0.000696144
0.000696145
0.000696146
0.000696147
0.000696148
0.000696149
0.000696149
0.00069615
0.00069615
0.000696151
0.000696149
0.000696144
0.00069614
0.000696137
0.000696136
0.000696137
0.000696137
0.000696138
0.000696138
0.000696138
0.000696138
0.000696138
0.000696138
0.000696138
0.000696137
0.000960708
0.00096073
0.000960749
0.000960754
0.000960756
0.000960757
0.000960758
0.000960759
0.000960759
0.000960758
0.000960752
0.000960738
0.000960732
0.000960733
0.000960735
0.000960737
0.000960737
0.000960738
0.000960739
0.00096074
0.000960741
0.000960742
0.000960743
0.000960744
0.000960745
0.000960744
0.000960736
0.000960727
0.000960722
0.000960721
0.000960722
0.000960722
0.000960724
0.000960724
0.000960723
0.000960723
0.000960724
0.000960723
0.000960724
0.00096072
0.00121723
0.00121726
0.00121728
0.00121728
0.00121728
0.00121728
0.00121729
0.00121729
0.00121729
0.00121728
0.00121726
0.00121725
0.00121724
0.00121724
0.00121725
0.00121725
0.00121725
0.00121725
0.00121725
0.00121725
0.00121725
0.00121725
0.00121725
0.00121725
0.00121726
0.00121726
0.00121724
0.00121723
0.00121722
0.00121722
0.00121722
0.00121722
0.00121722
0.00121722
0.00121722
0.00121722
0.00121722
0.00121722
0.00121722
0.00121722
0.00146081
0.00146084
0.00146085
0.00146084
0.00146084
0.00146084
0.00146084
0.00146084
0.00146084
0.00146083
0.0014608
0.00146078
0.00146077
0.00146077
0.00146078
0.00146078
0.00146078
0.00146078
0.00146078
0.00146078
0.00146078
0.00146078
0.00146078
0.00146079
0.00146079
0.00146079
0.00146077
0.00146075
0.00146074
0.00146074
0.00146074
0.00146074
0.00146074
0.00146074
0.00146074
0.00146074
0.00146074
0.00146074
0.00146074
0.00146075
0.00168841
0.00168845
0.00168844
0.00168843
0.00168842
0.00168842
0.00168842
0.00168842
0.00168842
0.00168839
0.00168836
0.00168833
0.00168832
0.00168833
0.00168833
0.00168833
0.00168833
0.00168833
0.00168834
0.00168833
0.00168833
0.00168833
0.00168834
0.00168834
0.00168834
0.00168833
0.00168831
0.00168829
0.00168828
0.00168827
0.00168827
0.00168827
0.00168828
0.00168828
0.00168828
0.00168828
0.00168828
0.00168828
0.00168828
0.0016883
0.00189856
0.0018986
0.0018986
0.00189858
0.00189858
0.00189857
0.00189857
0.00189857
0.00189856
0.00189851
0.00189847
0.00189844
0.00189843
0.00189844
0.00189844
0.00189844
0.00189844
0.00189844
0.00189845
0.00189844
0.00189844
0.00189844
0.00189844
0.00189844
0.00189844
0.00189844
0.00189842
0.00189839
0.00189837
0.00189837
0.00189837
0.00189837
0.00189837
0.00189837
0.00189837
0.00189837
0.00189837
0.00189837
0.00189837
0.00189841
0.00209084
0.00209088
0.00209088
0.00209087
0.00209086
0.00209086
0.00209086
0.00209085
0.00209082
0.00209077
0.00209071
0.00209068
0.00209068
0.00209068
0.00209067
0.00209068
0.00209068
0.00209069
0.00209069
0.00209068
0.00209068
0.00209068
0.00209068
0.00209069
0.00209069
0.00209068
0.00209066
0.00209062
0.0020906
0.0020906
0.0020906
0.0020906
0.00209061
0.00209061
0.00209061
0.0020906
0.0020906
0.0020906
0.0020906
0.00209065
0.00226545
0.0022655
0.00226549
0.00226548
0.00226547
0.00226547
0.00226546
0.00226544
0.0022654
0.00226534
0.00226528
0.00226525
0.00226524
0.00226524
0.00226524
0.00226525
0.00226525
0.00226526
0.00226525
0.00226525
0.00226525
0.00226525
0.00226526
0.00226526
0.00226526
0.00226526
0.00226523
0.00226519
0.00226517
0.00226517
0.00226518
0.00226518
0.00226518
0.00226518
0.00226518
0.00226518
0.00226518
0.00226517
0.00226517
0.00226523
0.00242292
0.00242296
0.00242295
0.00242293
0.00242292
0.00242291
0.0024229
0.00242288
0.00242282
0.00242276
0.0024227
0.00242267
0.00242266
0.00242266
0.00242266
0.00242267
0.00242268
0.00242268
0.00242268
0.00242268
0.00242269
0.00242269
0.00242269
0.0024227
0.0024227
0.0024227
0.00242267
0.00242263
0.00242261
0.00242261
0.00242261
0.00242261
0.00242262
0.00242262
0.00242262
0.00242262
0.00242261
0.0024226
0.00242261
0.00242268
0.00256392
0.00256393
0.0025639
0.00256387
0.00256386
0.00256386
0.00256384
0.0025638
0.00256375
0.00256368
0.00256362
0.00256359
0.00256358
0.00256358
0.0025636
0.00256362
0.00256363
0.00256364
0.00256364
0.00256365
0.00256365
0.00256365
0.00256365
0.00256366
0.00256367
0.00256367
0.00256364
0.00256359
0.00256357
0.00256358
0.00256358
0.00256358
0.00256358
0.00256359
0.00256359
0.00256358
0.00256357
0.00256357
0.00256357
0.00256365
0.00268904
0.002689
0.00268898
0.00268896
0.00268895
0.00268896
0.00268894
0.00268889
0.00268883
0.00268877
0.00268871
0.00268868
0.00268868
0.0026887
0.00268873
0.00268875
0.00268876
0.00268877
0.00268878
0.00268879
0.00268879
0.00268879
0.00268879
0.0026888
0.00268881
0.00268881
0.00268878
0.00268873
0.00268873
0.00268873
0.00268873
0.00268873
0.00268873
0.00268873
0.00268873
0.00268873
0.00268873
0.00268872
0.00268872
0.0026888
0.00279872
0.00279874
0.00279875
0.00279876
0.00279878
0.00279879
0.00279877
0.00279871
0.00279865
0.00279859
0.00279853
0.00279852
0.00279854
0.00279857
0.0027986
0.00279861
0.00279863
0.00279864
0.00279866
0.00279867
0.00279868
0.00279868
0.00279868
0.00279869
0.0027987
0.00279869
0.00279866
0.00279862
0.00279862
0.00279862
0.00279862
0.00279862
0.00279862
0.00279863
0.00279863
0.00279862
0.00279862
0.00279861
0.00279861
0.00279864
0.00289368
0.0028937
0.00289371
0.00289373
0.00289376
0.00289377
0.00289374
0.00289368
0.00289362
0.00289356
0.00289352
0.00289352
0.00289354
0.00289358
0.0028936
0.00289362
0.00289364
0.00289366
0.00289368
0.0028937
0.00289371
0.00289371
0.00289371
0.00289373
0.00289372
0.00289371
0.00289369
0.00289367
0.00289366
0.00289366
0.00289366
0.00289366
0.00289367
0.00289367
0.00289367
0.00289366
0.00289365
0.00289365
0.00289365
0.00289366
0.00297404
0.00297406
0.00297407
0.00297409
0.0029741
0.00297411
0.00297407
0.00297402
0.00297396
0.00297391
0.00297387
0.00297388
0.0029739
0.00297393
0.00297395
0.00297397
0.00297399
0.00297401
0.00297404
0.00297407
0.00297409
0.00297409
0.0029741
0.0029741
0.0029741
0.00297409
0.00297408
0.00297406
0.00297405
0.00297404
0.00297405
0.00297405
0.00297405
0.00297405
0.00297405
0.00297404
0.00297404
0.00297403
0.00297403
0.00297404
0.00303973
0.00303974
0.00303975
0.00303976
0.00303976
0.00303975
0.00303972
0.00303967
0.00303962
0.00303958
0.00303955
0.00303954
0.00303956
0.00303958
0.0030396
0.00303962
0.00303964
0.00303966
0.0030397
0.00303973
0.00303975
0.00303976
0.00303977
0.00303977
0.00303977
0.00303976
0.00303975
0.00303974
0.00303973
0.00303973
0.00303972
0.00303972
0.00303972
0.00303973
0.00303972
0.00303972
0.00303972
0.00303971
0.00303972
0.00303973
0.00309037
0.00309039
0.00309039
0.00309039
0.00309039
0.00309038
0.00309036
0.00309032
0.00309027
0.00309023
0.0030902
0.00309019
0.00309019
0.00309021
0.00309023
0.00309024
0.00309026
0.00309029
0.00309032
0.00309035
0.00309038
0.0030904
0.0030904
0.0030904
0.0030904
0.00309039
0.0030904
0.00309039
0.00309037
0.00309037
0.00309037
0.00309037
0.00309037
0.00309037
0.00309037
0.00309037
0.00309036
0.00309036
0.00309037
0.00309037
0.00312531
0.00312534
0.00312534
0.00312534
0.00312534
0.00312534
0.00312532
0.00312529
0.00312525
0.00312521
0.00312518
0.00312516
0.00312515
0.00312516
0.00312517
0.00312518
0.0031252
0.00312522
0.00312525
0.00312529
0.00312533
0.00312535
0.00312535
0.00312535
0.00312534
0.00312535
0.00312535
0.00312534
0.00312533
0.00312533
0.00312533
0.00312533
0.00312533
0.00312532
0.00312533
0.00312532
0.00312532
0.00312532
0.00312533
0.00312532
0.00314356
0.00314359
0.00314358
0.00314358
0.00314358
0.00314358
0.00314356
0.00314353
0.00314349
0.00314345
0.00314342
0.00314339
0.00314338
0.00314338
0.00314338
0.00314339
0.0031434
0.00314343
0.00314347
0.00314352
0.00314355
0.00314356
0.00314357
0.00314357
0.00314357
0.00314357
0.00314357
0.00314356
0.00314356
0.00314356
0.00314356
0.00314356
0.00314356
0.00314356
0.00314356
0.00314356
0.00314356
0.00314355
0.00314355
0.00314356
0.00314375
0.00314366
0.00314362
0.0031436
0.00314358
0.00314358
0.00314356
0.00314352
0.00314349
0.00314345
0.00314341
0.00314338
0.00314336
0.00314336
0.00314336
0.00314336
0.00314338
0.00314341
0.00314346
0.00314351
0.00314354
0.00314356
0.00314357
0.00314356
0.00314356
0.00314356
0.00314356
0.00314356
0.00314356
0.00314356
0.00314356
0.00314356
0.00314356
0.00314356
0.00314356
0.00314356
0.00314355
0.00314355
0.00314355
0.0031436
0.00312532
0.00312536
0.00312535
0.00312534
0.00312534
0.00312532
0.0031253
0.00312526
0.00312523
0.00312519
0.00312516
0.00312512
0.00312509
0.00312509
0.00312509
0.0031251
0.00312512
0.00312517
0.00312522
0.00312526
0.0031253
0.00312532
0.00312532
0.00312532
0.00312532
0.00312532
0.00312532
0.00312531
0.00312532
0.00312532
0.00312532
0.00312532
0.00312531
0.00312532
0.00312532
0.00312531
0.00312531
0.00312531
0.00312531
0.00312531
0.00309035
0.00309037
0.00309036
0.00309036
0.00309035
0.00309034
0.00309031
0.00309027
0.00309024
0.0030902
0.00309016
0.00309012
0.0030901
0.00309009
0.0030901
0.00309012
0.00309016
0.00309021
0.00309026
0.00309031
0.00309034
0.00309035
0.00309035
0.00309035
0.00309035
0.00309035
0.00309034
0.00309035
0.00309035
0.00309035
0.00309035
0.00309034
0.00309034
0.00309035
0.00309034
0.00309034
0.00309034
0.00309034
0.00309035
0.00309035
0.00303973
0.00303973
0.00303971
0.00303971
0.00303969
0.00303966
0.00303963
0.00303961
0.00303957
0.00303953
0.00303949
0.00303945
0.00303942
0.00303941
0.00303944
0.00303947
0.00303951
0.00303956
0.00303961
0.00303966
0.00303969
0.00303969
0.0030397
0.00303969
0.0030397
0.00303969
0.00303969
0.0030397
0.00303969
0.00303969
0.00303968
0.00303968
0.00303968
0.00303968
0.00303968
0.00303968
0.00303969
0.0030397
0.0030397
0.00303971
0.00297406
0.00297406
0.00297404
0.00297403
0.00297401
0.00297398
0.00297395
0.00297391
0.00297388
0.00297384
0.00297379
0.00297375
0.00297372
0.00297373
0.00297376
0.0029738
0.00297384
0.00297389
0.00297394
0.00297398
0.00297401
0.00297401
0.00297401
0.00297401
0.00297401
0.00297401
0.00297401
0.00297401
0.002974
0.002974
0.00297399
0.00297399
0.00297399
0.00297399
0.002974
0.002974
0.00297402
0.00297402
0.00297402
0.00297403
0.00289368
0.00289368
0.00289366
0.00289365
0.00289363
0.0028936
0.00289357
0.00289354
0.00289351
0.00289346
0.00289341
0.00289337
0.00289334
0.00289336
0.00289339
0.00289343
0.00289347
0.00289352
0.00289357
0.00289361
0.00289362
0.00289362
0.00289363
0.00289362
0.00289363
0.00289363
0.00289364
0.00289363
0.00289362
0.00289362
0.00289361
0.0028936
0.0028936
0.00289361
0.00289362
0.00289362
0.00289363
0.00289364
0.00289364
0.00289365
0.00279863
0.00279865
0.00279863
0.00279863
0.00279861
0.00279858
0.00279855
0.00279852
0.00279848
0.00279843
0.00279838
0.00279833
0.00279831
0.00279834
0.00279838
0.00279842
0.00279846
0.0027985
0.00279855
0.00279858
0.00279859
0.00279859
0.00279859
0.0027986
0.0027986
0.00279861
0.00279861
0.0027986
0.00279859
0.00279858
0.00279858
0.00279857
0.00279857
0.00279859
0.00279859
0.00279859
0.00279859
0.0027986
0.0027986
0.00279861
0.00268875
0.00268878
0.00268876
0.00268875
0.00268874
0.00268871
0.00268868
0.00268865
0.00268861
0.00268856
0.00268851
0.00268846
0.00268846
0.0026885
0.00268853
0.00268857
0.0026886
0.00268864
0.00268868
0.00268871
0.00268872
0.00268872
0.00268872
0.00268872
0.00268873
0.00268873
0.00268873
0.00268872
0.00268871
0.0026887
0.0026887
0.0026887
0.0026887
0.0026887
0.0026887
0.00268871
0.00268871
0.00268871
0.00268871
0.00268872
0.00256362
0.00256364
0.00256363
0.00256363
0.00256361
0.00256359
0.00256356
0.00256353
0.00256349
0.00256345
0.00256339
0.00256336
0.00256337
0.0025634
0.00256343
0.00256346
0.00256349
0.00256352
0.00256356
0.00256359
0.00256359
0.00256359
0.00256359
0.00256359
0.0025636
0.0025636
0.0025636
0.00256358
0.00256357
0.00256356
0.00256357
0.00256357
0.00256357
0.00256357
0.00256357
0.00256357
0.00256357
0.00256357
0.00256357
0.00256359
0.00242265
0.00242269
0.00242268
0.00242268
0.00242267
0.00242265
0.00242263
0.0024226
0.00242257
0.00242252
0.00242248
0.00242246
0.00242247
0.00242249
0.00242251
0.00242253
0.00242256
0.00242259
0.00242262
0.00242264
0.00242264
0.00242265
0.00242265
0.00242265
0.00242265
0.00242266
0.00242265
0.00242263
0.00242261
0.00242262
0.00242262
0.00242262
0.00242262
0.00242261
0.00242262
0.00242262
0.00242261
0.00242261
0.00242262
0.00242263
0.0022652
0.00226526
0.00226527
0.00226527
0.00226526
0.00226525
0.00226523
0.00226521
0.00226517
0.00226513
0.0022651
0.00226507
0.00226508
0.0022651
0.00226511
0.00226513
0.00226515
0.00226517
0.0022652
0.00226522
0.00226522
0.00226522
0.00226522
0.00226522
0.00226522
0.00226523
0.00226522
0.0022652
0.00226519
0.00226518
0.00226519
0.00226519
0.00226519
0.00226519
0.00226519
0.00226519
0.00226518
0.00226518
0.00226519
0.00226519
0.00209065
0.00209072
0.00209072
0.00209072
0.00209072
0.00209071
0.00209069
0.00209067
0.00209064
0.0020906
0.00209057
0.00209055
0.00209055
0.00209056
0.00209057
0.00209058
0.00209059
0.00209061
0.00209064
0.00209065
0.00209065
0.00209065
0.00209064
0.00209065
0.00209065
0.00209065
0.00209065
0.00209063
0.00209062
0.00209061
0.00209062
0.00209062
0.00209062
0.00209062
0.00209062
0.00209062
0.00209062
0.00209062
0.00209062
0.00209062
0.00189853
0.00189853
0.00189852
0.0018985
0.00189849
0.00189849
0.00189847
0.00189845
0.00189843
0.0018984
0.00189836
0.00189834
0.00189834
0.00189835
0.00189835
0.00189836
0.00189837
0.00189838
0.00189839
0.0018984
0.0018984
0.0018984
0.0018984
0.00189841
0.00189841
0.00189841
0.0018984
0.00189839
0.00189838
0.00189838
0.00189838
0.00189838
0.00189838
0.00189839
0.00189838
0.00189838
0.00189838
0.00189838
0.00189838
0.00189841
0.00168841
0.00168842
0.00168841
0.00168839
0.00168839
0.00168838
0.00168836
0.00168835
0.00168833
0.00168831
0.00168828
0.00168826
0.00168826
0.00168826
0.00168826
0.00168826
0.00168827
0.00168828
0.00168828
0.00168829
0.00168829
0.00168829
0.0016883
0.0016883
0.00168831
0.00168831
0.0016883
0.00168828
0.00168828
0.00168828
0.00168828
0.00168828
0.00168828
0.00168828
0.00168828
0.00168828
0.00168828
0.00168828
0.00168828
0.0016883
0.00146082
0.00146083
0.00146083
0.00146082
0.00146082
0.00146081
0.00146081
0.0014608
0.00146078
0.00146077
0.00146075
0.00146073
0.00146073
0.00146072
0.00146073
0.00146073
0.00146073
0.00146073
0.00146073
0.00146074
0.00146074
0.00146075
0.00146075
0.00146076
0.00146076
0.00146076
0.00146075
0.00146074
0.00146073
0.00146073
0.00146073
0.00146073
0.00146073
0.00146073
0.00146073
0.00146073
0.00146073
0.00146073
0.00146073
0.00146075
0.00121725
0.00121726
0.00121726
0.00121726
0.00121727
0.00121726
0.00121726
0.00121726
0.00121725
0.00121724
0.00121723
0.00121722
0.00121721
0.00121721
0.00121721
0.00121721
0.00121721
0.00121721
0.00121721
0.00121722
0.00121722
0.00121722
0.00121723
0.00121723
0.00121723
0.00121723
0.00121722
0.00121722
0.00121721
0.00121721
0.00121721
0.00121721
0.00121721
0.00121721
0.00121721
0.00121721
0.00121721
0.00121721
0.00121721
0.00121721
0.000960728
0.000960727
0.000960731
0.000960735
0.000960739
0.000960741
0.000960742
0.00096074
0.000960737
0.000960732
0.000960723
0.000960716
0.000960712
0.000960711
0.00096071
0.00096071
0.00096071
0.00096071
0.000960712
0.000960714
0.000960717
0.00096072
0.000960723
0.000960726
0.000960727
0.000960725
0.000960719
0.000960714
0.000960711
0.00096071
0.00096071
0.00096071
0.00096071
0.00096071
0.00096071
0.00096071
0.00096071
0.000960711
0.000960711
0.000960707
0.000696136
0.000696132
0.000696133
0.000696136
0.000696139
0.000696142
0.000696143
0.000696143
0.000696142
0.00069614
0.000696136
0.000696132
0.000696129
0.000696128
0.000696128
0.000696128
0.000696128
0.000696128
0.000696129
0.000696131
0.000696133
0.000696135
0.000696137
0.000696138
0.000696138
0.000696136
0.000696132
0.000696129
0.000696127
0.000696127
0.000696127
0.000696127
0.000696127
0.000696127
0.000696127
0.000696127
0.000696127
0.000696127
0.000696127
0.000696124
0.000428736
0.000428732
0.000428732
0.000428733
0.000428735
0.000428737
0.000428738
0.000428739
0.000428738
0.000428738
0.000428736
0.000428735
0.000428734
0.000428733
0.000428733
0.000428733
0.000428733
0.000428733
0.000428734
0.000428735
0.000428736
0.000428737
0.000428738
0.000428738
0.000428738
0.000428736
0.000428735
0.000428733
0.000428732
0.000428732
0.000428732
0.000428732
0.000428732
0.000428732
0.000428732
0.000428732
0.000428732
0.000428732
0.000428732
0.00042873
0.000138787
0.000138787
0.000138787
0.000138787
0.000138787
0.000138787
0.000138787
0.000138788
0.000138788
0.000138788
0.000138788
0.000138788
0.000138788
0.000138788
0.000138788
0.000138788
0.000138788
0.000138788
0.000138788
0.000138788
0.000138789
0.000138789
0.000138789
0.000138789
0.000138788
0.000138788
0.000138787
0.000138787
0.000138787
0.000138787
0.000138787
0.000138787
0.000138787
0.000138787
0.000138787
0.000138787
0.000138787
0.000138787
0.000138787
0.000138787
)
;

boundaryField
{
    bottomWall
    {
        type            nutkWallFunction;
        Cmu             0.09;
        kappa           0.41;
        E               9.8;
        value           uniform 0;
    }
    topWall
    {
        type            nutkWallFunction;
        Cmu             0.09;
        kappa           0.41;
        E               9.8;
        value           uniform 0;
    }
    sides1_half0
    {
        type            empty;
    }
    sides1_half1
    {
        type            empty;
    }
    sides2_half0
    {
        type            empty;
    }
    sides2_half1
    {
        type            empty;
    }
    inout1_half0
    {
        type            cyclic;
    }
    inout1_half1
    {
        type            cyclic;
    }
    inout2_half0
    {
        type            cyclic;
    }
    inout2_half1
    {
        type            cyclic;
    }
}


// ************************************************************************* //
