/*--------------------------------*- C++ -*----------------------------------*\
  =========                 |
  \\      /  F ield         | OpenFOAM: The Open Source CFD Toolbox
   \\    /   O peration     | Website:  https://openfoam.org
    \\  /    A nd           | Version:  dev
     \\/     M anipulation  |

   OpenFOAM for Windows 20.09 (v1)
   Built by CFD Support, www.cfdsupport.com (based on Symscape).
\*---------------------------------------------------------------------------*/
FoamFile
{
    version     2.0;
    format      ascii;
    class       volScalarField;
    location    "70";
    object      p;
}
// * * * * * * * * * * * * * * * * * * * * * * * * * * * * * * * * * * * * * //

dimensions      [0 2 -2 0 0 0 0];

internalField   nonuniform List<scalar> 
1600
(
6.16698e-09
2.80227e-09
2.57433e-10
4.52954e-09
9.32146e-09
1.06951e-08
1.04794e-08
1.056e-08
1.12047e-08
1.19671e-08
1.24146e-08
1.16982e-08
1.01602e-08
8.9862e-09
8.38663e-09
8.213e-09
8.34086e-09
8.61024e-09
8.98123e-09
9.36755e-09
9.74651e-09
1.00213e-08
1.03619e-08
1.08241e-08
1.16477e-08
1.23989e-08
1.25912e-08
1.18034e-08
1.09025e-08
1.00126e-08
9.6471e-09
9.17689e-09
9.1268e-09
8.66239e-09
8.59839e-09
8.05235e-09
7.70262e-09
7.57841e-09
3.06282e-09
3.095e-09
6.5025e-09
1.64882e-09
6.40779e-10
5.82247e-09
9.90236e-09
1.07808e-08
1.0684e-08
1.08457e-08
1.13486e-08
1.19102e-08
1.20414e-08
1.12195e-08
9.91563e-09
8.9755e-09
8.60147e-09
8.55298e-09
8.6892e-09
8.93038e-09
9.24334e-09
9.53824e-09
9.82668e-09
1.00357e-08
1.02446e-08
1.04126e-08
1.08564e-08
1.14917e-08
1.18539e-08
1.14287e-08
1.07313e-08
1.0011e-08
9.64165e-09
9.19779e-09
9.12749e-09
8.65082e-09
8.65596e-09
7.83521e-09
8.11825e-09
7.15625e-09
2.33709e-09
4.51522e-09
6.4507e-09
3.26129e-10
1.45899e-09
7.15109e-09
1.01862e-08
1.06646e-08
1.06873e-08
1.09226e-08
1.13961e-08
1.19354e-08
1.1858e-08
1.09349e-08
9.77689e-09
8.95861e-09
8.60981e-09
8.56152e-09
8.68758e-09
8.90906e-09
9.20867e-09
9.49862e-09
9.78499e-09
9.98344e-09
1.02317e-08
1.04064e-08
1.0795e-08
1.13694e-08
1.17427e-08
1.1325e-08
1.0703e-08
1.00188e-08
9.65145e-09
9.2025e-09
9.14121e-09
8.62168e-09
8.71438e-09
7.65983e-09
8.43812e-09
6.47546e-09
1.61873e-09
6.22952e-09
6.16511e-09
-4.2849e-10
2.64031e-09
8.37167e-09
1.03585e-08
1.05103e-08
1.06444e-08
1.09525e-08
1.14379e-08
1.18481e-08
1.15326e-08
1.05617e-08
9.60376e-09
8.93776e-09
8.6337e-09
8.58509e-09
8.69721e-09
8.90447e-09
9.19458e-09
9.48406e-09
9.75561e-09
9.94014e-09
1.01641e-08
1.03501e-08
1.06668e-08
1.11404e-08
1.14929e-08
1.11367e-08
1.06253e-08
1.00038e-08
9.65838e-09
9.2114e-09
9.18337e-09
8.57468e-09
8.77908e-09
7.50928e-09
8.69909e-09
5.58059e-09
1.11783e-09
7.88126e-09
5.83272e-09
-6.34382e-10
3.88406e-09
9.3372e-09
1.04159e-08
1.03553e-08
1.05872e-08
1.0947e-08
1.14189e-08
1.1601e-08
1.10557e-08
1.01662e-08
9.44011e-09
8.93914e-09
8.68662e-09
8.64579e-09
8.71648e-09
8.90155e-09
9.20296e-09
9.48888e-09
9.72457e-09
9.87902e-09
1.00813e-08
1.02717e-08
1.05275e-08
1.08682e-08
1.11457e-08
1.08926e-08
1.05334e-08
9.96544e-09
9.65675e-09
9.23961e-09
9.22002e-09
8.52851e-09
8.83164e-09
7.39798e-09
8.88118e-09
4.68963e-09
1.10123e-09
9.46642e-09
5.69814e-09
-8.45371e-10
4.82448e-09
9.94279e-09
1.03561e-08
1.01852e-08
1.04913e-08
1.08845e-08
1.12709e-08
1.11835e-08
1.05293e-08
9.80459e-09
9.28901e-09
8.9637e-09
8.76874e-09
8.67446e-09
8.69937e-09
8.89663e-09
9.21535e-09
9.48814e-09
9.67544e-09
9.8026e-09
9.99201e-09
1.01996e-08
1.0382e-08
1.0556e-08
1.07661e-08
1.06463e-08
1.04105e-08
9.88949e-09
9.64403e-09
9.2626e-09
9.22954e-09
8.50562e-09
8.89293e-09
7.33255e-09
8.9753e-09
4.01182e-09
1.734e-09
1.14596e-08
5.82604e-09
-1.08595e-09
5.39286e-09
1.02308e-08
1.02136e-08
9.97879e-09
1.03341e-08
1.0751e-08
1.09736e-08
1.06543e-08
9.99556e-09
9.45031e-09
9.16113e-09
8.98798e-09
8.78725e-09
8.63028e-09
8.70201e-09
8.93267e-09
9.21517e-09
9.44712e-09
9.6042e-09
9.72478e-09
9.91371e-09
1.00983e-08
1.01774e-08
1.02327e-08
1.04034e-08
1.03926e-08
1.02179e-08
9.78051e-09
9.62185e-09
9.25426e-09
9.22106e-09
8.51115e-09
8.96146e-09
7.32516e-09
9.01704e-09
3.68412e-09
2.97403e-09
1.37273e-08
6.17508e-09
-1.09553e-09
5.8062e-09
1.0368e-08
1.00423e-08
9.72815e-09
1.01301e-08
1.05432e-08
1.05124e-08
1.00371e-08
9.45524e-09
9.11499e-09
9.03852e-09
8.93627e-09
8.70404e-09
8.58967e-09
8.73515e-09
8.98019e-09
9.19702e-09
9.35392e-09
9.52968e-09
9.67067e-09
9.82291e-09
9.92403e-09
9.9527e-09
9.95896e-09
1.00674e-08
1.00876e-08
9.95126e-09
9.66288e-09
9.6056e-09
9.2344e-09
9.1947e-09
8.55232e-09
9.00498e-09
7.37529e-09
9.08724e-09
3.74114e-09
4.52424e-09
1.57839e-08
6.72002e-09
-7.79613e-10
6.20626e-09
1.0465e-08
9.86405e-09
9.46637e-09
9.87938e-09
1.01623e-08
9.89072e-09
9.35335e-09
8.92129e-09
8.81527e-09
8.86505e-09
8.76214e-09
8.60344e-09
8.61202e-09
8.77086e-09
8.98087e-09
9.12157e-09
9.24005e-09
9.4654e-09
9.62308e-09
9.72902e-09
9.75256e-09
9.76407e-09
9.71781e-09
9.73921e-09
9.75214e-09
9.67681e-09
9.5777e-09
9.60496e-09
9.21768e-09
9.1762e-09
8.58642e-09
9.00852e-09
7.5093e-09
9.20923e-09
4.11186e-09
6.12142e-09
1.74124e-08
7.46051e-09
-2.30388e-10
6.56404e-09
1.05149e-08
9.6862e-09
9.20167e-09
9.53643e-09
9.61547e-09
9.18314e-09
8.68184e-09
8.43098e-09
8.51625e-09
8.63146e-09
8.55838e-09
8.53869e-09
8.64425e-09
8.77715e-09
8.89622e-09
8.99927e-09
9.16949e-09
9.41582e-09
9.57797e-09
9.68101e-09
9.65432e-09
9.6014e-09
9.48543e-09
9.42062e-09
9.42875e-09
9.457e-09
9.53092e-09
9.57708e-09
9.19455e-09
9.1766e-09
8.61961e-09
9.03266e-09
7.70491e-09
9.3296e-09
4.69685e-09
7.60561e-09
1.86448e-08
8.36598e-09
3.86331e-10
6.74871e-09
1.04612e-08
9.50354e-09
8.90709e-09
9.08593e-09
8.98294e-09
8.50264e-09
8.09895e-09
8.00467e-09
8.2032e-09
8.35601e-09
8.38999e-09
8.49842e-09
8.64668e-09
8.75149e-09
8.81349e-09
8.94087e-09
9.1521e-09
9.37718e-09
9.56822e-09
9.66063e-09
9.58894e-09
9.48603e-09
9.2715e-09
9.13513e-09
9.16187e-09
9.31333e-09
9.47697e-09
9.49412e-09
9.18429e-09
9.20699e-09
8.70923e-09
9.07688e-09
7.89729e-09
9.42841e-09
5.39065e-09
8.91161e-09
1.95585e-08
9.32068e-09
8.62058e-10
6.6534e-09
1.0279e-08
9.31041e-09
8.59125e-09
8.57853e-09
8.35143e-09
7.92111e-09
7.61736e-09
7.63784e-09
7.88872e-09
8.09905e-09
8.29627e-09
8.51294e-09
8.6881e-09
8.77491e-09
8.82219e-09
8.95772e-09
9.15329e-09
9.3602e-09
9.55569e-09
9.62849e-09
9.54788e-09
9.40959e-09
9.09594e-09
8.89896e-09
8.97402e-09
9.22692e-09
9.40175e-09
9.39902e-09
9.20878e-09
9.24815e-09
8.8025e-09
9.08731e-09
8.07565e-09
9.5542e-09
6.13441e-09
9.99149e-09
2.02227e-08
1.00394e-08
1.09348e-09
6.38517e-09
1.00557e-08
9.16786e-09
8.29329e-09
8.08826e-09
7.81253e-09
7.44609e-09
7.23368e-09
7.33816e-09
7.64215e-09
7.99439e-09
8.34573e-09
8.62202e-09
8.78468e-09
8.84242e-09
8.8913e-09
9.00815e-09
9.17634e-09
9.36375e-09
9.52744e-09
9.58651e-09
9.52253e-09
9.34629e-09
8.95997e-09
8.72661e-09
8.87403e-09
9.18036e-09
9.32064e-09
9.34123e-09
9.2315e-09
9.24341e-09
8.85141e-09
9.11124e-09
8.2774e-09
9.6708e-09
6.83859e-09
1.07692e-08
2.05296e-08
1.02816e-08
1.4764e-09
6.29514e-09
9.99361e-09
9.14603e-09
8.06162e-09
7.67732e-09
7.38119e-09
7.07656e-09
6.9663e-09
7.16534e-09
7.57683e-09
8.0749e-09
8.4916e-09
8.76764e-09
8.87911e-09
8.93316e-09
9.00639e-09
9.0941e-09
9.22394e-09
9.37463e-09
9.51135e-09
9.55249e-09
9.4909e-09
9.2682e-09
8.8548e-09
8.66057e-09
8.86063e-09
9.14744e-09
9.25557e-09
9.31507e-09
9.23244e-09
9.21852e-09
8.90179e-09
9.14949e-09
8.4712e-09
9.73619e-09
7.36909e-09
1.09961e-08
1.99213e-08
1.02051e-08
2.08592e-09
6.38524e-09
1.00402e-08
9.17963e-09
7.88718e-09
7.34519e-09
7.0443e-09
6.8265e-09
6.83128e-09
7.15073e-09
7.70502e-09
8.23068e-09
8.62938e-09
8.87343e-09
8.97218e-09
9.06538e-09
9.15487e-09
9.22406e-09
9.3033e-09
9.40986e-09
9.51029e-09
9.52157e-09
9.42806e-09
9.18122e-09
8.83198e-09
8.69684e-09
8.88247e-09
9.12798e-09
9.23303e-09
9.2902e-09
9.21245e-09
9.19936e-09
8.96693e-09
9.16237e-09
8.58763e-09
9.74227e-09
7.71395e-09
1.07615e-08
1.85697e-08
1.01551e-08
2.60299e-09
6.32077e-09
9.93497e-09
9.15461e-09
7.72861e-09
7.08272e-09
6.80702e-09
6.68337e-09
6.79944e-09
7.22397e-09
7.82563e-09
8.34887e-09
8.71733e-09
8.9407e-09
9.08714e-09
9.22494e-09
9.32632e-09
9.39058e-09
9.42266e-09
9.47804e-09
9.51592e-09
9.48594e-09
9.36515e-09
9.13882e-09
8.88309e-09
8.7741e-09
8.90918e-09
9.11719e-09
9.21591e-09
9.25165e-09
9.18221e-09
9.18381e-09
9.00105e-09
9.13924e-09
8.67585e-09
9.70998e-09
7.9389e-09
1.03949e-08
1.72633e-08
1.02319e-08
2.96925e-09
6.0338e-09
9.64182e-09
9.04029e-09
7.58229e-09
6.89852e-09
6.66475e-09
6.62282e-09
6.81667e-09
7.28507e-09
7.88165e-09
8.39223e-09
8.7578e-09
9.01236e-09
9.213e-09
9.37732e-09
9.50085e-09
9.56265e-09
9.56565e-09
9.55308e-09
9.52771e-09
9.47019e-09
9.34377e-09
9.15241e-09
8.95177e-09
8.85145e-09
8.9339e-09
9.09938e-09
9.18098e-09
9.20876e-09
9.16011e-09
9.17392e-09
9.00516e-09
9.11741e-09
8.76736e-09
9.66055e-09
8.09972e-09
1.00395e-08
1.62207e-08
1.03599e-08
3.20999e-09
5.63201e-09
9.26388e-09
8.89132e-09
7.4768e-09
6.79088e-09
6.59642e-09
6.61148e-09
6.8358e-09
7.29278e-09
7.86305e-09
8.37936e-09
8.77784e-09
9.07631e-09
9.31569e-09
9.5084e-09
9.64972e-09
9.71243e-09
9.69531e-09
9.62725e-09
9.55294e-09
9.46883e-09
9.34143e-09
9.18288e-09
9.02159e-09
8.92939e-09
8.96502e-09
9.08393e-09
9.15557e-09
9.18317e-09
9.15113e-09
9.15834e-09
9.01069e-09
9.12027e-09
8.83026e-09
9.60042e-09
8.22925e-09
9.72203e-09
1.53893e-08
1.04564e-08
3.38079e-09
5.23318e-09
8.89102e-09
8.76213e-09
7.41504e-09
6.73744e-09
6.57098e-09
6.61184e-09
6.83759e-09
7.26271e-09
7.80335e-09
8.33572e-09
8.77638e-09
9.11736e-09
9.39258e-09
9.6154e-09
9.76955e-09
9.83142e-09
9.7975e-09
9.69689e-09
9.57532e-09
9.46105e-09
9.34342e-09
9.21032e-09
9.08659e-09
9.00849e-09
9.00873e-09
9.08764e-09
9.14793e-09
9.17259e-09
9.14665e-09
9.14251e-09
9.02097e-09
9.12212e-09
8.8621e-09
9.53997e-09
8.31056e-09
9.4331e-09
1.4701e-08
1.04519e-08
3.43848e-09
4.90837e-09
8.57857e-09
8.631e-09
7.3561e-09
6.70253e-09
6.56055e-09
6.61561e-09
6.82778e-09
7.21769e-09
7.73829e-09
8.28767e-09
8.76624e-09
9.14866e-09
9.45983e-09
9.70701e-09
9.86863e-09
9.92082e-09
9.86397e-09
9.73286e-09
9.5843e-09
9.45705e-09
9.34486e-09
9.23452e-09
9.13616e-09
9.06883e-09
9.05562e-09
9.10642e-09
9.15031e-09
9.16703e-09
9.13923e-09
9.13398e-09
9.02759e-09
9.11758e-09
8.87193e-09
9.47592e-09
8.32529e-09
9.21234e-09
1.42081e-08
1.02769e-08
3.22493e-09
4.66846e-09
8.38257e-09
8.491e-09
7.26962e-09
6.67143e-09
6.56224e-09
6.62224e-09
6.81629e-09
7.18094e-09
7.69615e-09
8.26592e-09
8.7794e-09
9.19628e-09
9.53122e-09
9.78764e-09
9.94194e-09
9.96893e-09
9.88171e-09
9.72652e-09
9.56867e-09
9.44487e-09
9.34191e-09
9.24652e-09
9.16293e-09
9.1066e-09
9.08866e-09
9.12102e-09
9.15339e-09
9.16451e-09
9.13491e-09
9.1352e-09
9.02836e-09
9.11386e-09
8.85847e-09
9.43549e-09
8.25502e-09
9.07803e-09
1.40301e-08
9.88669e-09
2.70505e-09
4.52126e-09
8.3292e-09
8.36068e-09
7.17317e-09
6.65464e-09
6.57987e-09
6.63561e-09
6.81242e-09
7.16687e-09
7.69453e-09
8.29037e-09
8.83533e-09
9.27096e-09
9.6008e-09
9.83778e-09
9.96226e-09
9.95992e-09
9.84423e-09
9.67307e-09
9.52474e-09
9.41645e-09
9.32661e-09
9.24477e-09
9.17046e-09
9.12042e-09
9.09342e-09
9.12247e-09
9.15643e-09
9.1662e-09
9.13998e-09
9.14409e-09
9.02175e-09
9.11659e-09
8.83227e-09
9.4317e-09
8.10437e-09
9.03252e-09
1.41567e-08
9.37318e-09
1.9724e-09
4.42376e-09
8.34602e-09
8.24063e-09
7.09539e-09
6.6653e-09
6.61988e-09
6.6651e-09
6.82722e-09
7.18526e-09
7.7334e-09
8.35939e-09
8.92405e-09
9.33995e-09
9.62539e-09
9.81991e-09
9.91295e-09
9.89037e-09
9.75474e-09
9.58247e-09
9.45783e-09
9.36847e-09
9.29778e-09
9.23278e-09
9.16936e-09
9.11755e-09
9.07779e-09
9.11677e-09
9.15496e-09
9.17136e-09
9.14911e-09
9.14967e-09
9.01557e-09
9.13149e-09
8.7869e-09
9.43623e-09
7.89973e-09
9.08693e-09
1.45468e-08
8.82227e-09
1.14795e-09
4.3582e-09
8.41513e-09
8.17306e-09
7.07272e-09
6.72207e-09
6.69444e-09
6.72887e-09
6.8791e-09
7.24118e-09
7.80618e-09
8.45727e-09
8.99888e-09
9.34434e-09
9.57141e-09
9.72471e-09
9.80226e-09
9.76555e-09
9.61558e-09
9.46045e-09
9.36744e-09
9.31705e-09
9.26884e-09
9.22032e-09
9.17261e-09
9.09559e-09
9.05137e-09
9.11025e-09
9.15029e-09
9.17861e-09
9.14507e-09
9.15212e-09
9.01472e-09
9.13995e-09
8.70255e-09
9.42738e-09
7.64324e-09
9.19815e-09
1.50982e-08
8.33409e-09
4.47163e-10
4.34059e-09
8.55966e-09
8.20127e-09
7.12962e-09
6.83301e-09
6.81855e-09
6.8438e-09
6.9798e-09
7.33762e-09
7.91517e-09
8.55247e-09
9.01206e-09
9.26804e-09
9.44209e-09
9.56517e-09
9.63165e-09
9.58717e-09
9.44099e-09
9.32321e-09
9.28083e-09
9.26964e-09
9.24202e-09
9.21371e-09
9.16034e-09
9.04236e-09
9.02165e-09
9.10862e-09
9.15139e-09
9.19539e-09
9.1438e-09
9.162e-09
8.98231e-09
9.10764e-09
8.57068e-09
9.4064e-09
7.34311e-09
9.30941e-09
1.57041e-08
7.92884e-09
1.28886e-14
4.53291e-09
8.82294e-09
8.32509e-09
7.25744e-09
7.00487e-09
7.00533e-09
7.01598e-09
7.13412e-09
7.48449e-09
8.06271e-09
8.6279e-09
8.96082e-09
9.12557e-09
9.24477e-09
9.34738e-09
9.41192e-09
9.37144e-09
9.25183e-09
9.18911e-09
9.19831e-09
9.20969e-09
9.20636e-09
9.1954e-09
9.11012e-09
8.97273e-09
9.00524e-09
9.11988e-09
9.16857e-09
9.23244e-09
9.15862e-09
9.16416e-09
8.88944e-09
9.03617e-09
8.41193e-09
9.38567e-09
7.01405e-09
9.41676e-09
1.63641e-08
7.55673e-09
-3.25114e-10
5.01896e-09
9.22471e-09
8.51987e-09
7.46191e-09
7.25632e-09
7.26484e-09
7.25468e-09
7.35058e-09
7.68873e-09
8.22938e-09
8.67441e-09
8.84346e-09
8.90545e-09
8.98979e-09
9.08789e-09
9.1594e-09
9.13417e-09
9.05633e-09
9.04742e-09
9.09719e-09
9.14022e-09
9.15743e-09
9.1511e-09
9.04136e-09
8.9197e-09
9.00329e-09
9.15297e-09
9.20972e-09
9.27706e-09
9.16606e-09
9.12592e-09
8.76358e-09
8.98958e-09
8.25718e-09
9.36904e-09
6.66783e-09
9.52919e-09
1.71509e-08
7.31226e-09
-4.56939e-10
5.61297e-09
9.66511e-09
8.78356e-09
7.76839e-09
7.60225e-09
7.60687e-09
7.55701e-09
7.61601e-09
7.93791e-09
8.38432e-09
8.64161e-09
8.64126e-09
8.62601e-09
8.69726e-09
8.79473e-09
8.88109e-09
8.89053e-09
8.8619e-09
8.90387e-09
8.98898e-09
9.06303e-09
9.10626e-09
9.10739e-09
8.97315e-09
8.89148e-09
9.01589e-09
9.19537e-09
9.26895e-09
9.32178e-09
9.143e-09
9.04421e-09
8.67556e-09
8.99203e-09
8.09269e-09
9.37883e-09
6.30016e-09
9.55049e-09
1.79614e-08
7.24361e-09
-4.35886e-10
6.12684e-09
1.00782e-08
9.10789e-09
8.15749e-09
8.02031e-09
8.00049e-09
7.90222e-09
7.93369e-09
8.19191e-09
8.46375e-09
8.50799e-09
8.39317e-09
8.34768e-09
8.3988e-09
8.48384e-09
8.5973e-09
8.65453e-09
8.66369e-09
8.76944e-09
8.89997e-09
8.99667e-09
9.07299e-09
9.07528e-09
8.90829e-09
8.8904e-09
9.04285e-09
9.23641e-09
9.32937e-09
9.34706e-09
9.09273e-09
8.99768e-09
8.64061e-09
8.99595e-09
7.94922e-09
9.42663e-09
5.89368e-09
9.3864e-09
1.86498e-08
7.32612e-09
-4.76614e-10
6.43498e-09
1.04096e-08
9.44517e-09
8.56069e-09
8.45385e-09
8.42061e-09
8.31009e-09
8.28829e-09
8.39239e-09
8.46795e-09
8.34595e-09
8.18011e-09
8.12443e-09
8.12402e-09
8.18708e-09
8.3062e-09
8.39208e-09
8.48086e-09
8.67413e-09
8.84296e-09
8.9617e-09
9.06112e-09
9.04796e-09
8.88073e-09
8.91793e-09
9.08427e-09
9.28083e-09
9.35262e-09
9.34707e-09
9.04035e-09
9.03163e-09
8.62652e-09
9.00686e-09
7.8611e-09
9.49157e-09
5.48181e-09
9.05268e-09
1.92405e-08
7.52888e-09
-7.04089e-10
6.4591e-09
1.06032e-08
9.71949e-09
8.92252e-09
8.90581e-09
8.89616e-09
8.77032e-09
8.64713e-09
8.58381e-09
8.48338e-09
8.24699e-09
8.05364e-09
7.95807e-09
7.89461e-09
7.9188e-09
7.99823e-09
8.11397e-09
8.35228e-09
8.63458e-09
8.80983e-09
8.95342e-09
9.05918e-09
9.03624e-09
8.90129e-09
8.97384e-09
9.1415e-09
9.32203e-09
9.3557e-09
9.33393e-09
8.99905e-09
9.11475e-09
8.62948e-09
9.04469e-09
7.80499e-09
9.5692e-09
5.1127e-09
8.4985e-09
1.97326e-08
7.72867e-09
-9.5629e-10
6.3076e-09
1.06631e-08
9.9374e-09
9.30419e-09
9.4081e-09
9.42952e-09
9.27204e-09
9.0662e-09
8.8547e-09
8.5679e-09
8.24738e-09
8.0129e-09
7.84661e-09
7.72904e-09
7.68156e-09
7.70491e-09
7.89738e-09
8.27969e-09
8.6055e-09
8.78985e-09
8.96685e-09
9.06438e-09
9.04076e-09
8.94454e-09
9.05054e-09
9.21188e-09
9.38575e-09
9.34577e-09
9.28897e-09
9.01461e-09
9.2014e-09
8.61876e-09
9.11108e-09
7.77249e-09
9.65295e-09
4.80806e-09
7.62448e-09
1.97518e-08
7.61613e-09
-8.81965e-10
6.26103e-09
1.07538e-08
1.02366e-08
9.7772e-09
9.94654e-09
9.98699e-09
9.82696e-09
9.57468e-09
9.21421e-09
8.75293e-09
8.34019e-09
8.04239e-09
7.80948e-09
7.62437e-09
7.48986e-09
7.48164e-09
7.76895e-09
8.2199e-09
8.55998e-09
8.77845e-09
8.98344e-09
9.06433e-09
9.04353e-09
9.00457e-09
9.15773e-09
9.31989e-09
9.4471e-09
9.31244e-09
9.27064e-09
9.06242e-09
9.24267e-09
8.61185e-09
9.19438e-09
7.75394e-09
9.72198e-09
4.59334e-09
6.35011e-09
1.86607e-08
7.18598e-09
-4.93683e-10
6.28265e-09
1.08968e-08
1.06471e-08
1.02981e-08
1.04741e-08
1.05207e-08
1.0382e-08
1.011e-08
9.64305e-09
9.04611e-09
8.51068e-09
8.13262e-09
7.83379e-09
7.56015e-09
7.37849e-09
7.37735e-09
7.69287e-09
8.13085e-09
8.49232e-09
8.74686e-09
8.96449e-09
9.03372e-09
9.04489e-09
9.0987e-09
9.33025e-09
9.45663e-09
9.4894e-09
9.30039e-09
9.30808e-09
9.07686e-09
9.25862e-09
8.65095e-09
9.23596e-09
7.74493e-09
9.74905e-09
4.56842e-09
4.88707e-09
1.65306e-08
6.87648e-09
-3.11761e-11
6.00019e-09
1.08383e-08
1.10182e-08
1.07641e-08
1.09058e-08
1.09559e-08
1.0865e-08
1.0612e-08
1.01028e-08
9.39949e-09
8.73679e-09
8.25906e-09
7.88002e-09
7.55271e-09
7.36778e-09
7.36531e-09
7.62626e-09
8.0041e-09
8.38072e-09
8.66161e-09
8.89635e-09
8.97984e-09
9.064e-09
9.24829e-09
9.57039e-09
9.60894e-09
9.55621e-09
9.32478e-09
9.33692e-09
9.08909e-09
9.27422e-09
8.6834e-09
9.22634e-09
7.77278e-09
9.72746e-09
4.86047e-09
3.61983e-09
1.40812e-08
6.95322e-09
3.63782e-10
5.22686e-09
1.03543e-08
1.12e-08
1.10895e-08
1.11705e-08
1.12346e-08
1.12329e-08
1.10472e-08
1.05397e-08
9.75288e-09
8.98303e-09
8.39747e-09
7.93811e-09
7.59788e-09
7.40958e-09
7.37229e-09
7.55132e-09
7.85881e-09
8.2329e-09
8.53436e-09
8.80963e-09
8.93853e-09
9.13111e-09
9.45362e-09
9.83666e-09
9.7845e-09
9.64666e-09
9.36439e-09
9.3527e-09
9.10173e-09
9.26397e-09
8.70134e-09
9.19732e-09
7.85682e-09
9.64208e-09
5.49754e-09
2.88726e-09
1.19029e-08
7.29873e-09
9.14649e-10
4.1722e-09
9.46663e-09
1.11443e-08
1.12637e-08
1.12816e-08
1.13662e-08
1.14787e-08
1.13971e-08
1.091e-08
1.00791e-08
9.21646e-09
8.52573e-09
8.00601e-09
7.64205e-09
7.43185e-09
7.35939e-09
7.47432e-09
7.71983e-09
8.08074e-09
8.40225e-09
8.73784e-09
8.93933e-09
9.26633e-09
9.69916e-09
1.00836e-08
9.95468e-09
9.74521e-09
9.40857e-09
9.37006e-09
9.10462e-09
9.23593e-09
8.73954e-09
9.1447e-09
7.99201e-09
9.46848e-09
6.38749e-09
2.78072e-09
9.9743e-09
7.64458e-09
1.91503e-09
3.18291e-09
8.33814e-09
1.09337e-08
1.13434e-08
1.13188e-08
1.14184e-08
1.16334e-08
1.16637e-08
1.12059e-08
1.03449e-08
9.40665e-09
8.63281e-09
8.06787e-09
7.67195e-09
7.42501e-09
7.32651e-09
7.40024e-09
7.60401e-09
7.95298e-09
8.29085e-09
8.68043e-09
8.98086e-09
9.45074e-09
9.94152e-09
1.02837e-08
1.00895e-08
9.82589e-09
9.45484e-09
9.37931e-09
9.11437e-09
9.21847e-09
8.7907e-09
9.07992e-09
8.16057e-09
9.20955e-09
7.33653e-09
3.17126e-09
8.06785e-09
8.01137e-09
3.25051e-09
2.44756e-09
7.06619e-09
1.05548e-08
1.13587e-08
1.13409e-08
1.14423e-08
1.17404e-08
1.18698e-08
1.1442e-08
1.05381e-08
9.52177e-09
8.68556e-09
8.10104e-09
7.71568e-09
7.45545e-09
7.29611e-09
7.33039e-09
7.50821e-09
7.86344e-09
8.23881e-09
8.62145e-09
8.93196e-09
9.50639e-09
1.00432e-08
1.03676e-08
1.0182e-08
9.85688e-09
9.4794e-09
9.39414e-09
9.12589e-09
9.21844e-09
8.83828e-09
9.03111e-09
8.34768e-09
8.89496e-09
8.09127e-09
3.73602e-09
6.39698e-09
8.15008e-09
4.54893e-09
2.17676e-09
6.00405e-09
1.00086e-08
1.10241e-08
1.08968e-08
1.11335e-08
1.1662e-08
1.19603e-08
1.16535e-08
1.07085e-08
9.59938e-09
8.67041e-09
7.98829e-09
7.47172e-09
7.17591e-09
7.00807e-09
7.03191e-09
7.25636e-09
7.70356e-09
8.18995e-09
8.78711e-09
9.39302e-09
1.01808e-08
1.0725e-08
1.09342e-08
1.05182e-08
1.00952e-08
9.53695e-09
9.44541e-09
9.12585e-09
9.23807e-09
8.87079e-09
8.98434e-09
8.56978e-09
8.44853e-09
8.62374e-09
4.2811e-09
5.06095e-09
)
;

boundaryField
{
    bottomWall
    {
        type            zeroGradient;
    }
    topWall
    {
        type            zeroGradient;
    }
    sides1_half0
    {
        type            empty;
    }
    sides1_half1
    {
        type            empty;
    }
    sides2_half0
    {
        type            empty;
    }
    sides2_half1
    {
        type            empty;
    }
    inout1_half0
    {
        type            cyclic;
    }
    inout1_half1
    {
        type            cyclic;
    }
    inout2_half0
    {
        type            cyclic;
    }
    inout2_half1
    {
        type            cyclic;
    }
}


// ************************************************************************* //
