/*--------------------------------*- C++ -*----------------------------------*\
  =========                 |
  \\      /  F ield         | OpenFOAM: The Open Source CFD Toolbox
   \\    /   O peration     | Website:  https://openfoam.org
    \\  /    A nd           | Version:  dev
     \\/     M anipulation  |

   OpenFOAM for Windows 20.09 (v1)
   Built by CFD Support, www.cfdsupport.com (based on Symscape).
\*---------------------------------------------------------------------------*/
FoamFile
{
    version     2.0;
    format      ascii;
    class       surfaceScalarField;
    location    "70";
    object      phi;
}
// * * * * * * * * * * * * * * * * * * * * * * * * * * * * * * * * * * * * * //

dimensions      [0 3 -1 0 0 0 0];

internalField   nonuniform List<scalar> 
3120
(
0.000645505
-1.57755e-09
0.000645504
5.75928e-10
0.000645503
1.07599e-09
0.000645503
2.55963e-10
0.000645503
-1.17537e-11
0.000645503
6.74062e-11
0.000645503
1.04378e-10
0.000645503
6.65487e-11
0.000645503
2.3421e-11
0.000645503
1.34816e-11
0.000645502
6.45404e-11
0.000645502
1.36484e-10
0.000645502
1.28279e-10
0.000645502
4.51861e-11
0.000645502
-6.08256e-11
0.000645502
-1.63702e-10
0.000645503
-2.37132e-10
0.000645503
-2.7017e-10
0.000645503
-2.59255e-10
0.000645503
-2.2002e-10
0.000645504
-1.44329e-10
0.000645504
-5.96983e-11
0.000645504
3.1359e-11
0.000645503
1.03145e-10
0.000645503
1.39994e-10
0.000645503
1.48e-10
0.000645503
1.12798e-10
0.000645503
1.34056e-10
0.000645503
4.77611e-11
0.000645503
8.2313e-11
0.000645503
-4.74599e-11
0.000645503
5.59033e-11
0.000645503
-1.27653e-10
0.000645503
7.48e-11
0.000645503
-1.71452e-10
0.000645503
4.8521e-11
0.000645503
1.10269e-12
0.000645503
-2.74039e-10
0.000645502
9.10868e-10
-8.23188e-10
0.000750867
-1.33796e-09
0.000750866
1.41191e-09
0.000750865
1.49069e-09
0.000750865
3.90078e-10
0.000750865
5.81991e-11
0.000750865
1.0992e-10
0.000750865
1.30246e-10
0.000750865
8.39577e-11
0.000750865
1.78229e-11
0.000750865
-5.24506e-12
0.000750865
6.0549e-11
0.000750865
1.65125e-10
0.000750865
1.71223e-10
0.000750865
6.5304e-11
0.000750865
-7.98385e-11
0.000750865
-2.31831e-10
0.000750865
-3.44433e-10
0.000750865
-3.98003e-10
0.000750865
-3.87893e-10
0.000750866
-3.39259e-10
0.000750866
-2.3564e-10
0.000750866
-1.1827e-10
0.000750866
1.14777e-11
0.000750866
9.84159e-11
0.000750866
1.40379e-10
0.000750866
1.30709e-10
0.000750866
1.11848e-10
0.000750866
1.43127e-10
0.000750866
7.98165e-11
0.000750866
9.63586e-11
0.000750866
-3.74154e-11
0.000750866
4.4719e-11
0.000750866
-1.55286e-10
0.000750866
6.1868e-11
0.000750866
-2.46572e-10
0.000750866
7.18508e-11
0.000750866
-1.69098e-10
0.000750866
-1.69207e-10
0.000750866
7.21532e-10
-1.61117e-09
0.000820543
-5.30736e-10
0.000820542
1.96376e-09
0.000820542
1.57201e-09
0.000820542
4.53674e-10
0.000820542
1.14187e-10
0.000820542
1.2163e-10
0.000820542
1.21423e-10
0.000820542
7.08515e-11
0.000820542
-5.72776e-12
0.000820542
-3.72112e-11
0.000820542
3.05462e-11
0.000820542
1.41673e-10
0.000820542
1.62436e-10
0.000820542
6.46683e-11
0.000820542
-9.08501e-11
0.000820542
-2.60416e-10
0.000820542
-3.86242e-10
0.000820542
-4.49698e-10
0.000820542
-4.44676e-10
0.000820542
-3.98185e-10
0.000820542
-2.89869e-10
0.000820542
-1.63858e-10
0.000820542
-2.27274e-11
0.000820542
6.10736e-11
0.000820542
9.33522e-11
0.000820543
6.9082e-11
0.000820543
6.72472e-11
0.000820543
1.15681e-10
0.000820543
8.73644e-11
0.000820543
9.12591e-11
0.000820543
-2.0331e-11
0.000820543
2.29189e-11
0.000820543
-1.49481e-10
0.000820543
2.01047e-11
0.000820543
-2.63075e-10
0.000820543
3.91083e-11
0.000820543
-2.80699e-10
0.000820543
-8.01701e-11
0.000820543
2.36271e-10
-1.84636e-09
0.000879538
2.73657e-10
0.000879538
2.19749e-09
0.000879538
1.51808e-09
0.000879538
4.95401e-10
0.000879538
1.59668e-10
0.000879538
1.19648e-10
0.000879538
9.71432e-11
0.000879538
4.35677e-11
0.000879538
-3.41001e-11
0.000879538
-7.03144e-11
0.000879538
-1.6451e-11
0.000879538
9.14291e-11
0.000879538
1.30164e-10
0.000879538
5.2207e-11
0.000879538
-9.51062e-11
0.000879538
-2.60474e-10
0.000879538
-3.83492e-10
0.000879538
-4.49235e-10
0.000879538
-4.51862e-10
0.000879538
-4.14345e-10
0.000879538
-3.14992e-10
0.000879538
-1.93266e-10
0.000879538
-5.77326e-11
0.000879538
1.63199e-11
0.000879538
3.41932e-11
0.000879538
-6.36253e-12
0.000879538
3.1594e-12
0.000879538
6.80964e-11
0.000879539
7.44925e-11
0.000879539
7.87532e-11
0.000879539
-2.95063e-12
0.000879539
1.68676e-12
0.000879539
-1.31419e-10
0.000879539
-2.80628e-11
0.000879539
-2.49882e-10
0.000879539
-1.93335e-11
0.000879539
-3.3339e-10
0.000879539
-6.03028e-11
0.000879539
-2.18918e-10
-1.66316e-09
0.000933993
8.6539e-10
0.000933993
2.2141e-09
0.000933993
1.423e-09
0.000933993
5.25896e-10
0.000933993
1.9249e-10
0.000933993
1.10162e-10
0.000933993
6.86045e-11
0.000933993
1.51308e-11
0.000933993
-5.7508e-11
0.000933993
-1.01926e-10
0.000933993
-6.47363e-11
0.000933993
4.1413e-11
0.000933993
9.8587e-11
0.000933993
4.19544e-11
0.000933993
-8.93788e-11
0.000933993
-2.37173e-10
0.000933993
-3.5144e-10
0.000933993
-4.16526e-10
0.000933993
-4.26256e-10
0.000933993
-4.01023e-10
0.000933993
-3.17746e-10
0.000933993
-2.08893e-10
0.000933993
-8.69266e-11
0.000933993
-2.40157e-11
0.000933993
-2.1358e-11
0.000933993
-7.98425e-11
0.000933993
-6.95219e-11
0.000933993
9.44358e-12
0.000933993
5.09207e-11
0.000933993
6.4233e-11
0.000933993
1.03547e-11
0.000933993
-1.53595e-11
0.000933993
-1.11818e-10
0.000933993
-7.16941e-11
0.000933993
-2.27306e-10
0.000933993
-8.35912e-11
0.000933993
-3.45143e-10
0.000933993
-9.2633e-11
0.000933994
-5.40203e-10
-1.28966e-09
0.000986465
1.23173e-09
0.000986465
2.07421e-09
0.000986465
1.28815e-09
0.000986465
5.22623e-10
0.000986465
2.02144e-10
0.000986465
9.56673e-11
0.000986465
4.54568e-11
0.000986465
-2.93222e-12
0.000986465
-6.99885e-11
0.000986465
-1.22827e-10
0.000986465
-9.76754e-11
0.000986465
9.56553e-12
0.000986465
7.86026e-11
0.000986465
4.13319e-11
0.000986465
-6.62935e-11
0.000986465
-1.95242e-10
0.000986465
-3.01556e-10
0.000986465
-3.63663e-10
0.000986465
-3.80031e-10
0.000986465
-3.68353e-10
0.000986465
-3.05695e-10
0.000986465
-2.14341e-10
0.000986465
-1.08659e-10
0.000986465
-5.63416e-11
0.000986465
-6.95283e-11
0.000986465
-1.49067e-10
0.000986465
-1.446e-10
0.000986465
-5.17441e-11
0.000986465
2.21051e-11
0.000986465
4.6627e-11
0.000986465
1.49109e-11
0.000986465
-2.94063e-11
0.000986465
-9.57656e-11
0.000986465
-1.06058e-10
0.000986465
-2.03536e-10
0.000986465
-1.41792e-10
0.000986465
-3.32336e-10
0.000986465
-1.47025e-10
0.000986466
-7.07622e-10
-8.41037e-10
0.00103826
1.4094e-09
0.00103826
1.82439e-09
0.00103826
1.10738e-09
0.00103826
4.78676e-10
0.00103826
1.92036e-10
0.00103826
8.56428e-11
0.00103826
3.85846e-11
0.00103826
-9.16248e-13
0.00103826
-6.37143e-11
0.00103826
-1.2497e-10
0.00103826
-1.08631e-10
0.00103826
-2.73568e-12
0.00103826
7.35795e-11
0.00103826
5.54747e-11
0.00103826
-2.90684e-11
0.00103826
-1.41647e-10
0.00103826
-2.3745e-10
0.00103826
-2.98279e-10
0.00103826
-3.24268e-10
0.00103826
-3.26469e-10
0.00103826
-2.85711e-10
0.00103826
-2.12083e-10
0.00103826
-1.22404e-10
0.00103826
-8.39707e-11
0.00103826
-1.16564e-10
0.00103826
-2.15606e-10
0.00103826
-2.17377e-10
0.00103826
-1.12065e-10
0.00103826
-1.41871e-11
0.00103826
2.29696e-11
0.00103826
9.27427e-12
0.00103826
-4.3291e-11
0.00103826
-8.47528e-11
0.00103826
-1.2989e-10
0.00103826
-1.79857e-10
0.00103826
-1.84689e-10
0.00103826
-3.04483e-10
0.00103826
-1.96846e-10
0.00103826
-7.42149e-10
-3.93333e-10
0.00109011
1.43746e-09
0.00109011
1.52318e-09
0.00109011
9.09401e-10
0.00109011
4.17106e-10
0.00109011
1.8029e-10
0.00109011
9.00854e-11
0.00109011
5.55347e-11
0.00109011
2.53645e-11
0.00109011
-4.05587e-11
0.00109011
-1.12787e-10
0.00109011
-1.03371e-10
0.00109011
-7.28158e-13
0.00109011
8.15574e-11
0.00109011
8.13435e-11
0.00109011
1.35437e-11
0.00109011
-8.54758e-11
0.00109011
-1.71051e-10
0.00109011
-2.3164e-10
0.00109011
-2.66483e-10
0.00109011
-2.83346e-10
0.00109011
-2.61339e-10
0.00109011
-2.04e-10
0.00109011
-1.34662e-10
0.00109011
-1.14031e-10
0.00109011
-1.6411e-10
0.00109011
-2.75644e-10
0.00109011
-2.83696e-10
0.00109011
-1.73267e-10
0.00109011
-5.83098e-11
0.00109011
-8.03687e-12
0.00109011
-6.09452e-12
0.00109011
-5.67781e-11
0.00109011
-7.84485e-11
0.00109011
-1.4132e-10
0.00109011
-1.55803e-10
0.00109011
-2.09327e-10
0.00109011
-2.66159e-10
0.00109011
-2.27793e-10
0.00109011
-6.87824e-10
-1.27799e-11
0.00114249
1.36351e-09
0.00114249
1.2236e-09
0.00114249
7.31832e-10
0.00114249
3.67639e-10
0.00114249
1.84669e-10
0.00114249
1.16872e-10
0.00114249
9.3786e-11
0.00114249
6.29965e-11
0.00114249
-1.46298e-11
0.00114249
-9.75985e-11
0.00114249
-9.16656e-11
0.00114249
8.81544e-12
0.00114249
9.51085e-11
0.00114249
1.07049e-10
0.00114249
5.13872e-11
0.00114249
-3.63442e-11
0.00114249
-1.15716e-10
0.00114249
-1.75192e-10
0.00114249
-2.1656e-10
0.00114249
-2.45562e-10
0.00114249
-2.36828e-10
0.00114249
-1.96653e-10
0.00114249
-1.50414e-10
0.00114249
-1.46428e-10
0.00114249
-2.08066e-10
0.00114249
-3.25984e-10
0.00114249
-3.41254e-10
0.00114249
-2.32396e-10
0.00114249
-1.07739e-10
0.00114249
-4.50151e-11
0.00114249
-2.67339e-11
0.00114249
-6.7641e-11
0.00114249
-7.50912e-11
0.00114249
-1.42763e-10
0.00114249
-1.33691e-10
0.00114249
-2.15343e-10
0.00114249
-2.20871e-10
0.00114249
-2.34985e-10
0.00114249
-5.81218e-10
2.75122e-10
0.00119571
1.23512e-09
0.00119571
9.64518e-10
0.00119571
6.03986e-10
0.00119571
3.52069e-10
0.00119571
2.14289e-10
0.00119571
1.62973e-10
0.00119571
1.41105e-10
0.00119571
9.67454e-11
0.00119571
3.56539e-12
0.00119571
-8.58127e-11
0.00119571
-8.02339e-11
0.00119571
1.77335e-11
0.00119571
1.0473e-10
0.00119571
1.20321e-10
0.00119571
7.21598e-11
0.00119571
-7.18825e-12
0.00119571
-8.14759e-11
0.00119571
-1.38365e-10
0.00119571
-1.81951e-10
0.00119571
-2.15153e-10
0.00119571
-2.1795e-10
0.00119571
-1.94143e-10
0.00119571
-1.662e-10
0.00119571
-1.75714e-10
0.00119571
-2.45955e-10
0.00119571
-3.65444e-10
0.00119571
-3.87857e-10
0.00119571
-2.85632e-10
0.00119571
-1.57344e-10
0.00119571
-8.30998e-11
0.00119571
-4.90858e-11
0.00119571
-7.76574e-11
0.00119571
-7.33549e-11
0.00119571
-1.38009e-10
0.00119571
-1.13608e-10
0.00119571
-2.05436e-10
0.00119571
-1.72132e-10
0.00119571
-2.18141e-10
0.00119571
-4.47986e-10
4.75617e-10
0.00124997
1.09491e-09
0.00124997
7.68879e-10
0.00124997
5.32134e-10
0.00124997
3.70491e-10
0.00124997
2.6377e-10
0.00124997
2.16029e-10
0.00124997
1.83186e-10
0.00124997
1.19472e-10
0.00124997
1.34214e-11
0.00124997
-7.75091e-11
0.00124997
-7.17387e-11
0.00124997
1.96688e-11
0.00124997
9.90221e-11
0.00124997
1.11021e-10
0.00124997
6.62249e-11
0.00124997
-4.29941e-12
0.00124997
-6.90062e-11
0.00124997
-1.19259e-10
0.00124997
-1.59816e-10
0.00124997
-1.93907e-10
0.00124997
-2.06855e-10
0.00124997
-1.95175e-10
0.00124997
-1.8053e-10
0.00124997
-2.00048e-10
0.00124997
-2.74893e-10
0.00124997
-3.92968e-10
0.00124997
-4.22051e-10
0.00124997
-3.29486e-10
0.00124997
-2.01718e-10
0.00124997
-1.18491e-10
0.00124997
-7.23498e-11
0.00124997
-8.65838e-11
0.00124997
-7.27475e-11
0.00124997
-1.28862e-10
0.00124997
-9.47181e-11
0.00124997
-1.85087e-10
0.00124997
-1.2343e-10
0.00124997
-1.80677e-10
0.00124997
-3.02892e-10
6.06873e-10
0.00130541
9.80481e-10
0.00130541
6.36297e-10
0.00130541
4.90666e-10
0.00130541
3.98956e-10
0.00130541
3.14614e-10
0.00130541
2.62474e-10
0.00130541
2.12518e-10
0.00130541
1.31218e-10
0.00130541
1.86359e-11
0.00130541
-7.11136e-11
0.00130541
-6.76471e-11
0.00130541
9.93677e-12
0.00130541
7.29198e-11
0.00130541
8.05717e-11
0.00130541
4.25435e-11
0.00130541
-1.57466e-11
0.00130541
-6.83679e-11
0.00130541
-1.10847e-10
0.00130541
-1.47383e-10
0.00130541
-1.83021e-10
0.00130541
-2.02043e-10
0.00130541
-1.98758e-10
0.00130541
-1.93856e-10
0.00130541
-2.19123e-10
0.00130541
-2.95517e-10
0.00130541
-4.08946e-10
0.00130541
-4.43282e-10
0.00130541
-3.61693e-10
0.00130541
-2.36949e-10
0.00130541
-1.48666e-10
0.00130541
-9.43864e-11
0.00130541
-9.40134e-11
0.00130541
-7.33207e-11
0.00130541
-1.1795e-10
0.00130541
-7.92554e-11
0.00130541
-1.58849e-10
0.00130541
-7.48211e-11
0.00130541
-1.27067e-10
0.00130541
-1.55698e-10
6.96496e-10
0.00136214
8.94575e-10
0.00136214
5.23302e-10
0.00136214
4.41751e-10
0.00136214
4.12824e-10
0.00136214
3.52514e-10
0.00136214
2.96394e-10
0.00136214
2.31683e-10
0.00136214
1.38606e-10
0.00136214
2.33935e-11
0.00136214
-6.47955e-11
0.00136214
-6.76362e-11
0.00136214
-7.7024e-12
0.00136214
4.16081e-11
0.00136214
4.93714e-11
0.00136214
1.88623e-11
0.00136214
-2.88657e-11
0.00136214
-7.30091e-11
0.00136214
-1.09887e-10
0.00136214
-1.43306e-10
0.00136214
-1.78742e-10
0.00136214
-2.00931e-10
0.00136214
-2.04114e-10
0.00136214
-2.05653e-10
0.00136214
-2.33313e-10
0.00136214
-3.07814e-10
0.00136214
-4.13909e-10
0.00136214
-4.51814e-10
0.00136214
-3.80643e-10
0.00136214
-2.6169e-10
0.00136214
-1.72147e-10
0.00136214
-1.12945e-10
0.00136214
-1.011e-10
0.00136214
-7.51028e-11
0.00136214
-1.06998e-10
0.00136214
-6.49861e-11
0.00136214
-1.29264e-10
0.00136214
-3.148e-11
0.00136214
-6.60172e-11
0.00136214
-8.73403e-12
7.77722e-10
0.00142022
7.9246e-10
0.00142022
4.18285e-10
0.00142022
3.91919e-10
0.00142022
4.19626e-10
0.00142022
3.8222e-10
0.00142022
3.23312e-10
0.00142022
2.47625e-10
0.00142022
1.47084e-10
0.00142022
3.19794e-11
0.00142022
-5.34033e-11
0.00142022
-6.24411e-11
0.00142022
-1.54988e-11
0.00142022
2.54411e-11
0.00142022
3.25539e-11
0.00142022
4.75459e-12
0.00142022
-3.85862e-11
0.00142022
-7.874e-11
0.00142022
-1.1206e-10
0.00142022
-1.43836e-10
0.00142022
-1.77803e-10
0.00142022
-2.01471e-10
0.00142022
-2.0842e-10
0.00142022
-2.13231e-10
0.00142022
-2.41717e-10
0.00142022
-3.122e-10
0.00142022
-4.08353e-10
0.00142022
-4.45507e-10
0.00142022
-3.84401e-10
0.00142022
-2.75066e-10
0.00142022
-1.87638e-10
0.00142022
-1.26087e-10
0.00142022
-1.05596e-10
0.00142022
-7.6303e-11
0.00142022
-9.5935e-11
0.00142022
-5.25176e-11
0.00142022
-1.00612e-10
0.00142022
2.73642e-12
0.00142022
-1.34676e-11
0.00142022
1.07672e-10
8.03229e-10
0.00147968
6.51059e-10
0.00147968
3.1639e-10
0.00147968
3.48794e-10
0.00147968
4.24245e-10
0.00147968
4.04282e-10
0.00147968
3.43321e-10
0.00147968
2.60381e-10
0.00147968
1.57368e-10
0.00147968
4.80613e-11
0.00147968
-2.98711e-11
0.00147968
-3.9829e-11
0.00147968
-1.6516e-12
0.00147968
3.16083e-11
0.00147968
3.23177e-11
0.00147968
1.55573e-12
0.00147968
-4.22467e-11
0.00147968
-8.16996e-11
0.00147968
-1.14109e-10
0.00147968
-1.44932e-10
0.00147968
-1.77238e-10
0.00147968
-2.00172e-10
0.00147968
-2.08134e-10
0.00147968
-2.15171e-10
0.00147968
-2.43803e-10
0.00147968
-3.0688e-10
0.00147968
-3.88503e-10
0.00147968
-4.21963e-10
0.00147968
-3.71869e-10
0.00147968
-2.75231e-10
0.00147968
-1.92854e-10
0.00147968
-1.32562e-10
0.00147968
-1.06909e-10
0.00147968
-7.64832e-11
0.00147968
-8.55972e-11
0.00147968
-4.4123e-11
0.00147968
-7.83597e-11
0.00147968
2.47365e-11
0.00147968
2.01411e-11
0.00147968
1.68515e-10
7.47421e-10
0.00154054
4.96806e-10
0.00154054
2.05568e-10
0.00154054
2.91822e-10
0.00154054
4.0716e-10
0.00154054
4.04971e-10
0.00154054
3.46242e-10
0.00154054
2.62919e-10
0.00154054
1.65773e-10
0.00154054
6.9819e-11
0.00154054
6.13864e-12
0.00154054
5.13447e-13
0.00154054
3.16332e-11
0.00154054
5.39265e-11
0.00154054
4.47903e-11
0.00154054
7.31913e-12
0.00154054
-3.9712e-11
0.00154054
-8.11002e-11
0.00154054
-1.14152e-10
0.00154054
-1.43792e-10
0.00154054
-1.73105e-10
0.00154054
-1.93581e-10
0.00154054
-2.02159e-10
0.00154054
-2.10171e-10
0.00154054
-2.35454e-10
0.00154054
-2.87454e-10
0.00154054
-3.52577e-10
0.00154054
-3.81288e-10
0.00154054
-3.43057e-10
0.00154054
-2.62156e-10
0.00154054
-1.88722e-10
0.00154054
-1.33523e-10
0.00154054
-1.05885e-10
0.00154054
-7.63706e-11
0.00154054
-7.80668e-11
0.00154054
-3.99512e-11
0.00154054
-6.21696e-11
0.00154054
3.45459e-11
0.00154054
3.48739e-11
0.00154054
1.86742e-10
6.52893e-10
0.00160277
3.56055e-10
0.00160277
1.0432e-10
0.00160277
2.22695e-10
0.00160277
3.61525e-10
0.00160277
3.74254e-10
0.00160277
3.2379e-10
0.00160277
2.49195e-10
0.00160277
1.66707e-10
0.00160277
9.15347e-11
0.00160277
4.72823e-11
0.00160277
4.83226e-11
0.00160277
7.22329e-11
0.00160277
8.27041e-11
0.00160277
6.30477e-11
0.00160277
1.83059e-11
0.00160277
-3.37167e-11
0.00160277
-7.91179e-11
0.00160277
-1.1332e-10
0.00160277
-1.40742e-10
0.00160277
-1.64896e-10
0.00160277
-1.81618e-10
0.00160277
-1.88221e-10
0.00160277
-1.93368e-10
0.00160277
-2.12525e-10
0.00160277
-2.522e-10
0.00160277
-3.01886e-10
0.00160277
-3.25998e-10
0.00160277
-2.99785e-10
0.00160277
-2.37019e-10
0.00160277
-1.76447e-10
0.00160277
-1.29181e-10
0.00160277
-1.01995e-10
0.00160277
-7.50471e-11
0.00160277
-7.20213e-11
0.00160277
-3.82418e-11
0.00160277
-4.97786e-11
0.00160277
3.47104e-11
0.00160277
3.55482e-11
0.00160277
1.74783e-10
5.40119e-10
0.00166632
2.37765e-10
0.00166632
3.77163e-11
0.00166632
1.60657e-10
0.00166632
2.96522e-10
0.00166632
3.15475e-10
0.00166632
2.76453e-10
0.00166632
2.17404e-10
0.00166632
1.56248e-10
0.00166632
1.06658e-10
0.00166632
8.37323e-11
0.00166632
9.17687e-11
0.00166632
1.09378e-10
0.00166632
1.08913e-10
0.00166632
7.94757e-11
0.00166632
2.77464e-11
0.00166632
-2.99396e-11
0.00166632
-7.96988e-11
0.00166632
-1.14982e-10
0.00166632
-1.38301e-10
0.00166632
-1.54455e-10
0.00166632
-1.63162e-10
0.00166632
-1.63608e-10
0.00166632
-1.63729e-10
0.00166632
-1.75226e-10
0.00166632
-2.02475e-10
0.00166632
-2.38132e-10
0.00166632
-2.57943e-10
0.00166632
-2.43186e-10
0.00166632
-1.99901e-10
0.00166632
-1.5472e-10
0.00166632
-1.177e-10
0.00166632
-9.39947e-11
0.00166632
-7.15766e-11
0.00166632
-6.52663e-11
0.00166632
-3.75108e-11
0.00166632
-4.09228e-11
0.00166632
2.59375e-11
0.00166632
2.65626e-11
0.00166632
1.39686e-10
4.08341e-10
0.0017311
1.38099e-10
0.0017311
2.76341e-11
0.0017311
1.25762e-10
0.0017311
2.24826e-10
0.0017311
2.38752e-10
0.0017311
2.1072e-10
0.0017311
1.69711e-10
0.0017311
1.32656e-10
0.0017311
1.10047e-10
0.0017311
1.08766e-10
0.0017311
1.24447e-10
0.0017311
1.3659e-10
0.0017311
1.25576e-10
0.0017311
8.70183e-11
0.0017311
2.9042e-11
0.0017311
-3.34549e-11
0.0017311
-8.62091e-11
0.0017311
-1.20672e-10
0.0017311
-1.37113e-10
0.0017311
-1.41298e-10
0.0017311
-1.37298e-10
0.0017311
-1.28693e-10
0.0017311
-1.22159e-10
0.0017311
-1.24972e-10
0.0017311
-1.40255e-10
0.0017311
-1.63138e-10
0.0017311
-1.78968e-10
0.0017311
-1.74782e-10
0.0017311
-1.51056e-10
0.0017311
-1.23065e-10
0.0017311
-9.88688e-11
0.0017311
-8.16294e-11
0.0017311
-6.56474e-11
0.0017311
-5.75966e-11
0.0017311
-3.79177e-11
0.0017311
-3.47275e-11
0.0017311
8.79613e-12
0.0017311
1.23704e-11
0.0017311
8.52361e-11
2.43481e-10
0.00179697
4.50969e-11
0.00179697
7.63311e-11
0.00179697
1.23834e-10
0.00179697
1.5074e-10
0.00179697
1.50432e-10
0.00179697
1.32241e-10
0.00179697
1.08901e-10
0.00179697
9.6049e-11
0.00179697
1.00335e-10
0.00179697
1.20476e-10
0.00179697
1.44524e-10
0.00179697
1.5165e-10
0.00179697
1.29858e-10
0.00179697
8.25724e-11
0.00179697
1.95688e-11
0.00179697
-4.52119e-11
0.00179697
-9.73726e-11
0.00179697
-1.27483e-10
0.00179697
-1.34121e-10
0.00179697
-1.23507e-10
0.00179697
-1.04192e-10
0.00179697
-8.37486e-11
0.00179697
-6.89973e-11
0.00179697
-6.34974e-11
0.00179697
-6.77176e-11
0.00179697
-7.96076e-11
0.00179697
-9.20726e-11
0.00179697
-9.70279e-11
0.00179697
-9.23376e-11
0.00179697
-8.33377e-11
0.00179697
-7.43783e-11
0.00179697
-6.54153e-11
0.00179697
-5.71289e-11
0.00179697
-4.87107e-11
0.00179697
-3.94506e-11
0.00179697
-2.98232e-11
0.00179697
-1.55458e-11
0.00179697
-1.83114e-12
0.00179697
2.13099e-11
3.86044e-11
0.00179697
-3.86351e-11
0.00179697
1.36594e-10
0.00179697
1.26947e-10
0.00179697
7.45603e-11
0.00179697
5.86712e-11
0.00179697
4.85457e-11
0.00179697
4.0905e-11
0.00179697
5.05274e-11
0.00179697
7.98811e-11
0.00179697
1.20668e-10
0.00179697
1.53449e-10
0.00179697
1.55712e-10
0.00179697
1.23683e-10
0.00179697
6.90562e-11
0.00179697
4.01241e-12
0.00179697
-5.81535e-11
0.00179697
-1.04963e-10
0.00179697
-1.27922e-10
0.00179697
-1.23994e-10
0.00179697
-9.85441e-11
0.00179697
-6.35e-11
0.00179697
-3.13179e-11
0.00179697
-9.05169e-12
0.00179697
3.91448e-12
0.00179697
9.14322e-12
0.00179697
6.51385e-12
0.00179697
-3.14916e-12
0.00179697
-1.6097e-11
0.00179697
-2.98572e-11
0.00179697
-4.03563e-11
0.00179697
-4.6827e-11
0.00179697
-4.66674e-11
0.00179697
-4.68543e-11
0.00179697
-3.88374e-11
0.00179697
-4.12635e-11
0.00179697
-2.60836e-11
0.00179697
-4.21611e-11
0.00179697
-1.83623e-11
0.00179697
-4.51018e-11
-1.65075e-10
0.0017311
-1.19851e-10
0.0017311
1.60426e-10
0.0017311
1.08409e-10
0.0017311
9.74503e-13
0.0017311
-2.71513e-11
0.0017311
-3.21847e-11
0.0017311
-2.7118e-11
0.0017311
1.89414e-12
0.0017311
5.335e-11
0.0017311
1.13281e-10
0.0017311
1.54537e-10
0.0017311
1.5268e-10
0.0017311
1.12444e-10
0.0017311
5.3875e-11
0.0017311
-7.63235e-12
0.0017311
-6.11505e-11
0.0017311
-9.98313e-11
0.0017311
-1.15966e-10
0.0017311
-1.02971e-10
0.0017311
-6.42444e-11
0.0017311
-1.62348e-11
0.0017311
2.46578e-11
0.0017311
5.26172e-11
0.0017311
7.12106e-11
0.0017311
8.40594e-11
0.0017311
8.91255e-11
0.0017311
8.16909e-11
0.0017311
6.15165e-11
0.0017311
2.9983e-11
0.0017311
1.41199e-12
0.0017311
-1.92604e-11
0.0017311
-2.73458e-11
0.0017311
-3.56398e-11
0.0017311
-2.83606e-11
0.0017311
-4.23632e-11
0.0017311
-2.27272e-11
0.0017311
-6.55035e-11
0.0017311
-3.92922e-11
0.0017311
-1.10865e-10
-3.4244e-10
0.00166632
-2.08729e-10
0.00166632
1.31289e-10
0.00166632
5.47122e-11
0.00166632
-7.82715e-11
0.00166632
-1.10022e-10
0.00166632
-1.09316e-10
0.00166632
-9.29283e-11
0.00166632
-4.6969e-11
0.00166632
2.41268e-11
0.00166632
1.01711e-10
0.00166632
1.50769e-10
0.00166632
1.45877e-10
0.00166632
1.0031e-10
0.00166632
4.33101e-11
0.00166632
-7.65406e-12
0.00166632
-4.90765e-11
0.00166632
-7.93737e-11
0.00166632
-8.99006e-11
0.00166632
-6.95518e-11
0.00166632
-2.0403e-11
0.00166632
3.66879e-11
0.00166632
8.27148e-11
0.00166632
1.12895e-10
0.00166632
1.3515e-10
0.00166632
1.54635e-10
0.00166632
1.66259e-10
0.00166632
1.61017e-10
0.00166632
1.32866e-10
0.00166632
8.3362e-11
0.00166632
3.89254e-11
0.00166632
6.09893e-12
0.00166632
-8.50267e-12
0.00166632
-2.41799e-11
0.00166632
-1.71751e-11
0.00166632
-4.17384e-11
0.00166632
-1.6975e-11
0.00166632
-8.34071e-11
0.00166632
-5.86842e-11
0.00166632
-1.62933e-10
-4.86916e-10
0.00160277
-3.13976e-10
0.00160277
6.01468e-11
0.00160277
-2.99274e-11
0.00160277
-1.65952e-10
0.00160277
-1.91054e-10
0.00160277
-1.81139e-10
0.00160277
-1.53671e-10
0.00160277
-9.28782e-11
0.00160277
-4.62309e-12
0.00160277
8.89538e-11
0.00160277
1.44669e-10
0.00160277
1.37321e-10
0.00160277
9.03442e-11
0.00160277
4.06875e-11
0.00160277
4.0227e-12
0.00160277
-2.40046e-11
0.00160277
-4.54608e-11
0.00160277
-5.1489e-11
0.00160277
-2.59622e-11
0.00160277
3.09653e-11
0.00160277
9.32097e-11
0.00160277
1.40257e-10
0.00160277
1.70202e-10
0.00160277
1.95048e-10
0.00160277
2.19484e-10
0.00160277
2.36725e-10
0.00160277
2.33104e-10
0.00160277
1.94407e-10
0.00160277
1.26927e-10
0.00160277
6.96893e-11
0.00160277
2.66987e-11
0.00160277
7.93159e-12
0.00160277
-1.33157e-11
0.00160277
-4.05137e-12
0.00160277
-3.79691e-11
0.00160277
-7.69662e-12
0.00160277
-9.44581e-11
0.00160277
-7.13555e-11
0.00160277
-1.96297e-10
-6.05505e-10
0.00154054
-4.39117e-10
0.00154054
-4.90287e-11
0.00154054
-1.33947e-10
0.00154054
-2.58021e-10
0.00154054
-2.65148e-10
0.00154054
-2.42866e-10
0.00154054
-2.05477e-10
0.00154054
-1.32294e-10
0.00154054
-2.87838e-11
0.00154054
7.87382e-11
0.00154054
1.39079e-10
0.00154054
1.29113e-10
0.00154054
8.33061e-11
0.00154054
4.43556e-11
0.00154054
2.38114e-11
0.00154054
9.98243e-12
0.00154054
-2.88349e-12
0.00154054
-5.80705e-12
0.00154054
2.3761e-11
0.00154054
8.65096e-11
0.00154054
1.50526e-10
0.00154054
1.96063e-10
0.00154054
2.24284e-10
0.00154054
2.49514e-10
0.00154054
2.76377e-10
0.00154054
2.98171e-10
0.00154054
2.94e-10
0.00154054
2.4247e-10
0.00154054
1.59081e-10
0.00154054
9.25604e-11
0.00154054
4.16314e-11
0.00154054
2.15355e-11
0.00154054
-3.19678e-12
0.00154054
1.09398e-11
0.00154054
-3.17933e-11
0.00154054
5.8333e-12
0.00154054
-9.68509e-11
0.00154054
-7.47675e-11
0.00154054
-2.0934e-10
-7.02313e-10
0.00147968
-5.78487e-10
0.00147968
-1.85797e-10
0.00147968
-2.5191e-10
0.00147968
-3.50019e-10
0.00147969
-3.26338e-10
0.00147969
-2.90675e-10
0.00147969
-2.4472e-10
0.00147969
-1.61206e-10
0.00147969
-4.4601e-11
0.00147969
7.41605e-11
0.00147969
1.36486e-10
0.00147969
1.2337e-10
0.00147969
8.00166e-11
0.00147969
5.3292e-11
0.00147969
4.78942e-11
0.00147969
4.62086e-11
0.00147969
4.08039e-11
0.00147969
4.08615e-11
0.00147968
7.44722e-11
0.00147968
1.41342e-10
0.00147968
2.05341e-10
0.00147968
2.47991e-10
0.00147968
2.71963e-10
0.00147968
2.95381e-10
0.00147968
3.22522e-10
0.00147968
3.47391e-10
0.00147968
3.40903e-10
0.00147968
2.76427e-10
0.00147968
1.7969e-10
0.00147968
1.07174e-10
0.00147968
5.13333e-11
0.00147968
3.31417e-11
0.00147968
6.52319e-12
0.00147968
2.66457e-11
0.00147968
-2.41157e-11
0.00147968
2.39698e-11
0.00147968
-8.91225e-11
0.00147968
-6.72562e-11
0.00147968
-2.00152e-10
-7.80899e-10
0.00142022
-7.32153e-10
0.00142022
-3.51789e-10
0.00142022
-3.75388e-10
0.00142022
-4.24687e-10
0.00142022
-3.70586e-10
0.00142022
-3.20962e-10
0.00142022
-2.67259e-10
0.00142022
-1.76517e-10
0.00142022
-5.01974e-11
0.00142022
7.67043e-11
0.00142022
1.38693e-10
0.00142022
1.22863e-10
0.00142022
8.21242e-11
0.00142022
6.3366e-11
0.00142022
6.7764e-11
0.00142022
7.57978e-11
0.00142022
7.78173e-11
0.00142022
8.15716e-11
0.00142022
1.18828e-10
0.00142022
1.88866e-10
0.00142022
2.52305e-10
0.00142022
2.9129e-10
0.00142022
3.10062e-10
0.00142022
3.29667e-10
0.00142022
3.55135e-10
0.00142022
3.83557e-10
0.00142022
3.73892e-10
0.00142022
2.97007e-10
0.00142022
1.89498e-10
0.00142022
1.13984e-10
0.00142022
5.56682e-11
0.00142022
4.2731e-11
0.00142022
1.6673e-11
0.00142022
4.26618e-11
0.00142022
-1.40573e-11
0.00142022
4.70485e-11
0.00142022
-7.06623e-11
0.00142022
-4.82914e-11
0.00142022
-1.62477e-10
-8.30541e-10
0.00136214
-8.88265e-10
0.00136214
-5.34947e-10
0.00136214
-4.92096e-10
0.00136214
-4.73838e-10
0.00136214
-3.88546e-10
0.00136214
-3.26756e-10
0.00136214
-2.69623e-10
0.00136214
-1.77462e-10
0.00136214
-4.59169e-11
0.00136214
8.51394e-11
0.00136214
1.46185e-10
0.00136214
1.26537e-10
0.00136214
8.21476e-11
0.00136214
6.36166e-11
0.00136214
7.31489e-11
0.00136214
8.99901e-11
0.00136214
1.00856e-10
0.00136214
1.098e-10
0.00136214
1.51017e-10
0.00136214
2.24949e-10
0.00136214
2.87129e-10
0.00136214
3.22167e-10
0.00136214
3.35887e-10
0.00136214
3.50576e-10
0.00136214
3.74383e-10
0.00136214
4.07089e-10
0.00136214
3.92538e-10
0.00136214
3.04633e-10
0.00136214
1.90493e-10
0.00136214
1.13971e-10
0.00136214
5.53526e-11
0.00136214
5.04798e-11
0.00136214
2.54663e-11
0.00136214
5.92536e-11
0.00136214
7.50385e-13
0.00136214
7.28649e-11
0.00136214
-4.21548e-11
0.00136214
-2.06281e-11
0.00136214
-9.45596e-11
-8.41623e-10
0.00130541
-1.0355e-09
0.00130541
-7.19116e-10
0.00130541
-5.82139e-10
0.00130541
-4.88065e-10
0.00130541
-3.73988e-10
0.00130541
-3.05852e-10
0.00130541
-2.53396e-10
0.00130541
-1.67068e-10
0.00130541
-3.60854e-11
0.00130541
9.57717e-11
0.00130541
1.53067e-10
0.00130541
1.22338e-10
0.00130541
6.74318e-11
0.00130541
4.56149e-11
0.00130541
5.8265e-11
0.00130541
8.44386e-11
0.00130541
1.05705e-10
0.00130541
1.22419e-10
0.00130541
1.69905e-10
0.00130541
2.47156e-10
0.00130541
3.07922e-10
0.00130541
3.39732e-10
0.00130541
3.48186e-10
0.00130541
3.58435e-10
0.00130541
3.81065e-10
0.00130541
4.16728e-10
0.00130541
3.96527e-10
0.00130541
3.00828e-10
0.00130541
1.82557e-10
0.00130541
1.07694e-10
0.00130541
5.21455e-11
0.00130541
5.66337e-11
0.00130541
3.34505e-11
0.00130541
7.68724e-11
0.00130541
1.97658e-11
0.00130541
9.89846e-11
0.00130541
-4.22134e-12
0.00130541
1.25182e-11
0.00130541
5.14989e-12
-8.01871e-10
0.00124997
-1.15146e-09
0.00124997
-8.81484e-10
0.00124997
-6.39764e-10
0.00124997
-4.69358e-10
0.00124997
-3.33038e-10
0.00124997
-2.67477e-10
0.00124997
-2.27256e-10
0.00124997
-1.51584e-10
0.00124997
-2.60906e-11
0.00124997
1.01292e-10
0.00124997
1.46905e-10
0.00124997
9.96955e-11
0.00124997
3.30945e-11
0.00124997
8.05324e-12
0.00124997
2.42617e-11
0.00124997
5.92092e-11
0.00124997
9.1545e-11
0.00124997
1.19257e-10
0.00124997
1.75073e-10
0.00124997
2.55691e-10
0.00124997
3.15378e-10
0.00124997
3.45515e-10
0.00124997
3.48686e-10
0.00124997
3.54608e-10
0.00124997
3.75592e-10
0.00124997
4.1208e-10
0.00124997
3.86252e-10
0.00124997
2.84931e-10
0.00124997
1.64723e-10
0.00124997
9.55976e-11
0.00124997
4.81117e-11
0.00124997
6.29943e-11
0.00124997
4.35388e-11
0.00124997
9.38671e-11
0.00124997
4.24699e-11
0.00124997
1.23933e-10
0.00124997
4.29743e-11
0.00124997
5.00951e-11
0.00124997
1.35857e-10
-6.93769e-10
0.00119571
-1.19411e-09
0.00119571
-1.02224e-09
0.00119571
-6.88231e-10
0.00119571
-4.39579e-10
0.00119571
-2.86406e-10
0.00119571
-2.2791e-10
0.00119571
-1.99686e-10
0.00119571
-1.35267e-10
0.00119571
-1.93209e-11
0.00119571
9.50366e-11
0.00119571
1.23606e-10
0.00119571
6.02014e-11
0.00119571
-1.64367e-11
0.00119571
-4.3646e-11
0.00119571
-2.49714e-11
0.00119571
1.69823e-11
0.00119571
6.1354e-11
0.00119571
1.01981e-10
0.00119571
1.67009e-10
0.00119571
2.52883e-10
0.00119571
3.13387e-10
0.00119571
3.42466e-10
0.00119571
3.39693e-10
0.00119571
3.41429e-10
0.00119571
3.59108e-10
0.00119571
3.93887e-10
0.00119571
3.60405e-10
0.00119571
2.55894e-10
0.00119571
1.38188e-10
0.00119571
8.05941e-11
0.00119571
4.58045e-11
0.00119571
6.80164e-11
0.00119571
5.65908e-11
0.00119571
1.09316e-10
0.00119571
7.01329e-11
0.00119571
1.43644e-10
0.00119571
9.76106e-11
0.00119571
8.85364e-11
0.00119571
2.93718e-10
-4.79668e-10
0.0011425
-1.13211e-09
0.0011425
-1.17878e-09
0.0011425
-7.68456e-10
0.0011425
-4.25762e-10
0.0011425
-2.49386e-10
0.0011425
-1.93253e-10
0.0011425
-1.70804e-10
0.0011425
-1.15055e-10
0.0011425
-1.2356e-11
0.0011425
8.34659e-11
0.0011425
9.21044e-11
0.0011425
1.21916e-11
0.0011425
-7.19188e-11
0.0011425
-1.01505e-10
0.0011425
-8.27523e-11
0.0011425
-3.43318e-11
0.0011425