/*--------------------------------*- C++ -*----------------------------------*\
  =========                 |
  \\      /  F ield         | OpenFOAM: The Open Source CFD Toolbox
   \\    /   O peration     | Website:  https://openfoam.org
    \\  /    A nd           | Version:  dev
     \\/     M anipulation  |

   OpenFOAM for Windows 20.09 (v1)
   Built by CFD Support, www.cfdsupport.com (based on Symscape).
\*---------------------------------------------------------------------------*/
FoamFile
{
    version     2.0;
    format      ascii;
    class       volVectorField;
    location    "70";
    object      U;
}
// * * * * * * * * * * * * * * * * * * * * * * * * * * * * * * * * * * * * * //

dimensions      [0 1 -1 0 0 0 0];

internalField   nonuniform List<vector> 
1600
(
(0.0933214 -6.25914e-08 0)
(0.0933213 -1.03494e-09 0)
(0.0933212 4.02239e-08 0)
(0.0933212 1.77733e-08 0)
(0.0933211 2.33982e-09 0)
(0.0933211 5.83933e-09 0)
(0.0933211 8.9398e-09 0)
(0.0933211 6.84851e-09 0)
(0.0933211 2.82567e-09 0)
(0.0933211 -6.87753e-10 0)
(0.0933211 -3.387e-09 0)
(0.0933211 -2.08646e-09 0)
(0.0933211 1.11476e-09 0)
(0.093321 2.05054e-09 0)
(0.093321 3.47518e-09 0)
(0.0933211 3.79115e-09 0)
(0.0933211 2.47624e-09 0)
(0.0933211 1.10013e-09 0)
(0.0933212 -2.25369e-10 0)
(0.0933212 -1.69952e-09 0)
(0.0933212 -2.11152e-09 0)
(0.0933212 -1.28672e-09 0)
(0.0933213 -1.54824e-09 0)
(0.0933212 -4.39231e-09 0)
(0.0933212 -7.65605e-09 0)
(0.0933212 -7.52638e-09 0)
(0.0933212 -6.94659e-09 0)
(0.0933211 -1.07237e-09 0)
(0.0933212 -1.88327e-09 0)
(0.0933211 3.66138e-09 0)
(0.0933212 -2.98213e-09 0)
(0.0933211 3.56965e-09 0)
(0.0933212 -5.47253e-09 0)
(0.0933211 3.34475e-09 0)
(0.0933212 -4.52556e-09 0)
(0.0933211 -1.49056e-09 0)
(0.0933212 7.70085e-09 0)
(0.0933212 -1.94527e-08 0)
(0.093321 3.48855e-08 0)
(0.0933211 -1.36509e-09 0)
(0.104665 -8.64767e-08 0)
(0.104665 4.78069e-08 0)
(0.104665 7.10637e-08 0)
(0.104665 1.85509e-08 0)
(0.104665 -1.86519e-10 0)
(0.104665 3.41711e-09 0)
(0.104665 5.06844e-09 0)
(0.104665 3.13489e-09 0)
(0.104665 9.00552e-10 0)
(0.104665 1.07605e-09 0)
(0.104665 5.99089e-09 0)
(0.104665 1.06502e-08 0)
(0.104665 9.4447e-09 0)
(0.104665 2.64828e-09 0)
(0.104665 -6.12901e-09 0)
(0.104665 -1.41877e-08 0)
(0.104665 -1.9475e-08 0)
(0.104665 -2.1629e-08 0)
(0.104665 -2.03913e-08 0)
(0.104665 -1.70067e-08 0)
(0.104665 -1.10457e-08 0)
(0.104665 -4.60354e-09 0)
(0.104665 2.76195e-09 0)
(0.104665 9.40612e-09 0)
(0.104665 1.35255e-08 0)
(0.104665 1.34954e-08 0)
(0.104665 1.11891e-08 0)
(0.104665 1.00492e-08 0)
(0.104665 4.90847e-09 0)
(0.104665 4.99401e-09 0)
(0.104665 -2.25845e-09 0)
(0.104665 2.55472e-09 0)
(0.104665 -7.83496e-09 0)
(0.104665 3.83262e-09 0)
(0.104665 -1.1777e-08 0)
(0.104665 4.38725e-09 0)
(0.104665 -5.80778e-09 0)
(0.104665 -1.16227e-08 0)
(0.104665 4.57682e-08 0)
(0.104665 -6.74828e-08 0)
(0.11028 -4.87395e-08 0)
(0.11028 8.85412e-08 0)
(0.11028 8.08147e-08 0)
(0.11028 2.21044e-08 0)
(0.11028 4.17729e-09 0)
(0.11028 5.76073e-09 0)
(0.11028 6.36734e-09 0)
(0.11028 4.02367e-09 0)
(0.11028 5.06205e-10 0)
(0.11028 -1.02235e-09 0)
(0.11028 2.50108e-09 0)
(0.11028 7.92209e-09 0)
(0.11028 8.54613e-09 0)
(0.11028 3.47062e-09 0)
(0.11028 -4.51722e-09 0)
(0.11028 -1.29323e-08 0)
(0.11028 -1.91054e-08 0)
(0.11028 -2.21503e-08 0)
(0.11028 -2.16607e-08 0)
(0.11028 -1.90748e-08 0)
(0.11028 -1.34925e-08 0)
(0.11028 -7.26225e-09 0)
(0.11028 -3.52687e-10 0)
(0.11028 3.99453e-09 0)
(0.11028 5.71878e-09 0)
(0.11028 4.86942e-09 0)
(0.11028 4.54259e-09 0)
(0.11028 6.64146e-09 0)
(0.11028 4.3592e-09 0)
(0.11028 4.70682e-09 0)
(0.11028 -1.41596e-09 0)
(0.11028 1.69806e-09 0)
(0.11028 -7.77421e-09 0)
(0.11028 2.1374e-09 0)
(0.11028 -1.31042e-08 0)
(0.11028 3.16031e-09 0)
(0.11028 -1.20288e-08 0)
(0.11028 -6.16881e-09 0)
(0.11028 2.28082e-08 0)
(0.11028 -9.21871e-08 0)
(0.113974 -4.50997e-09 0)
(0.113974 1.08667e-07 0)
(0.113974 7.91887e-08 0)
(0.113974 2.40355e-08 0)
(0.113974 6.95155e-09 0)
(0.113974 6.13335e-09 0)
(0.113974 5.55156e-09 0)
(0.113974 2.97689e-09 0)
(0.113974 -8.98539e-10 0)
(0.113974 -2.73954e-09 0)
(0.113974 1.07663e-10 0)
(0.113974 5.69481e-09 0)
(0.113974 7.36778e-09 0)
(0.113974 2.98561e-09 0)
(0.113974 -4.62255e-09 0)
(0.113974 -1.31041e-08 0)
(0.113974 -1.94896e-08 0)
(0.113974 -2.27724e-08 0)
(0.113974 -2.27443e-08 0)
(0.113974 -2.0639e-08 0)
(0.113974 -1.54141e-08 0)
(0.113974 -9.17335e-09 0)
(0.113974 -2.16991e-09 0)
(0.113974 1.74456e-09 0)
(0.113974 2.97774e-09 0)
(0.113974 1.34115e-09 0)
(0.113974 1.66397e-09 0)
(0.113974 4.57532e-09 0)
(0.113974 4.14138e-09 0)
(0.113974 4.35016e-09 0)
(0.113974 -4.55e-10 0)
(0.113974 5.54656e-10 0)
(0.113974 -7.01151e-09 0)
(0.113974 -2.7013e-10 0)
(0.113974 -1.2953e-08 0)
(0.113974 5.91773e-10 0)
(0.113974 -1.60401e-08 0)
(0.113974 -3.31569e-09 0)
(0.113974 -1.55946e-09 0)
(0.113974 -9.14672e-08 0)
(0.116695 3.13872e-08 0)
(0.116695 1.13372e-07 0)
(0.116695 7.43992e-08 0)
(0.116695 2.57273e-08 0)
(0.116695 8.92577e-09 0)
(0.116695 5.78852e-09 0)
(0.116695 4.10517e-09 0)
(0.116695 1.40343e-09 0)
(0.116695 -2.39636e-09 0)
(0.116695 -4.58934e-09 0)
(0.116695 -2.27325e-09 0)
(0.116695 3.2122e-09 0)
(0.116695 5.67939e-09 0)
(0.116695 2.32294e-09 0)
(0.116695 -4.69862e-09 0)
(0.116695 -1.25871e-08 0)
(0.116695 -1.86462e-08 0)
(0.116695 -2.19601e-08 0)
(0.116695 -2.22211e-08 0)
(0.116695 -2.06445e-08 0)
(0.116695 -1.6068e-08 0)
(0.116695 -1.02652e-08 0)
(0.116695 -3.72794e-09 0)
(0.116695 -2.83141e-10 0)
(0.116695 2.8382e-10 0)
(0.116695 -2.2034e-09 0)
(0.116695 -1.75694e-09 0)
(0.116695 1.94738e-09 0)
(0.116695 3.33525e-09 0)
(0.116695 3.62919e-09 0)
(0.116695 2.78233e-10 0)
(0.116695 -3.58864e-10 0)
(0.116695 -6.03692e-09 0)
(0.116695 -2.62244e-09 0)
(0.116695 -1.20488e-08 0)
(0.116695 -2.67882e-09 0)
(0.116695 -1.74495e-08 0)
(0.116695 -3.73095e-09 0)
(0.116695 -2.08797e-08 0)
(0.116695 -7.52664e-08 0)
(0.118835 5.53032e-08 0)
(0.118835 1.08221e-07 0)
(0.118835 6.7618e-08 0)
(0.118835 2.61457e-08 0)
(0.118835 9.94324e-09 0)
(0.118835 5.11223e-09 0)
(0.118835 2.68132e-09 0)
(0.118835 9.95828e-11 0)
(0.118835 -3.43516e-09 0)
(0.118835 -5.8797e-09 0)
(0.118835 -4.29665e-09 0)
(0.118835 1.08679e-09 0)
(0.118835 4.21881e-09 0)
(0.118835 1.92457e-09 0)
(0.118835 -3.9208e-09 0)
(0.118835 -1.10205e-08 0)
(0.118835 -1.65833e-08 0)
(0.118835 -1.96884e-08 0)
(0.118835 -2.0332e-08 0)
(0.118835 -1.93837e-08 0)
(0.118835 -1.57688e-08 0)
(0.118835 -1.0706e-08 0)
(0.118835 -4.96987e-09 0)
(0.118835 -2.03943e-09 0)
(0.118835 -2.29519e-09 0)
(0.118835 -5.89802e-09 0)
(0.118835 -5.44366e-09 0)
(0.118835 -9.89712e-10 0)
(0.118835 1.93139e-09 0)
(0.118835 2.77583e-09 0)
(0.118835 7.05458e-10 0)
(0.118835 -1.15592e-09 0)
(0.118835 -5.11782e-09 0)
(0.118835 -4.60533e-09 0)
(0.118835 -1.07608e-08 0)
(0.118835 -5.80412e-09 0)
(0.118835 -1.7323e-08 0)
(0.118835 -6.01544e-09 0)
(0.118835 -3.21763e-08 0)
(0.118835 -5.21938e-08 0)
(0.120593 6.81708e-08 0)
(0.120594 9.78991e-08 0)
(0.120594 5.97263e-08 0)
(0.120594 2.50435e-08 0)
(0.120594 9.88931e-09 0)
(0.120594 4.43899e-09 0)
(0.120594 1.87766e-09 0)
(0.120594 -3.56856e-10 0)
(0.120594 -3.56721e-09 0)
(0.120594 -6.44771e-09 0)
(0.120594 -5.40577e-09 0)
(0.120594 -1.12344e-10 0)
(0.120594 3.66597e-09 0)
(0.120594 2.37751e-09 0)
(0.120594 -2.58096e-09 0)
(0.120594 -8.56987e-09 0)
(0.120594 -1.34307e-08 0)
(0.120594 -1.65724e-08 0)
(0.120594 -1.76858e-08 0)
(0.120594 -1.74568e-08 0)
(0.120594 -1.48681e-08 0)
(0.120594 -1.07053e-08 0)
(0.120594 -5.77765e-09 0)
(0.120594 -3.58191e-09 0)
(0.120594 -4.83002e-09 0)
(0.120594 -9.27637e-09 0)
(0.120594 -9.15306e-09 0)
(0.120594 -4.12125e-09 0)
(0.120594 2.15231e-10 0)
(0.120594 1.75363e-09 0)
(0.120594 7.04864e-10 0)
(0.120594 -1.85587e-09 0)
(0.120594 -4.45315e-09 0)
(0.120594 -6.05069e-09 0)
(0.120594 -9.53881e-09 0)
(0.120594 -8.33743e-09 0)
(0.120594 -1.61326e-08 0)
(0.120593 -8.60903e-09 0)
(0.120594 -3.68595e-08 0)
(0.120594 -2.95189e-08 0)
(0.122081 7.27324e-08 0)
(0.122081 8.39536e-08 0)
(0.122081 5.02046e-08 0)
(0.122081 2.22667e-08 0)
(0.122081 9.21167e-09 0)
(0.122081 4.14373e-09 0)
(0.122081 2.13328e-09 0)
(0.122081 4.5181e-10 0)
(0.122081 -2.85951e-09 0)
(0.122081 -6.1819e-09 0)
(0.122081 -5.50919e-09 0)
(0.122081 -2.18079e-10 0)
(0.122081 3.8146e-09 0)
(0.122081 3.35165e-09 0)
(0.122081 -4.36475e-10 0)
(0.122081 -5.64891e-09 0)
(0.122081 -1.02023e-08 0)
(0.122081 -1.31534e-08 0)
(0.122081 -1.46435e-08 0)
(0.122081 -1.52376e-08 0)
(0.122081 -1.36235e-08 0)
(0.122081 -1.03783e-08 0)
(0.122081 -6.55802e-09 0)
(0.122081 -5.08838e-09 0)
(0.122081 -7.08292e-09 0)
(0.122081 -1.23703e-08 0)
(0.122081 -1.26361e-08 0)
(0.122081 -7.27903e-09 0)
(0.122081 -1.81696e-09 0)
(0.122081 4.0666e-10 0)
(0.122081 1.54962e-10 0)
(0.122081 -2.50518e-09 0)
(0.122081 -4.06126e-09 0)
(0.122081 -6.84303e-09 0)
(0.122081 -8.33068e-09 0)
(0.122081 -1.00703e-08 0)
(0.122081 -1.43649e-08 0)
(0.122081 -1.0665e-08 0)
(0.122081 -3.61256e-08 0)
(0.122081 -8.94492e-09 0)
(0.123363 7.10708e-08 0)
(0.123363 6.86488e-08 0)
(0.123363 4.06335e-08 0)
(0.123363 1.93009e-08 0)
(0.123363 8.85488e-09 0)
(0.123363 5.00283e-09 0)
(0.123363 3.57804e-09 0)
(0.123363 1.95679e-09 0)
(0.123363 -1.56228e-09 0)
(0.123363 -5.39904e-09 0)
(0.123363 -4.96602e-09 0)
(0.123363 2.08411e-10 0)
(0.123363 4.4494e-09 0)
(0.123363 4.69472e-09 0)
(0.123363 1.73919e-09 0)
(0.123363 -2.81991e-09 0)
(0.123363 -6.95092e-09 0)
(0.123363 -9.97439e-09 0)
(0.123363 -1.19955e-08 0)
(0.123363 -1.31534e-08 0)
(0.123363 -1.23883e-08 0)
(0.123363 -1.00622e-08 0)
(0.123363 -7.16304e-09 0)
(0.123363 -6.54222e-09 0)
(0.123363 -9.37399e-09 0)
(0.123363 -1.518e-08 0)
(0.123363 -1.5806e-08 0)
(0.123363 -1.0258e-08 0)
(0.123363 -4.22332e-09 0)
(0.123363 -1.3187e-09 0)
(0.123363 -7.02628e-10 0)
(0.123363 -3.10767e-09 0)
(0.123363 -3.80866e-09 0)
(0.123363 -7.21732e-09 0)
(0.123363 -7.26385e-09 0)
(0.123363 -1.07304e-08 0)
(0.123363 -1.21807e-08 0)
(0.123363 -1.16039e-08 0)
(0.123363 -3.19159e-08 0)
(0.123363 7.59733e-09 0)
(0.124484 6.54866e-08 0)
(0.124484 5.43254e-08 0)
(0.124484 3.28664e-08 0)
(0.124484 1.76032e-08 0)
(0.124484 9.69615e-09 0)
(0.124484 6.78675e-09 0)
(0.124484 5.75572e-09 0)
(0.124484 3.93384e-09 0)
(0.124484 -3.09211e-10 0)
(0.124484 -4.56879e-09 0)
(0.124484 -4.2713e-09 0)
(0.124484 7.27505e-10 0)
(0.124484 5.08312e-09 0)
(0.124484 5.79873e-09 0)
(0.124484 3.34501e-09 0)
(0.124484 -8.67044e-10 0)
(0.124484 -4.73593e-09 0)
(0.124484 -7.70375e-09 0)
(0.124484 -9.82953e-09 0)
(0.124484 -1.13187e-08 0)
(0.124484 -1.13423e-08 0)
(0.124484 -9.72901e-09 0)
(0.124484 -7.84994e-09 0)
(0.124484 -8.06218e-09 0)
(0.124484 -1.145e-08 0)
(0.124484 -1.74486e-08 0)
(0.124484 -1.83973e-08 0)
(0.124484 -1.31243e-08 0)
(0.124484 -6.70481e-09 0)
(0.124484 -3.16792e-09 0)
(0.124484 -1.89046e-09 0)
(0.124484 -3.7156e-09 0)
(0.124484 -3.67398e-09 0)
(0.124484 -7.07944e-09 0)
(0.124484 -6.11129e-09 0)
(0.124484 -1.06288e-08 0)
(0.124484 -9.80965e-09 0)
(0.124484 -1.13588e-08 0)
(0.124484 -2.58177e-08 0)
(0.124484 1.96351e-08 0)
(0.125471 5.84372e-08 0)
(0.125471 4.2751e-08 0)
(0.125471 2.78059e-08 0)
(0.125471 1.77202e-08 0)
(0.125471 1.17686e-08 0)
(0.125471 9.40746e-09 0)
(0.125471 8.06556e-09 0)
(0.125471 5.39505e-09 0)
(0.125471 5.06555e-10 0)
(0.125471 -4.02431e-09 0)
(0.125471 -3.71609e-09 0)
(0.125471 1.00988e-09 0)
(0.125471 5.10148e-09 0)
(0.125471 5.91823e-09 0)
(0.125471 3.61888e-09 0)
(0.125471 -6.75005e-11 0)
(0.125471 -3.49338e-09 0)
(0.125471 -6.21243e-09 0)
(0.125471 -8.33413e-09 0)
(0.125471 -1.0139e-08 0)
(0.125471 -1.05507e-08 0)
(0.125471 -9.65122e-09 0)
(0.125471 -8.66332e-09 0)
(0.125471 -9.44222e-09 0)
(0.125471 -1.30873e-08 0)
(0.125471 -1.91282e-08 0)
(0.125471 -2.04472e-08 0)
(0.125471 -1.5525e-08 0)
(0.125471 -9.04822e-09 0)
(0.125471 -5.09851e-09 0)
(0.125471 -3.11386e-09 0)
(0.125471 -4.07619e-09 0)
(0.125471 -3.62666e-09 0)
(0.125471 -6.67736e-09 0)
(0.125471 -5.17127e-09 0)
(0.125471 -9.84139e-09 0)
(0.125471 -7.32577e-09 0)
(0.125471 -9.99847e-09 0)
(0.125471 -1.87124e-08 0)
(0.125471 2.76968e-08 0)
(0.126342 5.20501e-08 0)
(0.126342 3.42977e-08 0)
(0.126342 2.48918e-08 0)
(0.126342 1.89994e-08 0)
(0.126342 1.44252e-08 0)
(0.126342 1.19752e-08 0)
(0.126342 9.92908e-09 0)
(0.126342 6.34202e-09 0)
(0.126342 8.55172e-10 0)
(0.126342 -3.69334e-09 0)
(0.126342 -3.45115e-09 0)
(0.126342 6.99442e-10 0)
(0.126342 4.258e-09 0)
(0.126342 4.90665e-09 0)
(0.126342 2.94362e-09 0)
(0.126342 -2.68602e-10 0)
(0.126342 -3.27058e-09 0)
(0.126342 -5.61834e-09 0)
(0.126342 -7.55889e-09 0)
(0.126342 -9.33847e-09 0)
(0.126342 -1.01252e-08 0)
(0.126342 -9.81911e-09 0)
(0.126342 -9.38407e-09 0)
(0.126342 -1.05069e-08 0)
(0.126342 -1.43935e-08 0)
(0.126342 -2.02074e-08 0)
(0.126342 -2.18163e-08 0)
(0.126342 -1.74549e-08 0)
(0.126342 -1.10396e-08 0)
(0.126342 -6.76278e-09 0)
(0.126342 -4.24608e-09 0)
(0.126342 -4.5358e-09 0)
(0.126342 -3.64206e-09 0)
(0.126342 -6.16572e-09 0)
(0.126342 -4.35382e-09 0)
(0.126342 -8.63949e-09 0)
(0.126342 -4.7967e-09 0)
(0.126342 -7.62754e-09 0)
(0.126342 -1.12902e-08 0)
(0.126342 3.34221e-08 0)
(0.12711 4.68255e-08 0)
(0.12711 2.79061e-08 0)
(0.12711 2.28981e-08 0)
(0.12711 2.02724e-08 0)
(0.12711 1.68132e-08 0)
(0.12711 1.40998e-08 0)
(0.12711 1.11984e-08 0)
(0.12711 6.79313e-09 0)
(0.12711 1.01774e-09 0)
(0.12711 -3.45668e-09 0)
(0.12711 -3.47702e-09 0)
(0.12711 -4.47269e-11 0)
(0.12711 2.95762e-09 0)
(0.12711 3.38667e-09 0)
(0.12711 1.54377e-09 0)
(0.12711 -1.11114e-09 0)
(0.12711 -3.50932e-09 0)
(0.12711 -5.44821e-09 0)
(0.12711 -7.20292e-09 0)
(0.12711 -8.9444e-09 0)
(0.12711 -1.00265e-08 0)
(0.12711 -1.00899e-08 0)
(0.12711 -1.00375e-08 0)
(0.12711 -1.13897e-08 0)
(0.12711 -1.51622e-08 0)
(0.12711 -2.07278e-08 0)
(0.12711 -2.25896e-08 0)
(0.12711 -1.86901e-08 0)
(0.12711 -1.25935e-08 0)
(0.12711 -8.16296e-09 0)
(0.12711 -5.23688e-09 0)
(0.12711 -4.90912e-09 0)
(0.12711 -3.71616e-09 0)
(0.12711 -5.63448e-09 0)
(0.12711 -3.51315e-09 0)
(0.12711 -7.14126e-09 0)
(0.12711 -2.61549e-09 0)
(0.12711 -4.74215e-09 0)
(0.12711 -3.55695e-09 0)
(0.12711 3.80401e-08 0)
(0.127782 4.18014e-08 0)
(0.127782 2.42242e-08 0)
(0.127782 2.14242e-08 0)
(0.127782 2.12935e-08 0)
(0.127782 1.86938e-08 0)
(0.127782 1.56887e-08 0)
(0.127782 1.2078e-08 0)
(0.127782 7.14012e-09 0)
(0.127782 1.31514e-09 0)
(0.127782 -3.0374e-09 0)
(0.127782 -3.35477e-09 0)
(0.127782 -6.46954e-10 0)
(0.127782 1.63849e-09 0)
(0.127782 1.88784e-09 0)
(0.127782 4.80955e-10 0)
(0.127782 -1.77557e-09 0)
(0.127782 -3.8077e-09 0)
(0.127782 -5.5005e-09 0)
(0.127782 -7.14065e-09 0)
(0.127782 -8.8974e-09 0)
(0.127782 -1.00819e-08 0)
(0.127782 -1.03242e-08 0)
(0.127782 -1.05093e-08 0)
(0.127782 -1.19581e-08 0)
(0.127782 -1.56749e-08 0)
(0.127782 -2.07369e-08 0)
(0.127782 -2.25571e-08 0)
(0.127782 -1.92802e-08 0)
(0.127782 -1.35682e-08 0)
(0.127782 -9.10499e-09 0)
(0.127782 -6.02335e-09 0)
(0.127782 -5.18215e-09 0)
(0.127782 -3.78781e-09 0)
(0.127782 -5.03427e-09 0)
(0.127782 -2.93742e-09 0)
(0.127782 -5.71082e-09 0)
(0.127782 -5.50161e-10 0)
(0.127782 -1.87179e-09 0)
(0.127782 2.56722e-09 0)
(0.127782 3.87887e-08 0)
(0.128363 3.59824e-08 0)
(0.128363 1.86724e-08 0)
(0.128363 1.88895e-08 0)
(0.128363 2.14638e-08 0)
(0.128363 1.99482e-08 0)
(0.128363 1.68689e-08 0)
(0.128363 1.27899e-08 0)
(0.128363 7.62909e-09 0)
(0.128363 1.99839e-09 0)
(0.128363 -2.1406e-09 0)
(0.128363 -2.64662e-09 0)
(0.128363 -5.73525e-10 0)
(0.128363 1.24854e-09 0)
(0.128363 1.43322e-09 0)
(0.128363 -2.68664e-11 0)
(0.128363 -2.11452e-09 0)
(0.128363 -4.00647e-09 0)
(0.128363 -5.65304e-09 0)
(0.128363 -7.19506e-09 0)
(0.128363 -8.89957e-09 0)
(0.128363 -1.00557e-08 0)
(0.128363 -1.04623e-08 0)
(0.128363 -1.08363e-08 0)
(0.128363 -1.23129e-08 0)
(0.128363 -1.56074e-08 0)
(0.128363 -1.99912e-08 0)
(0.128363 -2.18351e-08 0)
(0.128363 -1.90731e-08 0)
(0.128363 -1.39094e-08 0)
(0.128363 -9.60074e-09 0)
(0.128363 -6.5268e-09 0)
(0.128363 -5.36723e-09 0)
(0.128363 -3.84592e-09 0)
(0.128363 -4.51212e-09 0)
(0.128363 -2.37383e-09 0)
(0.128363 -4.45385e-09 0)
(0.128363 7.67926e-10 0)
(0.128363 3.20778e-10 0)
(0.128363 7.18776e-09 0)
(0.128363 3.87062e-08 0)
(0.128854 2.86737e-08 0)
(0.128854 1.29103e-08 0)
(0.128854 1.59811e-08 0)
(0.128854 2.09654e-08 0)
(0.128854 2.05717e-08 0)
(0.128854 1.75007e-08 0)
(0.128854 1.32645e-08 0)
(0.128854 8.2076e-09 0)
(0.128854 2.97744e-09 0)
(0.128854 -6.04376e-10 0)
(0.128854 -1.02218e-09 0)
(0.128854 6.24965e-10 0)
(0.128854 1.96582e-09 0)
(0.128854 1.78712e-09 0)
(0.128854 1.32605e-10 0)
(0.128854 -2.07974e-09 0)
(0.128854 -4.0858e-09 0)
(0.128854 -5.67519e-09 0)
(0.128854 -7.19531e-09 0)
(0.128854 -8.75301e-09 0)
(0.128854 -9.88912e-09 0)
(0.128854 -1.03899e-08 0)
(0.128854 -1.07595e-08 0)
(0.128854 -1.20833e-08 0)
(0.128854 -1.4996e-08 0)
(0.128854 -1.86698e-08 0)
(0.128854 -2.02122e-08 0)
(0.128854 -1.8051e-08 0)
(0.128854 -1.36066e-08 0)
(0.128854 -9.67079e-09 0)
(0.128854 -6.75785e-09 0)
(0.128854 -5.36244e-09 0)
(0.128854 -3.83317e-09 0)
(0.128854 -4.11089e-09 0)
(0.128854 -2.0916e-09 0)
(0.128854 -3.42275e-09 0)
(0.128854 1.63038e-09 0)
(0.128854 1.53518e-09 0)
(0.128854 9.22395e-09 0)
(0.128854 3.53277e-08 0)
(0.129257 2.1135e-08 0)
(0.129257 7.25695e-09 0)
(0.129257 1.2649e-08 0)
(0.129257 1.93642e-08 0)
(0.129257 1.97561e-08 0)
(0.129257 1.70633e-08 0)
(0.129257 1.30734e-08 0)
(0.129257 8.49298e-09 0)
(0.129257 4.16673e-09 0)
(0.129257 1.4057e-09 0)
(0.129257 1.20742e-09 0)
(0.129257 2.5382e-09 0)
(0.129257 3.38352e-09 0)
(0.129257 2.68407e-09 0)
(0.129257 6.41886e-10 0)
(0.129257 -1.82119e-09 0)
(0.129257 -3.99063e-09 0)
(0.129257 -5.66243e-09 0)
(0.129257 -7.09591e-09 0)
(0.129257 -8.45793e-09 0)
(0.129257 -9.48146e-09 0)
(0.129257 -9.8551e-09 0)
(0.129257 -1.01697e-08 0)
(0.129257 -1.13505e-08 0)
(0.129257 -1.36185e-08 0)
(0.129257 -1.64782e-08 0)
(0.129257 -1.78333e-08 0)
(0.129257 -1.62474e-08 0)
(0.129257 -1.26425e-08 0)
(0.129257 -9.25831e-09 0)
(0.129257 -6.65112e-09 0)
(0.129257 -5.2349e-09 0)
(0.129257 -3.79514e-09 0)
(0.129257 -3.73993e-09 0)
(0.129257 -1.90857e-09 0)
(0.129257 -2.72649e-09 0)
(0.129257 1.83616e-09 0)
(0.129257 1.89972e-09 0)
(0.129257 9.34608e-09 0)
(0.129257 3.0136e-08 0)
(0.129568 1.46327e-08 0)
(0.129568 2.91798e-09 0)
(0.129568 9.17512e-09 0)
(0.129568 1.64584e-08 0)
(0.129568 1.75007e-08 0)
(0.129568 1.53088e-08 0)
(0.129568 1.19285e-08 0)
(0.129568 8.29068e-09 0)
(0.129568 5.1151e-09 0)
(0.129568 3.3892e-09 0)
(0.129568 3.57119e-09 0)
(0.129568 4.59551e-09 0)
(0.129568 4.84997e-09 0)
(0.129568 3.62708e-09 0)
(0.129568 1.22113e-09 0)
(0.129568 -1.53762e-09 0)
(0.129568 -3.92237e-09 0)
(0.129568 -5.67411e-09 0)
(0.129568 -6.95625e-09 0)
(0.129568 -8.00429e-09 0)
(0.129568 -8.65205e-09 0)
(0.129568 -8.87379e-09 0)
(0.129568 -9.08275e-09 0)
(0.129568 -9.83342e-09 0)
(0.129568 -1.15054e-08 0)
(0.129568 -1.36176e-08 0)
(0.129568 -1.46901e-08 0)
(0.129568 -1.36957e-08 0)
(0.129568 -1.10534e-08 0)
(0.129568 -8.37469e-09 0)
(0.129568 -6.23795e-09 0)
(0.129568 -4.94247e-09 0)
(0.129568 -3.70392e-09 0)
(0.129568 -3.42766e-09 0)
(0.129568 -1.86974e-09 0)
(0.129568 -2.2369e-09 0)
(0.129568 1.62149e-09 0)
(0.129568 1.64055e-09 0)
(0.129568 8.06838e-09 0)
(0.129568 2.39919e-08 0)
(0.129783 9.30538e-09 0)
(0.129783 1.00718e-09 0)
(0.129783 6.66575e-09 0)
(0.129783 1.29561e-08 0)
(0.129783 1.40308e-08 0)
(0.129783 1.2414e-08 0)
(0.129783 9.89445e-09 0)
(0.129783 7.4073e-09 0)
(0.129783 5.5834e-09 0)
(0.129783 4.96193e-09 0)
(0.129783 5.53003e-09 0)
(0.129783 6.25413e-09 0)
(0.129783 5.96607e-09 0)
(0.129783 4.2684e-09 0)
(0.129783 1.51772e-09 0)
(0.129783 -1.50373e-09 0)
(0.129783 -4.08704e-09 0)
(0.129783 -5.85522e-09 0)
(0.129783 -6.87279e-09 0)
(0.129783 -7.40113e-09 0)
(0.129783 -7.55102e-09 0)
(0.129783 -7.40749e-09 0)
(0.129783 -7.26987e-09 0)
(0.129783 -7.62267e-09 0)
(0.129783 -8.67093e-09 0)
(0.129783 -1.01045e-08 0)
(0.129783 -1.0996e-08 0)
(0.129783 -1.05356e-08 0)
(0.129783 -8.86382e-09 0)
(0.129783 -7.02991e-09 0)
(0.129783 -5.48885e-09 0)
(0.129783 -4.44634e-09 0)
(0.129783 -3.46762e-09 0)
(0.129783 -3.08293e-09 0)
(0.129783 -1.87218e-09 0)
(0.129783 -1.87081e-09 0)
(0.129783 9.23037e-10 0)
(0.129783 1.00891e-09 0)
(0.129783 5.73033e-09 0)
(0.129783 1.65608e-08 0)
(0.129895 4.6529e-09 0)
(0.129895 2.2239e-09 0)
(0.129895 5.88862e-09 0)
(0.129895 9.28654e-09 0)
(0.129895 9.78383e-09 0)
(0.129895 8.68516e-09 0)
(0.129895 7.08944e-09 0)
(0.129895 5.85347e-09 0)
(0.129895 5.4089e-09 0)
(0.129895 5.87767e-09 0)
(0.129895 6.85545e-09 0)
(0.129895 7.32326e-09 0)
(0.129895 6.49838e-09 0)
(0.129895 4.34382e-09 0)
(0.129895 1.30047e-09 0)
(0.129895 -1.90716e-09 0)
(0.129895 -4.55557e-09 0)
(0.129895 -6.20179e-09 0)
(0.129895 -6.81057e-09 0)
(0.129895 -6.67272e-09 0)
(0.129895 -6.11218e-09 0)
(0.129895 -5.3914e-09 0)
(0.129895 -4.86199e-09 0)
(0.129895 -4.799e-09 0)
(0.129895 -5.27357e-09 0)
(0.129895 -6.12732e-09 0)
(0.129895 -6.81786e-09 0)
(0.129895 -6.82969e-09 0)
(0.129895 -6.14142e-09 0)
(0.129895 -5.23215e-09 0)
(0.129895 -4.39194e-09 0)
(0.129895 -3.72062e-09 0)
(0.129895 -3.09581e-09 0)
(0.129895 -2.67265e-09 0)
(0.129895 -1.93815e-09 0)
(0.129895 -1.60743e-09 0)
(0.129895 -1.44429e-10 0)
(0.129895 2.76717e-10 0)
(0.129895 2.71657e-09 0)
(0.129895 7.29238e-09 0)
(0.129895 1.26134e-11 0)
(0.129895 5.51029e-09 0)
(0.129895 6.49189e-09 0)
(0.129895 5.7278e-09 0)
(0.129895 5.23082e-09 0)
(0.129895 4.52038e-09 0)
(0.129895 3.78527e-09 0)
(0.129895 3.73354e-09 0)
(0.129895 4.59827e-09 0)
(0.129895 6.13323e-09 0)
(0.129895 7.54946e-09 0)
(0.129895 7.78308e-09 0)
(0.129895 6.43086e-09 0)
(0.129895 3.85399e-09 0)
(0.129895 6.24027e-10 0)
(0.129895 -2.58544e-09 0)
(0.129895 -5.10518e-09 0)
(0.129895 -6.47401e-09 0)
(0.129895 -6.56604e-09 0)
(0.129895 -5.65368e-09 0)
(0.129895 -4.2868e-09 0)
(0.129895 -2.96814e-09 0)
(0.129895 -2.01493e-09 0)
(0.129895 -1.53657e-09 0)
(0.129895 -1.50066e-09 0)
(0.129895 -1.8458e-09 0)
(0.129895 -2.3835e-09 0)
(0.129895 -2.83429e-09 0)
(0.129895 -3.07992e-09 0)
(0.129895 -3.11725e-09 0)
(0.129895 -3.05254e-09 0)
(0.129895 -2.8264e-09 0)
(0.129895 -2.61395e-09 0)
(0.129895 -2.19987e-09 0)
(0.129895 -2.02365e-09 0)
(0.129895 -1.40005e-09 0)
(0.129895 -1.43222e-09 0)
(0.129895 -4.6034e-10 0)
(0.129895 -5.71556e-10 0)
(0.129895 -3.35573e-09 0)
(0.129783 -4.04616e-09 0)
(0.129783 7.87806e-09 0)
(0.129783 6.37834e-09 0)
(0.129783 2.03359e-09 0)
(0.129783 7.40422e-10 0)
(0.129783 3.45654e-10 0)
(0.129783 3.24783e-10 0)
(0.129783 1.32477e-09 0)
(0.129783 3.36945e-09 0)
(0.129783 5.90033e-09 0)
(0.129783 7.76114e-09 0)
(0.129783 7.79315e-09 0)
(0.129783 5.9562e-09 0)
(0.129783 3.08293e-09 0)
(0.129783 -9.65435e-11 0)
(0.129783 -3.05815e-09 0)
(0.129783 -5.26971e-09 0)
(0.129783 -6.2715e-09 0)
(0.129783 -5.82335e-09 0)
(0.129783 -4.21316e-09 0)
(0.129783 -2.11322e-09 0)
(0.129783 -2.26522e-10 0)
(0.129783 1.05199e-09 0)
(0.129783 1.84825e-09 0)
(0.129783 2.32402e-09 0)
(0.129783 2.40341e-09 0)
(0.129783 1.98887e-09 0)
(0.129783 1.15023e-09 0)
(0.129783 2.50555e-11 0)
(0.129783 -9.46779e-10 0)
(0.129783 -1.63761e-09 0)
(0.129783 -1.84362e-09 0)
(0.129783 -2.06183e-09 0)
(0.129783 -1.70373e-09 0)
(0.129783 -2.11565e-09 0)
(0.129783 -1.21154e-09 0)
(0.129783 -2.7087e-09 0)
(0.129783 -1.4379e-09 0)
(0.129783 -3.94692e-09 0)
(0.129783 -1.29244e-08 0)
(0.129568 -8.13418e-09 0)
(0.129568 7.84514e-09 0)
(0.129568 4.57169e-09 0)
(0.129568 -1.82313e-09 0)
(0.129568 -3.51304e-09 0)
(0.129568 -3.62194e-09 0)
(0.129568 -3.04623e-09 0)
(0.129568 -1.1472e-09 0)
(0.129568 1.92564e-09 0)
(0.129568 5.37732e-09 0)
(0.129568 7.67176e-09 0)
(0.129568 7.50686e-09 0)
(0.129568 5.35448e-09 0)
(0.129568 2.44894e-09 0)
(0.129568 -4.5312e-10 0)
(0.129568 -2.93456e-09 0)
(0.129568 -4.68441e-09 0)
(0.129568 -5.32588e-09 0)
(0.129568 -4.48177e-09 0)
(0.129568 -2.25896e-09 0)
(0.129568 4.16046e-10 0)
(0.129568 2.61895e-09 0)
(0.129568 4.10037e-09 0)
(0.129568 5.17503e-09 0)
(0.129568 6.00775e-09 0)
(0.129568 6.43159e-09 0)
(0.129568 6.13163e-09 0)
(0.129568 4.9065e-09 0)
(0.129568 2.90106e-09 0)
(0.129568 1.06603e-09 0)
(0.129568 -3.03835e-10 0)
(0.129568 -8.74164e-10 0)
(0.129568 -1.50336e-09 0)
(0.129568 -1.14873e-09 0)
(0.129568 -2.10092e-09 0)
(0.129568 -1.02557e-09 0)
(0.129568 -3.78723e-09 0)
(0.129568 -2.49387e-09 0)
(0.129568 -6.9667e-09 0)
(0.129568 -2.08959e-08 0)
(0.129257 -1.29672e-08 0)
(0.129257 4.72177e-09 0)
(0.129257 9.15877e-10 0)
(0.129257 -6.0246e-09 0)
(0.129257 -7.57131e-09 0)
(0.129257 -7.34759e-09 0)
(0.129257 -6.25171e-09 0)
(0.129257 -3.56985e-09 0)
(0.129257 4.31886e-10 0)
(0.129257 4.73184e-09 0)
(0.129257 7.38248e-09 0)
(0.129257 7.09196e-09 0)
(0.129257 4.80693e-09 0)
(0.129257 2.05485e-09 0)
(0.129257 -2.42077e-10 0)
(0.129257 -1.98572e-09 0)
(0.129257 -3.27397e-09 0)
(0.129257 -3.68907e-09 0)
(0.129257 -2.52889e-09 0)
(0.129257 1.33792e-10 0)
(0.129257 3.15611e-09 0)
(0.129257 5.5361e-09 0)
(0.129257 7.12345e-09 0)
(0.129257 8.30968e-09 0)
(0.129257 9.40227e-09 0)
(0.129257 1.01752e-08 0)
(0.129257 9.9153e-09 0)
(0.129257 8.26984e-09 0)
(0.129257 5.36986e-09 0)
(0.129257 2.79259e-09 0)
(0.129257 8.73401e-10 0)
(0.129257 -1.90276e-11 0)
(0.129257 -9.28865e-10 0)
(0.129257 -5.14141e-10 0)
(0.129257 -2.01924e-09 0)
(0.129257 -6.71498e-10 0)
(0.129257 -4.53537e-09 0)
(0.129257 -3.35039e-09 0)
(0.129257 -9.14725e-09 0)
(0.129257 -2.74375e-08 0)
(0.128855 -1.84522e-08 0)
(0.128855 7.82013e-10 0)
(0.128855 -4.36984e-09 0)
(0.128855 -1.06588e-08 0)
(0.128855 -1.1489e-08 0)
(0.128855 -1.07316e-08 0)
(0.128855 -9.12751e-09 0)
(0.128855 -5.75071e-09 0)
(0.128855 -9.29691e-10 0)
(0.128855 4.12672e-09 0)
(0.128855 7.05874e-09 0)
(0.128855 6.6575e-09 0)
(0.128855 4.29754e-09 0)
(0.128855 2.04505e-09 0)
(0.128855 6.15954e-10 0)
(0.128855 -4.47139e-10 0)
(0.128855 -1.31349e-09 0)
(0.128855 -1.5198e-09 0)
(0.128855 -1.32347e-10 0)
(0.128855 2.88856e-09 0)
(0.128855 6.07923e-09 0)
(0.128855 8.4491e-09 0)
(0.128855 9.91001e-09 0)
(0.128855 1.11756e-08 0)
(0.128855 1.25094e-08 0)
(0.128855 1.34509e-08 0)
(0.128855 1.3247e-08 0)
(0.128855 1.10555e-08 0)
(0.128855 7.29453e-09 0)
(0.128855 4.14397e-09 0)
(0.128855 1.77077e-09 0)
(0.128855 7.81553e-10 0)
(0.128855 -4.05226e-10 0)
(0.128855 1.36073e-10 0)
(0.128855 -1.79325e-09 0)
(0.128855 -1.24406e-10 0)
(0.128855 -4.90558e-09 0)
(0.128855 -3.77852e-09 0)
(0.128855 -1.03458e-08 0)
(0.128855 -3.29151e-08 0)
(0.128363 -2.52806e-08 0)
(0.128363 -5.47686e-09 0)
(0.128363 -9.41978e-09 0)
(0.128363 -1.52188e-08 0)
(0.128363 -1.49538e-08 0)
(0.128363 -1.35701e-08 0)
(0.128363 -1.14538e-08 0)
(0.128363 -7.49344e-09 0)
(0.128363 -1.96694e-09 0)
(0.128363 3.72549e-09 0)
(0.128363 6.82537e-09 0)
(0.128363 6.28715e-09 0)
(0.128363 4.08121e-09 0)
(0.128363 2.42445e-09 0)
(0.128363 1.77387e-09 0)
(0.128363 1.39532e-09 0)
(0.128363 9.48902e-10 0)
(0.128363 8.88756e-10 0)
(0.128363 2.46914e-09 0)
(0.128363 5.69163e-09 0)
(0.128363 8.94866e-09 0)
(0.128363 1.1178e-08 0)
(0.128363 1.24688e-08 0)
(0.128363 1.37106e-08 0)
(0.128363 1.50735e-08 0)
(0.128363 1.62332e-08 0)
(0.128363 1.59942e-08 0)
(0.128363 1.31693e-08 0)
(0.128363 8.59086e-09 0)
(0.128363 5.07352e-09 0)
(0.128363 2.41404e-09 0)
(0.128363 1.39498e-09 0)
(0.128363 1.0599e-10 0)
(0.128363 8.82759e-10 0)
(0.128363 -1.47194e-09 0)
(0.128363 6.79523e-10 0)
(0.128363 -4.78435e-09 0)
(0.128363 -3.66616e-09 0)
(0.128363 -1.046e-08 0)
(0.128363 -3.73187e-08 0)
(0.127782 -3.28324e-08 0)
(0.127782 -1.32162e-08 0)
(0.127782 -1.50167e-08 0)
(0.127782 -1.94106e-08 0)
(0.127782 -1.76878e-08 0)
(0.127782 -1.55612e-08 0)
(0.127782 -1.3021e-08 0)
(0.127782 -8.62065e-09 0)
(0.127782 -2.506e-09 0)
(0.127782 3.69124e-09 0)
(0.127782 6.86463e-09 0)
(0.127782 6.20807e-09 0)
(0.127782 4.10302e-09 0)
(0.127782 2.91829e-09 0)
(0.127782 2.93224e-09 0)
(0.127782 3.13746e-09 0)
(0.127782 3.07019e-09 0)
(0.127782 3.14059e-09 0)
(0.127782 4.86273e-09 0)
(0.127782 8.35369e-09 0)
(0.127782 1.15403e-08 0)
(0.127782 1.35615e-08 0)
(0.127782 1.46659e-08 0)
(0.127782 1.57396e-08 0)
(0.127782 1.70683e-08 0)
(0.127782 1.83981e-08 0)
(0.127782 1.80494e-08 0)
(0.127782 1.44819e-08 0)
(0.127782 9.3599e-09 0)
(0.127782 5.62024e-09 0)
(0.127782 2.70283e-09 0)
(0.127782 1.94389e-09 0)
(0.127782 5.76149e-10 0)
(0.127782 1.67307e-09 0)
(0.127782 -9.82593e-10 0)
(0.127782 1.70885e-09 0)
(0.127782 -4.13996e-09 0)
(0.127782 -3.0107e-09 0)
(0.127782 -9.33647e-09 0)
(0.127782 -4.05203e-08 0)
(0.12711 -4.04002e-08 0)
(0.12711 -2.14145e-08 0)
(0.12711 -2.16233e-08 0)
(0.12711 -2.2722e-08 0)
(0.12711 -1.93017e-08 0)
(0.12711 -1.6456e-08 0)
(0.12711 -1.36542e-08 0)
(0.12711 -9.0087e-09 0)
(0.12711 -2.488e-09 0)
(0.12711 4.00372e-09 0)
(0.12711 7.20806e-09 0)
(0.12711 6.32056e-09 0)
(0.12711 4.11841e-09 0)
(0.12711 3.23319e-09 0)
(0.12711 3.6477e-09 0)
(0.12711 4.31305e-09 0)
(0.12711 4.62681e-09 0)
(0.12711 4.90916e-09 0)
(0.12711 6.89532e-09 0)
(0.12711 1.04821e-08 0)
(0.12711 1.36148e-08 0)
(0.12711 1.5463e-08 0)
(0.12711 1.62657e-08 0)
(0.12711 1.71478e-08 0)
(0.12711 1.83953e-08 0)
(0.12711 1.99161e-08 0)
(0.12711 1.93134e-08 0)
(0.12711 1.52024e-08 0)
(0.12711 9.62965e-09 0)
(0.12711 5.77904e-09 0)
(0.12711 2.85006e-09 0)
(0.12711 2.32545e-09 0)
(0.12711 9.50922e-10 0)
(0.12711 2.56885e-09 0)
(0.12711 -3.58036e-10 0)
(0.12711 2.90334e-09 0)
(0.12711 -2.96271e-09 0)
(0.12711 -1.88141e-09 0)
(0.12711 -6.75404e-09 0)
(0.12711 -4.21876e-08 0)
(0.126342 -4.82429e-08 0)
(0.126342 -3.11414e-08 0)
(0.126342 -2.69839e-08 0)
(0.126342 -2.43833e-08 0)
(0.126342 -1.93378e-08 0)
(0.126342 -1.60427e-08 0)
(0.126342 -1.32511e-08 0)
(0.126342 -8.72022e-09 0)
(0.126342 -2.11444e-09 0)
(0.126342 4.61737e-09 0)
(0.126342 7.56724e-09 0)
(0.126342 6.22586e-09 0)
(0.126342 3.82365e-09 0)
(0.126342 2.90897e-09 0)
(0.126342 3.49045e-09 0)
(0.126342 4.5865e-09 0)
(0.126342 5.35728e-09 0)
(0.126342 5.98678e-09 0)
(0.126342 8.20722e-09 0)
(0.126342 1.19341e-08 0)
(0.126342 1.50148e-08 0)
(0.126342 1.66829e-08 0)
(0.126342 1.7234e-08 0)
(0.126342 1.78936e-08 0)
(0.126342 1.90393e-08 0)
(0.126342 2.07043e-08 0)
(0.126342 1.99379e-08 0)
(0.126342 1.52942e-08 0)
(0.126342 9.40015e-09 0)
(0.126342 5.63735e-09 0)
(0.126342 2.69285e-09 0)