/*--------------------------------*- C++ -*----------------------------------*\
  =========                 |
  \\      /  F ield         | OpenFOAM: The Open Source CFD Toolbox
   \\    /   O peration     | Website:  https://openfoam.org
    \\  /    A nd           | Version:  dev
     \\/     M anipulation  |

   OpenFOAM for Windows 20.09 (v1)
   Built by CFD Support, www.cfdsupport.com (based on Symscape).
\*---------------------------------------------------------------------------*/
FoamFile
{
    version     2.0;
    format      ascii;
    class       surfaceScalarField;
    location    "6";
    object      alphaPhi0.water;
}
// * * * * * * * * * * * * * * * * * * * * * * * * * * * * * * * * * * * * * //

dimensions      [0 3 -1 0 0 0 0];

internalField   nonuniform List<scalar> 
1792
(
1.73445e-09
4.50046e-11
1.75708e-09
-2.32412e-11
1.76347e-09
-6.43634e-12
-1.02078e-11
1.77368e-09
4.93278e-09
5.6396e-11
4.92344e-09
-1.38973e-11
4.93624e-09
-1.92306e-11
-2.31319e-11
4.94916e-09
7.77039e-09
6.05767e-11
7.75573e-09
7.72179e-13
7.76896e-09
-3.24459e-11
-3.23633e-11
7.77819e-09
1.02865e-08
6.20101e-11
1.02695e-08
1.77856e-11
1.02838e-08
-4.67184e-11
-3.73027e-11
1.02888e-08
1.25104e-08
5.76903e-11
1.24911e-08
3.70958e-11
1.25059e-08
-6.15522e-11
-3.81124e-11
1.25067e-08
1.44638e-08
5.02658e-11
1.44446e-08
5.63143e-11
1.44599e-08
-7.68444e-11
-3.53954e-11
1.44572e-08
1.61723e-08
4.10141e-11
1.61539e-08
7.47322e-11
1.61697e-08
-9.26497e-11
-3.00286e-11
1.61644e-08
1.76586e-08
3.04157e-11
1.76419e-08
9.1478e-11
1.76581e-08
-1.08938e-10
-2.28894e-11
1.7651e-08
1.89449e-08
1.94662e-11
1.89302e-08
1.0618e-10
1.89474e-08
-1.26133e-10
-1.51854e-11
1.89397e-08
2.00523e-08
8.22102e-12
2.004e-08
1.18403e-10
2.00578e-08
-1.4391e-10
-7.93856e-12
2.00506e-08
2.09999e-08
-2.01257e-12
2.09903e-08
1.2795e-10
2.10096e-08
-1.63148e-10
-2.53269e-12
2.10042e-08
2.18072e-08
-1.10322e-11
2.18001e-08
1.35047e-10
2.18202e-08
-1.83322e-10
3.24747e-13
2.18173e-08
2.24893e-08
-1.70075e-11
2.24861e-08
1.38232e-10
2.25074e-08
-2.04668e-10
-9.07114e-13
2.25086e-08
2.30642e-08
-1.98124e-11
2.30621e-08
1.40299e-10
2.30854e-08
-2.28031e-10
-6.2243e-12
2.30908e-08
2.35442e-08
-1.59986e-11
2.35434e-08
1.40881e-10
2.35701e-08
-2.54462e-10
-1.66245e-11
2.35809e-08
2.39421e-08
5.98591e-13
2.39435e-08
1.39561e-10
2.3972e-08
-2.82574e-10
-3.26905e-11
2.39885e-08
2.42732e-08
1.73425e-11
2.42762e-08
1.3659e-10
2.43048e-08
-3.11156e-10
-5.62733e-11
2.43284e-08
2.45464e-08
3.59606e-11
2.45502e-08
1.32777e-10
2.45791e-08
-3.39959e-10
-8.50958e-11
2.46079e-08
2.47697e-08
5.76516e-11
2.47736e-08
1.28864e-10
2.48042e-08
-3.70607e-10
-1.19336e-10
2.48384e-08
2.49528e-08
8.01446e-11
2.49562e-08
1.25485e-10
2.49875e-08
-4.01857e-10
-1.58343e-10
2.50265e-08
2.5101e-08
1.0458e-10
2.51031e-08
1.23416e-10
2.51357e-08
-4.34489e-10
-2.01933e-10
2.51793e-08
2.5222e-08
1.2913e-10
2.52222e-08
1.23141e-10
2.52553e-08
-4.67525e-10
-2.49563e-10
2.53029e-08
2.53192e-08
1.54522e-10
2.53169e-08
1.25429e-10
2.53506e-08
-5.01207e-10
-3.01199e-10
2.54023e-08
2.53985e-08
1.79484e-10
2.53932e-08
1.30716e-10
2.54266e-08
-5.34602e-10
-3.56492e-10
2.54819e-08
2.54624e-08
2.04089e-10
2.54537e-08
1.39428e-10
2.54866e-08
-5.67512e-10
-4.14952e-10
2.55451e-08
2.55149e-08
2.27528e-10
2.55024e-08
1.51953e-10
2.55343e-08
-5.99455e-10
-4.76687e-10
2.55961e-08
2.55578e-08
2.49765e-10
2.55417e-08
1.68075e-10
2.55722e-08
-6.30018e-10
-5.41148e-10
2.56367e-08
2.5594e-08
2.70021e-10
2.5575e-08
1.87026e-10
2.5605e-08
-6.59953e-10
-6.08355e-10
2.56722e-08
2.56246e-08
2.88065e-10
2.56041e-08
2.07511e-10
2.56328e-08
-6.88669e-10
-6.77035e-10
2.57014e-08
2.56525e-08
3.0435e-10
2.56312e-08
2.28712e-10
2.56653e-08
-7.22567e-10
-7.46874e-10
2.57349e-08
2.56717e-08
3.16229e-10
2.56631e-08
2.37321e-10
2.56921e-08
-7.5098e-10
-8.04765e-10
2.575e-08
2.56963e-08
3.22824e-10
2.56914e-08
2.42187e-10
2.57258e-08
-7.85354e-10
-8.5883e-10
2.57798e-08
2.57247e-08
3.24988e-10
2.57216e-08
2.45289e-10
2.57547e-08
-8.18494e-10
-9.12227e-10
2.58081e-08
2.57585e-08
3.23265e-10
2.5755e-08
2.4881e-10
2.57872e-08
-8.50715e-10
-9.66282e-10
2.58413e-08
2.57985e-08
3.18367e-10
2.57933e-08
2.54004e-10
2.58237e-08
-8.81025e-10
-1.02037e-09
2.58778e-08
2.58473e-08
3.10689e-10
2.58395e-08
2.61849e-10
2.58678e-08
-9.09374e-10
-1.07508e-09
2.59225e-08
2.59066e-08
3.00592e-10
2.5896e-08
2.72415e-10
2.59221e-08
-9.35464e-10
-1.12963e-09
2.59767e-08
2.59796e-08
2.88122e-10
2.59664e-08
2.85597e-10
2.59903e-08
-9.59273e-10
-1.18399e-09
2.60446e-08
2.60694e-08
2.73378e-10
2.60541e-08
3.00913e-10
2.60753e-08
-9.80495e-10
-1.23712e-09
2.61284e-08
2.618e-08
2.56302e-10
2.61633e-08
3.17593e-10
2.61817e-08
-9.98957e-10
-1.28843e-09
2.6233e-08
2.63159e-08
2.3654e-10
2.62987e-08
3.3475e-10
2.6314e-08
-1.01431e-09
-1.33631e-09
2.63619e-08
2.64822e-08
2.14037e-10
2.64659e-08
3.51065e-10
2.64778e-08
-1.02628e-09
-1.37938e-09
2.65209e-08
2.66851e-08
1.88619e-10
2.66709e-08
3.65355e-10
2.66792e-08
-1.03462e-09
-1.4153e-09
2.67151e-08
2.69312e-08
1.60834e-10
2.69207e-08
3.759e-10
2.69252e-08
-1.03909e-09
-1.44239e-09
2.69522e-08
2.72289e-08
1.29991e-10
2.72215e-08
3.82819e-10
2.7224e-08
-1.04079e-09
-1.4572e-09
2.72392e-08
2.75796e-08
1.07952e-10
2.75894e-08
3.72171e-10
2.75867e-08
-1.03777e-09
-1.45233e-09
2.75819e-08
2.80032e-08
8.55224e-11
2.80173e-08
3.58069e-10
2.80106e-08
-1.03104e-09
-1.44048e-09
2.79988e-08
2.85078e-08
6.17538e-11
2.85245e-08
3.41359e-10
2.8515e-08
-1.02152e-09
-1.42231e-09
2.84968e-08
2.91062e-08
3.5347e-11
2.91234e-08
3.24106e-10
2.9111e-08
-1.00911e-09
-1.39906e-09
2.90878e-08
2.98102e-08
6.50781e-12
2.98279e-08
3.06413e-10
2.9812e-08
-9.93188e-10
-1.37271e-09
2.97856e-08
3.0636e-08
-2.59434e-11
3.06521e-08
2.90287e-10
3.06328e-08
-9.73888e-10
-1.34359e-09
3.06037e-08
3.15963e-08
-6.12349e-11
3.16126e-08
2.73947e-10
3.15888e-08
-9.50011e-10
-1.31254e-09
3.15577e-08
3.2711e-08
-1.00799e-10
3.27253e-08
2.59633e-10
3.26972e-08
-9.21907e-10
-1.27951e-09
3.26642e-08
3.39941e-08
-1.44523e-10
3.40092e-08
2.44451e-10
3.39753e-08
-8.87969e-10
-1.2442e-09
3.394e-08
3.54682e-08
-1.9378e-10
3.54819e-08
2.30747e-10
3.54427e-08
-8.48787e-10
-1.20633e-09
3.54048e-08
3.71468e-08
-2.48206e-10
3.71644e-08
2.13132e-10
3.71179e-08
-8.02289e-10
-1.16507e-09
3.70766e-08
3.90566e-08
-3.08529e-10
3.90751e-08
1.94643e-10
3.90227e-08
-7.49904e-10
-1.12062e-09
3.89783e-08
4.12092e-08
-3.72891e-10
4.12366e-08
1.67213e-10
4.11779e-08
-6.91223e-10
-1.0723e-09
4.11296e-08
4.36338e-08
-4.3901e-10
4.36657e-08
1.35419e-10
4.36039e-08
-6.29383e-10
-1.02018e-09
4.3552e-08
4.49208e-08
-2.72729e-11
4.54452e-08
9.50406e-11
4.53475e-08
-3.73812e-11
4.50261e-08
-4.7674e-11
1.7633e-09
1.03764e-11
1.76885e-09
-5.55183e-12
1.76977e-09
-9.12586e-13
-9.87366e-12
4.92634e-09
3.31933e-11
4.93646e-09
-1.56717e-11
4.94073e-09
-5.17719e-12
-1.33451e-11
7.7461e-09
6.52902e-11
7.75876e-09
-2.83399e-11
7.765e-09
-1.14313e-11
-2.29324e-11
1.02489e-08
1.0511e-10
1.0263e-08
-4.24345e-11
1.02719e-08
-2.03438e-11
-3.89903e-11
1.24612e-08
1.50709e-10
1.24753e-08
-5.65559e-11
1.24865e-08
-3.1625e-11
-5.85402e-11
1.44066e-08
2.01264e-10
1.44206e-08
-7.05216e-11
1.44341e-08
-4.50731e-11
-8.09022e-11
1.611e-08
2.55617e-10
1.61238e-08
-8.43021e-11
1.61392e-08
-6.04882e-11
-1.04784e-10
1.7594e-08
3.12662e-10
1.76075e-08
-9.78506e-11
1.76244e-08
-7.73493e-11
-1.28407e-10
1.8881e-08
3.71297e-10
1.88946e-08
-1.11452e-10
1.89124e-08
-9.5098e-11
-1.49939e-10
1.99914e-08
4.3047e-10
2.0005e-08
-1.25039e-10
2.00229e-08
-1.13016e-10
-1.68038e-10
2.09451e-08
4.89496e-10
2.09593e-08
-1.39243e-10
2.09764e-08
-1.30125e-10
-1.81214e-10
2.17599e-08
5.46904e-10
2.17736e-08
-1.52933e-10
2.17908e-08
-1.47251e-10
-1.88551e-10
2.24535e-08
6.02022e-10
2.24667e-08
-1.66095e-10
2.24838e-08
-1.64402e-10
-1.87978e-10
2.30398e-08
6.52996e-10
2.30529e-08
-1.79173e-10
2.30689e-08
-1.80414e-10
-1.80439e-10
2.35343e-08
6.99793e-10
2.35474e-08
-1.92219e-10
2.35627e-08
-1.95862e-10
-1.64576e-10
2.39483e-08
7.40381e-10
2.39608e-08
-2.04401e-10
2.39731e-08
-2.08061e-10
-1.4854e-10
2.42924e-08
7.76394e-10
2.43056e-08
-2.17671e-10
2.43167e-08
-2.19099e-10
-1.21859e-10
2.45759e-08
8.08403e-10
2.45896e-08
-2.31395e-10
2.45982e-08
-2.27714e-10
-8.87063e-11
2.48095e-08
8.37319e-10
2.48238e-08
-2.45684e-10
2.48309e-08
-2.34768e-10
-4.91676e-11
2.5e-08
8.63741e-10
2.50143e-08
-2.59968e-10
2.50195e-08
-2.39911e-10
-5.01464e-12
2.5155e-08
8.88034e-10
2.51697e-08
-2.74651e-10
2.51737e-08
-2.43867e-10
4.31889e-11
2.52803e-08
9.10653e-10
2.52947e-08
-2.89035e-10
2.5297e-08
-2.46153e-10
9.36343e-11
2.53809e-08
9.3201e-10
2.53954e-08
-3.03547e-10
2.53968e-08
-2.47491e-10
1.45767e-10
2.54618e-08
9.52161e-10
2.54756e-08
-3.17377e-10
2.54756e-08
-2.47509e-10
1.97903e-10
2.5526e-08
9.71172e-10
2.55396e-08
-3.30958e-10
2.55389e-08
-2.46813e-10
2.49826e-10
2.5578e-08
9.89226e-10
2.55904e-08
-3.43395e-10
2.55888e-08
-2.45146e-10
3.00251e-10
2.56191e-08
1.00677e-09
2.56307e-08
-3.54912e-10
2.56287e-08
-2.43148e-10
3.48892e-10
2.5654e-08
1.0249e-09
2.56631e-08
-3.63974e-10
2.56604e-08
-2.4048e-10
3.95082e-10
2.56824e-08
1.04388e-09
2.56889e-08
-3.70409e-10
2.56862e-08
-2.37838e-10
4.38717e-10
2.5707e-08
1.07049e-09
2.57098e-08
-3.71989e-10
2.57087e-08
-2.37611e-10
4.79829e-10
2.57431e-08
1.07613e-09
2.5731e-08
-3.58878e-10
2.57284e-08
-2.35761e-10
5.2554e-10
2.57702e-08
1.08575e-09
2.57527e-08
-3.41352e-10
2.57479e-08
-2.30963e-10
5.70564e-10
2.5798e-08
1.09584e-09
2.57778e-08
-3.21128e-10
2.57704e-08
-2.23555e-10
6.14117e-10
2.58307e-08
1.10638e-09
2.58081e-08
-2.98487e-10
2.57982e-08
-2.13678e-10
6.55542e-10
2.58676e-08
1.11656e-09
2.58441e-08
-2.74965e-10
2.58325e-08
-2.02166e-10
6.94449e-10
2.59133e-08
1.12576e-09
2.58891e-08
-2.50718e-10
2.58758e-08
-1.88907e-10
7.30636e-10
2.59685e-08
1.13393e-09
2.59445e-08
-2.26687e-10
2.593e-08
-1.74445e-10
7.64144e-10
2.6038e-08
1.14056e-09
2.60142e-08
-2.02916e-10
2.59981e-08
-1.58327e-10
7.95084e-10
2.61236e-08
1.14543e-09
2.61006e-08
-1.80016e-10
2.60831e-08
-1.40772e-10
8.23525e-10
2.62304e-08
1.14809e-09
2.62086e-08
-1.58249e-10
2.61891e-08
-1.21267e-10
8.49754e-10
2.63617e-08
1.14834e-09
2.63415e-08
-1.38109e-10
2.63202e-08
-9.9899e-11
8.73826e-10
2.65236e-08
1.14563e-09
2.65057e-08
-1.2019e-10
2.6482e-08
-7.62323e-11
8.96188e-10
2.67206e-08
1.14017e-09
2.67055e-08
-1.05136e-10
2.66798e-08
-5.05287e-11
9.16278e-10
2.69606e-08
1.13182e-09
2.69489e-08
-9.34531e-11
2.69218e-08
-2.34516e-11
9.34641e-10
2.7249e-08
1.12152e-09
2.72414e-08
-8.52058e-11
2.72132e-08
5.02177e-12
9.49541e-10
2.75992e-08
1.1042e-09
2.75951e-08
-8.08954e-11
2.7567e-08
3.27005e-11
9.59246e-10
2.80159e-08
1.0871e-09
2.80198e-08
-8.47965e-11
2.79866e-08
6.58902e-11
9.64968e-10
2.85173e-08
1.06664e-09
2.85241e-08
-9.15939e-11
2.84889e-08
1.0103e-10
9.69883e-10
2.91115e-08
1.04286e-09
2.91204e-08
-1.00456e-10
2.90826e-08
1.38864e-10
9.72683e-10
2.98125e-08
1.01595e-09
2.98231e-08
-1.10995e-10
2.97831e-08
1.78844e-10
9.74425e-10
3.06334e-08
9.8623e-10
3.06452e-08
-1.22691e-10
3.06026e-08
2.21406e-10
9.73449e-10
3.15901e-08
9.53874e-10
3.16033e-08
-1.3585e-10
3.15593e-08
2.65429e-10
9.7166e-10
3.26986e-08
9.19455e-10
3.27125e-08
-1.49711e-10
3.26664e-08
3.11574e-10
9.66554e-10
3.39768e-08
8.82665e-10
3.39922e-08
-1.65102e-10
3.39454e-08
3.58401e-10
9.61569e-10
3.54431e-08
8.4445e-10
3.54592e-08
-1.81209e-10
3.54106e-08
4.06948e-10
9.53248e-10
3.71165e-08
8.0462e-10
3.71348e-08
-1.99535e-10
3.70868e-08
4.54973e-10
9.47651e-10
3.90184e-08
7.64422e-10
3.90374e-08
-2.18504e-10
3.89887e-08
5.03735e-10
9.40019e-10
4.11692e-08
7.24821e-10
4.1191e-08
-2.40264e-10
4.11451e-08
5.49581e-10
9.40321e-10
4.35895e-08
6.88105e-10
4.36121e-08
-2.6237e-10
4.35701e-08
5.91876e-10
9.42336e-10
4.53305e-08
6.2203e-10
4.5293e-08
-1.35807e-11
4.51971e-08
5.87359e-10
8.90038e-10
1.13239e-09
-5.54663e-14
1.48119e-09
7.94407e-14
1.44897e-09
-2.93823e-14
-7.38116e-14
1.04207e-09
2.24682e-12
-1.09681e-16
1.22412e-12
4.08499e-18
1.47723e-12
-1.38901e-16
-2.15439e-16
2.24093e-12
1.10443e-14
-8.22787e-20
5.91234e-15
1.54014e-19
4.89403e-15
-1.00631e-18
-9.53723e-19
6.51836e-15
5.06031e-17
1.62099e-22
4.15156e-17
1.0245e-21
2.93253e-17
-5.05606e-21
-4.10557e-21
2.54574e-17
1.78214e-19
1.86148e-24
1.80564e-19
5.30708e-24
1.50833e-19
-1.60583e-23
-1.27969e-23
1.14264e-19
6.79136e-22
9.04723e-27
7.40299e-22
1.88209e-26
6.73644e-22
-6.85647e-26
-5.62784e-26
5.32843e-22
2.72273e-24
3.70988e-29
3.12265e-24
6.8507e-29
3.01828e-24
-2.89362e-28
-2.42791e-28
2.54286e-24
1.1663e-26
1.40494e-31
1.36316e-26
2.47385e-31
1.33519e-26
-1.20977e-30
-1.02803e-30
1.17424e-26
5.23371e-29
4.87344e-34
6.05136e-29
9.03672e-34
5.90296e-29
-5.09934e-33
-4.32713e-33
5.3184e-29
2.37305e-31
1.35446e-36
2.68961e-31
3.22199e-36
2.63386e-31
-2.15666e-35
-1.81986e-35
2.40235e-31
1.08233e-33
2.05514e-39
1.1963e-33
1.15218e-38
1.1821e-33
-9.18682e-38
-7.55518e-38
1.09242e-33
4.98973e-36
-8.75721e-42
5.3541e-36
4.14318e-41
5.30803e-36
-3.93103e-40
-3.10857e-40
4.9087e-36
2.32203e-38
-1.08052e-43
2.4349e-38
1.51334e-43
2.38403e-38
-1.68669e-42
-1.26037e-42
2.18586e-38
1.06674e-40
-6.89805e-46
1.10342e-40
5.65194e-46
1.06297e-40
-7.17971e-45
-5.02811e-45
9.6176e-41
4.79074e-43
-2.44519e-49
4.90226e-43
1.13259e-48
4.65836e-43
-2.34047e-48
-1.67176e-48
4.15978e-43
1.53624e-46
-1.34411e-51
1.1074e-46
4.27891e-52
1.58324e-46
-1.23007e-50
-8.58172e-51
1.60691e-46
8.90966e-49
-4.76991e-54
8.40052e-49
1.61622e-53
8.50539e-49
-6.24559e-53
-3.91078e-53
9.38333e-49
4.37737e-51
-1.06209e-56
4.22733e-51
2.39784e-56
4.32023e-51
-2.95041e-55
-1.59695e-55
4.7181e-51
1.98555e-53
8.5255e-60
1.96637e-53
1.20678e-58
2.01877e-53
-1.30754e-57
-5.92591e-58
2.11639e-53
8.49769e-56
2.59613e-61
8.5991e-56
5.52211e-61
8.7276e-56
-5.34852e-60
-1.97772e-60
8.68535e-56
3.41039e-58
1.81038e-63
3.49544e-58
2.31598e-63
3.453e-58
-2.04214e-62
-6.05186e-63
3.30633e-58
1.27853e-60
9.10365e-66
1.31661e-60
8.95467e-66
1.26993e-60
-7.28612e-65
-1.69244e-65
1.17305e-60
4.51344e-63
3.8523e-68
4.65392e-63
3.26589e-68
4.35532e-63
-2.482e-67
-4.53087e-68
3.89048e-63
1.50543e-65
1.48932e-70
1.55606e-65
1.19164e-70
1.42647e-65
-8.72221e-70
-1.23519e-70
1.23232e-65
5.06826e-68
5.95287e-73
5.36754e-68
4.99347e-73
4.82976e-68
-3.44881e-72
-3.71801e-73
4.05365e-68
1.98977e-70
3.02455e-75
2.11193e-70
2.47234e-75
1.83641e-70
-1.41735e-74
-1.17514e-75
1.43733e-70
8.06173e-73
1.4895e-77
8.67642e-73
1.18396e-77
7.28141e-73
-5.6539e-77
-3.98434e-78
5.21393e-73
3.44893e-75
7.01003e-80
3.37531e-75
5.50889e-80
2.82449e-75
-2.27501e-79
-1.40163e-80
1.97853e-75
1.44381e-77
2.9989e-82
1.39447e-77
2.55594e-82
1.11017e-77
-9.17137e-82
-5.32836e-83
7.45117e-78
5.93311e-80
1.09383e-84
5.51626e-80
9.34754e-85
4.42484e-80
-2.41465e-84
-1.09768e-85
2.94727e-80
1.64974e-82
3.44276e-87
1.4826e-82
3.04812e-87
1.12796e-82
-1.08242e-86
-4.54977e-88
6.83228e-83
7.62522e-85
1.88908e-89
6.83728e-85
1.77045e-89
5.15202e-85
-4.4069e-89
-1.70157e-90
2.91171e-85
3.08649e-87
6.90983e-92
2.77411e-87
6.82243e-92
2.14406e-87
-1.72315e-91
-6.16333e-93
1.21045e-87
1.22402e-89
2.5979e-94
1.08176e-89
2.67344e-94
8.66807e-90
-6.49746e-94
-2.11739e-95
4.90267e-90
4.62291e-92
9.2736e-97
4.16271e-92
1.00131e-96
3.40407e-92
-2.35079e-96
-7.39068e-98
1.89782e-92
1.66373e-94
3.08537e-99
1.53508e-94
3.5124e-99
1.2894e-94
-8.03318e-99
-2.53682e-100
7.06901e-95
5.691e-97
9.64671e-102
5.41933e-97
1.14232e-101
4.63591e-97
-2.56525e-101
-8.69725e-103
2.50709e-97
1.84603e-99
2.79092e-104
1.8817e-99
3.42402e-104
1.54782e-99
-7.57429e-104
-2.87033e-105
8.38894e-100
5.71396e-102
7.38463e-107
5.92804e-102
9.51057e-107
4.8097e-102
-2.06901e-106
-9.05587e-108
2.62329e-102
1.62695e-104
1.81994e-109
1.71407e-104
2.33686e-109
1.38448e-104
-5.16764e-109
-2.6401e-110
7.56826e-105
4.20782e-107
4.06623e-112
4.4923e-107
5.07412e-112
3.65151e-107
-1.1668e-111
-6.9894e-113
1.99874e-107
9.75544e-110
8.44756e-115
1.04972e-109
9.74207e-115
8.73553e-110
-2.37565e-114
-1.63798e-115
4.77811e-110
2.06514e-112
1.58226e-117
2.21562e-112
1.69254e-117
1.88404e-112
-4.37033e-117
-3.42336e-118
1.01757e-112
3.71953e-115
2.68935e-120
4.25366e-115
2.58193e-120
3.71769e-115
-7.26222e-120
-6.47355e-121
1.95318e-115
6.0083e-118
4.94675e-121
7.103e-118
3.1479e-123
6.57432e-118
-7.70665e-123
-7.39144e-124
3.41875e-118
7.02104e-121
5.6525e-124
8.18976e-121
2.43353e-126
7.19583e-121
-7.35706e-126
-8.0364e-127
4.18709e-121
7.59364e-124
5.83323e-127
8.50901e-124
2.1107e-129
7.30522e-124
-6.8341e-129
-7.88415e-130
3.84277e-124
7.98911e-127
7.29924e-130
8.28277e-127
2.21994e-132
7.31508e-127
-6.09173e-132
-7.41405e-133
3.68496e-127
9.44854e-130
8.12979e-133
8.86574e-130
2.05872e-135
6.8398e-130
-5.27421e-135
-6.6851e-136
3.42371e-130
9.95479e-133
8.34512e-136
8.57615e-133
1.71812e-138
6.24644e-133
-4.40489e-138
-5.6865e-139
3.11668e-133
9.60277e-136
8.29052e-139
7.75853e-136
1.37177e-141
5.39139e-136
-3.43963e-141
-4.31535e-142
2.65885e-136
9.00567e-139
7.19427e-142
6.92626e-139
9.92902e-145
4.141e-139
-2.40648e-144
-2.93871e-145
2.08922e-139
7.5237e-142
5.24606e-145
5.51507e-142
6.07905e-148
2.95695e-142
-1.39463e-147
-1.65848e-148
1.45079e-142
5.36993e-145
3.06299e-148
3.7297e-145
3.05409e-151
1.79598e-145
-6.36367e-151
-7.12361e-152
8.47688e-146
3.09848e-148
1.34703e-151
2.02294e-148
1.15868e-154
8.6763e-149
-2.08499e-154
-2.08816e-155
3.85691e-149
1.35344e-151
9.25266e-155
8.20608e-152
4.89622e-156
3.05143e-152
-5.44082e-158
-4.47916e-159
1.2282e-152
7.59773e-155
8.75782e-158
4.21399e-155
1.39199e-158
1.85008e-155
-7.65629e-162
-5.59315e-163
8.30502e-156
3.07711e-158
1.83564e-161
1.53577e-158
3.07611e-162
5.32506e-159
-4.73328e-166
-1.78218e-167
1.82511e-159
4.948e-162
1.19104e-165
1.89177e-162
1.74416e-166
4.37301e-163
-1.80806e-171
2.75348e-169
1.02292e-163
1.30524e-166
2.63323e-167
2.24112e-168
3.13143e-169
1.20073e-09
3.51603e-13
1.01243e-09
-2.85616e-14
1.30024e-09
3.62051e-13
6.68275e-13
2.9298e-12
5.39258e-17
2.29081e-12
-8.56224e-17
2.60359e-12
4.80286e-17
1.20407e-16
9.32746e-15
1.52234e-19
9.59826e-15
-2.14369e-19
1.12082e-14
2.90719e-19
3.90077e-19
3.07287e-17
5.41235e-22
3.11524e-17
-5.62261e-22
4.0114e-17
2.89577e-20
1.57977e-20
1.07788e-19
3.91584e-24
9.99797e-20
-1.34499e-24
1.37088e-19
8.69088e-23
1.08291e-22
4.51952e-22
1.91372e-26
3.95208e-22
-5.81704e-27
4.80745e-22
2.13332e-26
3.85712e-25
2.17823e-24
9.60022e-29
1.88269e-24
-2.7299e-29
1.86397e-24
7.52226e-29
1.22152e-27
1.04068e-26
4.41976e-31
9.20281e-27
-1.3317e-31
8.15768e-27
9.62533e-31
3.92596e-30
4.83087e-29
2.00782e-33
4.3849e-29
-6.71353e-34
3.76586e-29
1.79136e-33
1.50661e-32
2.21597e-31
9.20443e-36
2.05406e-31
-3.5077e-36
1.74041e-31
7.91562e-36
7.25667e-35
1.01539e-33
4.26376e-38
9.57309e-34
-1.83583e-38
8.21382e-34
3.49996e-38
4.00167e-37
4.61762e-36
1.95146e-40
4.4136e-36
-9.50494e-41
3.87299e-36
1.51001e-40
2.35245e-39
2.07135e-38
8.81122e-43
2.00054e-38
-4.79095e-43
1.79632e-38
6.33808e-43
1.36138e-41
9.12137e-41
3.87589e-45
8.88601e-41
-2.34088e-45
8.04488e-41
2.5791e-45
7.73024e-44
4.11488e-43
8.85547e-46
3.845e-43
-5.64358e-48
3.48727e-43
7.18802e-46
1.30696e-45
9.4324e-46
1.25278e-48
8.2959e-46
-1.66935e-50
1.5203e-45
1.49094e-48
6.04001e-48
2.49963e-48
2.18889e-51
2.2152e-48
-5.96253e-53
3.70462e-48
9.51053e-52
2.27495e-50
7.92174e-51
4.89778e-54
7.21125e-51
-2.36948e-55
1.00138e-50
9.96638e-56
7.46341e-53
2.87305e-53
1.8963e-56
2.65299e-53
-9.70078e-58
3.21465e-53
1.22011e-57
2.28433e-55
1.11228e-55
9.95923e-59
1.02679e-55
-3.89159e-60
1.08468e-55
1.56344e-60
6.38145e-58
4.35303e-58
5.22942e-61
3.98201e-58
-1.50584e-62
3.80229e-58
4.9223e-63
1.57595e-60
1.69155e-60
2.59958e-63
1.53039e-60
-5.64246e-65
1.35958e-60
1.52701e-65
3.24649e-63
6.52331e-63
1.20221e-65
5.83274e-63
-2.03811e-67
4.83182e-63
4.65374e-68
4.51668e-66
2.48165e-65
5.48507e-68
2.19846e-65
-7.32059e-70
1.7191e-65
1.31899e-70
2.80446e-69
9.50658e-68
2.31142e-70
8.29689e-68
-2.67067e-72
6.70876e-68
3.50867e-73
9.94843e-73
3.73514e-70
9.78026e-73
3.17663e-70
-9.78191e-75
2.51528e-70
7.7005e-76
4.15548e-74
1.49375e-72
4.06823e-75
1.24273e-72
-3.54942e-77
9.93385e-73
1.25784e-78
1.48942e-77
6.02297e-75
1.70521e-77
4.9289e-75
-1.27401e-79
3.96478e-75
-2.32735e-81
3.29126e-80
2.44058e-77
6.97999e-80
1.98057e-77
-4.50314e-82
1.62758e-77
-3.56928e-83
5.08163e-83
9.87916e-80
3.79189e-82
8.03759e-80
-1.41623e-84
6.75517e-80
-2.36514e-85
-1.07565e-85
3.57006e-82
1.10808e-84
2.89683e-82
-4.72233e-87
2.40976e-82
-1.30783e-87
-1.52484e-87
1.39342e-84
4.21389e-87
1.13696e-84
-1.51133e-89
9.65455e-85
-6.54044e-90
-1.02336e-89
5.40237e-87
1.56868e-89
4.42841e-87
-4.45191e-92
3.84516e-87
-2.81988e-92
-5.49304e-92
2.05088e-89
5.69123e-92
1.68835e-89
-1.16557e-94
1.49716e-89
-1.11706e-94
-2.59295e-94
7.56058e-92
1.98411e-94
6.24418e-92
-2.50134e-97
5.64604e-92
-3.93519e-97
-1.1028e-96
2.68141e-94
6.61375e-97
2.21252e-94
-3.31471e-100
2.02561e-94
-1.2684e-99
-4.27366e-99
9.09013e-97
2.09019e-99
7.46708e-97
4.69604e-103
6.90557e-97
-3.60594e-102
-1.50221e-101
2.91985e-99
6.20044e-102
2.3776e-99
5.56068e-105
2.21727e-99
-9.03537e-105
-4.72356e-104
8.79794e-102
1.71025e-104
7.12183e-102
2.60524e-107
6.66459e-102
-1.88701e-107
-1.32535e-106
2.46044e-104
4.33678e-107
1.97904e-104
8.86442e-110
1.85042e-104
-3.36443e-110
-3.28753e-109
6.31998e-107
9.99152e-110
5.02934e-107
2.46454e-112
4.64209e-107
-4.85494e-113
-7.15842e-112
1.47368e-109
2.08201e-112
1.16158e-109
5.58957e-115
1.05563e-109
-7.40875e-116
-1.35351e-114
3.09339e-112
3.85171e-115
2.41889e-112
1.07305e-117
2.17425e-112
-1.10553e-118
-2.21685e-117
5.79467e-115
6.21434e-118
4.51388e-115
1.75564e-120
4.00874e-115
-1.82472e-121
-3.2052e-120
9.61287e-118
1.5231e-120
7.48797e-118
2.23669e-123
6.54153e-118
-1.77398e-124
-1.5228e-123
1.17761e-120
9.54369e-124
8.08339e-121
2.04207e-126
4.81554e-121
-1.88831e-127
-1.61795e-126
1.33706e-123
9.62449e-127
1.05602e-123
2.19298e-129
6.3685e-124
-2.35239e-130
-1.40718e-129
1.32966e-126
7.53682e-130
1.05213e-126
1.60452e-132
6.52027e-127
-1.44572e-133
-1.0143e-132
1.09519e-129
4.66224e-133
8.72606e-130
9.81804e-136
5.54657e-130
-1.39716e-136
-6.12601e-136
7.77454e-133
1.97795e-136
6.12336e-133
5.1541e-139
3.85592e-133
-5.79041e-140
-3.1274e-139
4.63489e-136
4.7551e-140
3.64739e-136
2.29758e-142
2.29476e-136
-3.4773e-143
-1.37688e-142
2.52597e-139
1.94565e-145
1.92199e-139
8.91874e-146
1.1476e-139
-6.54116e-147
-5.21558e-146
1.09297e-142
4.95222e-148
8.55402e-143
2.99313e-149
5.20462e-143
-4.29317e-151
-1.67184e-149
5.23432e-146
3.81187e-152
3.40241e-146
9.4364e-153
1.87714e-146
1.81746e-153
-4.39078e-153
2.01901e-149
8.24033e-156
1.12591e-149
2.16395e-156
5.93455e-150
9.42936e-157
-8.65009e-157
5.50243e-153
2.08897e-156
2.77286e-153
5.23395e-157
1.41842e-153
4.96832e-157
-2.31427e-160
4.74852e-156
5.96715e-160
2.42544e-156
9.76394e-161
1.2853e-156
2.66745e-160
-2.78878e-164
8.48112e-160
5.94798e-164
3.54353e-160
-1.74065e-169
2.17322e-160
3.95379e-164
-1.22111e-168
3.6376e-164
1.77093e-168
9.98553e-165
-3.07617e-174
1.26154e-164
1.27313e-168
-9.78641e-174
1.63227e-169
2.49458e-170
1.62069e-169
)
;

boundaryField
{
    topWall
    {
        type            calculated;
        value           uniform 0;
    }
    botWall
    {
        type            calculated;
        value           uniform 0;
    }
    inlet
    {
        type            cyclic;
        value           nonuniform List<scalar> 
120
(
-3.60377e-12
-1.36071e-09
-4.51194e-08
-4.3568e-08
-4.11448e-08
-3.89963e-08
-3.70924e-08
-3.54189e-08
-3.39504e-08
-3.26715e-08
-3.1561e-08
-3.06036e-08
-2.97814e-08
-2.90798e-08
-2.8484e-08
-2.79808e-08
-2.75576e-08
-2.71981e-08
-2.69034e-08
-2.66597e-08
-2.64597e-08
-2.62961e-08
-2.61629e-08
-2.60547e-08
-2.59672e-08
-2.58965e-08
-2.58396e-08
-2.57936e-08
-2.57568e-08
-2.57269e-08
-2.57029e-08
-2.5683e-08
-2.56681e-08
-2.56426e-08
-2.56142e-08
-2.558e-08
-2.55383e-08
-2.5487e-08
-2.54235e-08
-2.53446e-08
-2.52465e-08
-2.51255e-08
-2.49753e-08
-2.47913e-08
-2.45651e-08
-2.429e-08
-2.39581e-08
-2.35475e-08
-2.30614e-08
-2.24833e-08
-2.17981e-08
-2.09896e-08
-2.0041e-08
-1.89339e-08
-1.7648e-08
-1.61631e-08
-1.44564e-08
-1.25061e-08
-1.0288e-08
-7.77458e-09
-4.94419e-09
-1.77964e-09
-1.34177e-14
-5.01746e-17
-1.64161e-19
-5.89009e-22
-2.24942e-24
-9.21004e-27
-4.02235e-29
-1.86675e-31
-8.95938e-34
-4.28074e-36
-2.03439e-38
-9.41607e-41
-4.25473e-43
-2.77615e-45
-9.73555e-48
-3.27436e-50
-1.06759e-52
-3.36985e-55
-1.01909e-57
-2.93883e-60
-8.0904e-63
-2.15408e-65
-5.67621e-68
-2.06833e-70
-9.57269e-73
-3.87207e-75
-1.56994e-77
-6.51913e-80
-2.28313e-82
-9.15463e-85
-3.66109e-87
-1.43213e-89
-5.42893e-92
-1.97718e-94
-6.84517e-97
-2.22963e-99
-6.76993e-102
-1.89555e-104
-4.82465e-107
-1.10395e-109
-2.25772e-112
-4.08926e-115
-6.66842e-118
-3.0547e-121
-3.81775e-124
-3.88584e-127
-3.46214e-130
-2.49493e-133
-1.47478e-136
-7.65241e-140
-3.31831e-143
-1.21877e-146
-3.60997e-150
-8.10622e-154
-5.58609e-157
-7.41557e-161
-3.24886e-165
-2.29707e-170
)
;
    }
    outlet
    {
        type            cyclic;
        value           nonuniform List<scalar> 
120
(
3.60377e-12
1.36071e-09
4.51194e-08
4.3568e-08
4.11448e-08
3.89963e-08
3.70924e-08
3.54189e-08
3.39504e-08
3.26715e-08
3.1561e-08
3.06036e-08
2.97814e-08
2.90798e-08
2.8484e-08
2.79808e-08
2.75576e-08
2.71981e-08
2.69034e-08
2.66597e-08
2.64597e-08
2.62961e-08
2.61629e-08
2.60547e-08
2.59672e-08
2.58965e-08
2.58396e-08
2.57936e-08
2.57568e-08
2.57269e-08
2.57029e-08
2.5683e-08
2.56681e-08
2.56426e-08
2.56142e-08
2.558e-08
2.55383e-08
2.5487e-08
2.54235e-08
2.53446e-08
2.52465e-08
2.51255e-08
2.49753e-08
2.47913e-08
2.45651e-08
2.429e-08
2.39581e-08
2.35475e-08
2.30614e-08
2.24833e-08
2.17981e-08
2.09896e-08
2.0041e-08
1.89339e-08
1.7648e-08
1.61631e-08
1.44564e-08
1.25061e-08
1.0288e-08
7.77458e-09
4.94419e-09
1.77964e-09
1.34177e-14
5.01746e-17
1.64161e-19
5.89009e-22
2.24942e-24
9.21004e-27
4.02235e-29
1.86675e-31
8.95938e-34
4.28074e-36
2.03439e-38
9.41607e-41
4.25473e-43
2.77615e-45
9.73555e-48
3.27436e-50
1.06759e-52
3.36985e-55
1.01909e-57
2.93883e-60
8.0904e-63
2.15408e-65
5.67621e-68
2.06833e-70
9.57269e-73
3.87207e-75
1.56994e-77
6.51913e-80
2.28313e-82
9.15463e-85
3.66109e-87
1.43213e-89
5.42893e-92
1.97718e-94
6.84517e-97
2.22963e-99
6.76993e-102
1.89555e-104
4.82465e-107
1.10395e-109
2.25772e-112
4.08926e-115
6.66842e-118
3.0547e-121
3.81775e-124
3.88584e-127
3.46214e-130
2.49493e-133
1.47478e-136
7.65241e-140
3.31831e-143
1.21877e-146
3.60997e-150
8.10622e-154
5.58609e-157
7.41557e-161
3.24886e-165
2.29707e-170
)
;
    }
    fixWall
    {
        type            empty;
        value           nonuniform List<scalar> 0();
    }
}


// ************************************************************************* //
