/*--------------------------------*- C++ -*----------------------------------*\
  =========                 |
  \\      /  F ield         | OpenFOAM: The Open Source CFD Toolbox
   \\    /   O peration     | Website:  https://openfoam.org
    \\  /    A nd           | Version:  dev
     \\/     M anipulation  |

   OpenFOAM for Windows 20.09 (v1)
   Built by CFD Support, www.cfdsupport.com (based on Symscape).
\*---------------------------------------------------------------------------*/
FoamFile
{
    version     2.0;
    format      ascii;
    class       volScalarField;
    location    "6";
    object      alpha.water;
}
// * * * * * * * * * * * * * * * * * * * * * * * * * * * * * * * * * * * * * //

dimensions      [0 0 0 0 0 0 0];

internalField   nonuniform List<scalar> 
960
(
1.00038
1.00003
1
1
1
1
1
1
0.999998
1
1
1
0.999997
0.999999
1
1
0.999998
0.999999
1
1
0.999999
1
1
1
0.999999
1
1
1
1
1
1
1
1
1
0.999999
1
1
1
0.999999
0.999999
1
1
0.999999
0.999999
1
1
0.999999
0.999999
1
1
0.999999
0.999999
1
1
0.999998
0.999999
1.00001
1.00001
1.00001
0.999997
1.00002
1.00002
1.00001
0.999991
0.999999
1
1
1
1
1
1
1
1
1
1
1
1
1
1
0.999999
1
0.999999
0.999999
0.999999
0.999999
0.999999
0.999999
0.999999
0.999999
0.999999
0.999999
0.999999
0.999999
0.999999
0.999999
0.999999
0.999999
0.999999
0.999999
1
0.999999
0.999999
1
1
1
1
1
1
1
1
1
1
1
1
1
1
1.00003
1.00004
1.00003
1.00002
1.00001
1.00003
1.00002
1.00002
1
1
1
1
1
1
1
1
1
1
1
1
1
1
1
1
1
1
1
1
1
1
1
1
1
1
1
1
1
1
1
1
1
1
1
1
1
1
1
1
1
1
1
1
1
1
1
1
0.999999
1
1
1
0.999985
0.999981
1
1.00001
1.00001
0.999993
1.00001
1.00002
0.999999
1
1
1
0.999999
1
1
0.999999
0.999999
0.999999
0.999999
0.999999
0.999999
0.999999
0.999999
0.999999
0.999999
0.999999
0.999999
0.999998
0.999999
0.999999
0.999999
0.999999
0.999999
0.999999
0.999999
0.999999
0.999999
0.999999
0.999999
0.999999
0.999999
0.999999
0.999999
0.999999
1
1
1
1
1
1
1
1
1
1
1
1
0.99999
0.999977
0.999992
0.999995
0.968585
0.979198
0.97884
0.972603
0.999998
1
1
1
1
1
1
1
1
1
1
1
1
1
1
1
1
1
1
1
1
1
1
1
1
1
1
1
1
1
0.999999
0.999999
0.999999
0.999999
0.999999
0.999999
0.999999
0.999999
0.999998
0.999999
0.999999
0.999999
0.999998
0.999999
0.999999
0.999999
0.999998
0.999999
1
1
0.999999
0.999999
1
1
0.999999
1
0.99999
1
0.999997
0.999998
0.999996
1.00001
0.999991
1
1
1
1
1
1
1
1
1
1
0.999999
1
1
0.999999
0.999999
1
1
0.999999
0.999999
0.999999
0.999999
0.999999
0.999999
0.999999
0.999999
0.999999
0.999999
0.999999
0.999999
1
1
0.999999
0.999999
1
1
0.999999
0.999999
1
1
1
0.999999
1
1
1
1
1
1
1
1
1
1
1
1
0.999987
1.00001
1.00002
1.00002
0.999997
1.00002
1.00001
1
1
1
1
1
1
1
1
1
1
1
1
1
1
1
1
1
1
1
1
1
1
1
1
1
1
1
1
1
1
1
1
1
1
1
1
1
1
1
1
1
1
1
1
1
1
1
1
1
1
1
1
1
1.00001
1.00001
0.999997
0.999996
1.00002
1.00001
1
1.00001
1
1
1
1
1
1
1
0.999999
0.999999
0.999999
1
0.999999
0.999999
0.999999
0.999999
0.999999
0.999999
0.999999
0.999999
0.999999
0.999999
0.999999
0.999999
0.999999
0.999999
0.999999
0.999999
0.999999
0.999999
0.999999
0.999999
0.999999
0.999999
0.999999
0.999999
0.999999
0.999999
0.999999
0.999999
0.999999
1
1
1
1
1
1
1
1
0.999982
0.99999
0.999991
0.999989
0.978543
0.977733
0.976445
0.975313
0.0219419
0.0287003
0.0283903
0.0201635
2.53543e-05
1.48699e-05
1.64993e-05
2.63136e-05
8.52264e-08
6.83712e-08
4.33377e-08
5.94649e-08
2.82098e-10
3.09692e-10
2.27971e-10
2.29582e-10
7.09443e-13
1.03979e-12
9.49856e-13
9.66883e-13
2.21029e-15
3.68699e-15
3.66701e-15
3.96584e-15
7.70442e-18
1.44701e-17
1.50345e-17
1.66947e-17
2.89293e-20
6.00921e-20
6.31624e-20
6.99062e-20
1.17163e-22
2.59953e-22
2.69999e-22
2.94167e-22
5.13007e-25
1.1451e-24
1.16874e-24
1.25696e-24
2.36792e-27
5.11665e-27
5.10666e-27
5.44375e-27
1.10945e-29
2.3134e-29
2.24107e-29
2.36885e-29
5.11246e-32
1.04447e-31
9.93464e-32
1.03536e-31
2.29734e-34
4.6551e-34
4.37774e-34
4.51233e-34
1.00912e-36
2.03765e-36
1.89618e-36
1.94114e-36
3.2063e-40
3.6107e-40
3.45186e-40
6.615e-40
1.91225e-42
3.41937e-42
3.31677e-42
3.78207e-42
8.9243e-45
1.70387e-44
1.67082e-44
1.89371e-44
4.01491e-47
7.83049e-47
7.71957e-47
8.47119e-47
1.69922e-49
3.3821e-49
3.31741e-49
3.48674e-49
6.56783e-52
1.33002e-51
1.29076e-51
1.37504e-51
2.35542e-54
4.81843e-54
4.66218e-54
5.03832e-54
7.81404e-57
1.61994e-56
1.57712e-56
1.72212e-56
2.42541e-59
5.13825e-59
5.08489e-59
5.61998e-59
7.5558e-62
1.70576e-61
1.71304e-61
1.88373e-61
3.62707e-64
6.6576e-64
6.50053e-64
7.02004e-64
2.02469e-66
2.58491e-66
2.53104e-66
2.69779e-66
9.86114e-69
1.04058e-68
9.50838e-69
1.01921e-68
4.50421e-71
3.88837e-71
3.80578e-71
3.8869e-71
2.00619e-73
1.43329e-73
1.49548e-73
1.52708e-73
5.39207e-76
2.46398e-76
3.27361e-76
3.42982e-76
2.61361e-78
1.61809e-78
1.66999e-78
1.59909e-78
1.06177e-80
6.3517e-81
6.5692e-81
6.72662e-81
4.23135e-83
2.4893e-83
2.46677e-83
2.75338e-83
1.66368e-85
9.14862e-86
9.16504e-86
1.08612e-85
6.28637e-88
3.18511e-88
3.24115e-88
4.13867e-88
2.27457e-90
1.03667e-90
1.08828e-90
1.50149e-90
7.6778e-93
2.95585e-93
3.75174e-93
5.05896e-93
2.35189e-95
8.68079e-96
1.17427e-95
1.58081e-95
6.60735e-98
2.39541e-98
3.40196e-98
4.56873e-98
1.67072e-100
6.02395e-101
9.01937e-101
1.21189e-100
3.73155e-103
1.34245e-103
2.16617e-103
2.92078e-103
7.30232e-106
2.82666e-106
4.70316e-106
6.31464e-106
1.24542e-108
4.84878e-109
9.20644e-109
1.25229e-108
1.95913e-111
6.18792e-112
1.68054e-111
2.23229e-111
2.52594e-117
1.75147e-115
1.91126e-114
2.25317e-114
3.12575e-120
1.81399e-118
1.97506e-117
2.54315e-117
3.49704e-123
4.83971e-121
2.02103e-120
2.53035e-120
3.83474e-126
9.8334e-124
2.46762e-123
2.35118e-123
4.01366e-129
1.36685e-126
2.56298e-126
2.18395e-126
3.95368e-132
1.60131e-129
2.48037e-129
1.96336e-129
3.55545e-135
1.66085e-132
2.45191e-132
1.57481e-132
2.80796e-138
1.50752e-135
2.10344e-135
1.16236e-135
1.86021e-141
1.17068e-138
1.51532e-138
7.48405e-139
9.74783e-145
7.40255e-142
8.77552e-142
3.87705e-142
9.7162e-148
3.58613e-145
3.84798e-145
1.48632e-145
2.53869e-148
3.35813e-148
1.84167e-148
7.98491e-149
3.96188e-151
1.97864e-151
6.86591e-152
2.35369e-152
1.00257e-154
3.83227e-155
8.86568e-156
2.07419e-156
7.38984e-159
1.49047e-159
1.26954e-160
1.77387e-161
0.0232744
0.0196173
0.0234542
0.02647
2.05635e-05
2.46335e-05
1.05018e-05
9.34052e-06
4.96585e-08
7.6227e-08
4.81398e-08
2.54298e-08
1.42945e-10
1.91829e-10
1.29174e-10
4.44177e-11
4.43058e-13
4.96897e-13
3.43384e-13
4.13457e-14
1.87533e-15
1.75323e-15
1.24908e-15
1.90259e-17
9.23511e-18
7.85293e-18
5.83586e-18
7.49954e-20
4.2943e-20
3.52652e-20
3.36037e-20
8.36367e-22
1.91327e-22
1.52878e-22
1.65617e-22
5.57129e-24
8.44173e-25
6.53957e-25
7.52159e-25
1.31906e-26
3.75552e-27
2.80653e-27
3.3428e-27
1.77686e-29
1.65451e-29
1.18792e-29
1.43837e-29
8.02385e-32
7.1732e-32
4.91122e-32
6.02025e-32
3.5865e-34
3.04553e-34
1.96225e-34
2.49515e-34
1.57632e-36
1.19826e-36
8.10813e-37
1.01318e-36
5.98623e-39
8.10172e-42
1.7196e-39
6.29267e-44
2.12355e-41
4.14888e-43
4.53885e-42
6.45358e-45
7.23203e-44
6.84283e-45
1.46712e-44
4.07247e-47
2.40929e-46
3.58956e-47
5.35542e-47
2.94029e-47
7.83676e-49
1.47024e-49
2.05928e-49
1.99663e-49
2.46998e-51
4.59789e-52
7.9442e-52
9.8655e-52
7.49262e-54
1.24204e-54
3.04059e-54
4.45878e-54
2.17886e-56
2.62538e-57
1.15498e-56
1.91925e-56
6.15339e-59
2.49833e-60
4.34267e-59
8.00415e-59
8.25366e-61
1.12813e-63
1.66005e-61
3.09515e-61
4.22974e-62
4.48028e-66
6.64781e-64
1.19236e-63
5.55949e-64
1.79765e-68
2.69411e-66
4.62348e-66
3.2946e-66
7.26534e-71
1.09491e-68
1.82182e-68
1.37544e-68
2.94009e-73
4.44996e-71
7.25664e-71
5.89262e-71
1.06219e-75
1.7932e-73
2.93766e-73
2.53866e-73
4.15178e-78
6.48987e-76
1.05833e-75
9.1751e-76
1.61188e-80
2.51447e-78
4.205e-78
3.6823e-78
6.13002e-83
9.6648e-81
1.65516e-80
1.47231e-80
2.26426e-85
3.63806e-83
6.37221e-83
5.75616e-83
8.04414e-88
1.3296e-85
2.3777e-85
2.18023e-85
2.73109e-90
4.69645e-88
8.42677e-88
7.86194e-88
8.77705e-93
1.58703e-90
2.83304e-90
2.68941e-90
2.64836e-95
5.01975e-93
8.99535e-93
8.70027e-93
7.42396e-98
1.4698e-95
2.67627e-95
2.63464e-95
1.91696e-100
3.99266e-98
7.36183e-98
7.36446e-98
4.51276e-103
1.00332e-100
1.83174e-100
1.86639e-100
9.59255e-106
2.29525e-103
4.12613e-103
4.27294e-103
1.82668e-108
4.73403e-106
8.43778e-106
8.81665e-106
3.09174e-111
8.77562e-109
1.55146e-108
1.62121e-108
3.72498e-114
1.4555e-111
2.53424e-111
2.67582e-111
4.5427e-117
1.55511e-114
2.21282e-114
1.63187e-114
4.69614e-120
2.12993e-117
3.11625e-117
2.08325e-117
4.05506e-123
2.10388e-120
3.09287e-120
2.24012e-120
3.01219e-126
1.74418e-123
2.58077e-123
1.94537e-123
1.9081e-129
1.27049e-126
1.87636e-126
1.43596e-126
1.10353e-132
7.96237e-130
1.18399e-129
9.0283e-130
2.56938e-134
4.6603e-133
6.78564e-133
4.74755e-133
1.39173e-136
2.21126e-136
3.28811e-136
2.21586e-136
1.7282e-139
1.22674e-139
1.34942e-139
8.53326e-140
1.05337e-142
5.92606e-143
4.69059e-143
2.64946e-143
3.93414e-146
1.88207e-146
1.26578e-146
6.40945e-147
4.53269e-149
2.35551e-149
1.24641e-149
5.42496e-150
1.09364e-152
4.56912e-153
2.80195e-153
9.56229e-154
7.37559e-157
2.02461e-157
2.55735e-157
6.58745e-158
9.24513e-162
1.41309e-162
9.17809e-162
1.3014e-162
)
;

boundaryField
{
    topWall
    {
        type            zeroGradient;
    }
    botWall
    {
        type            zeroGradient;
    }
    inlet
    {
        type            cyclic;
    }
    outlet
    {
        type            cyclic;
    }
    fixWall
    {
        type            empty;
    }
}


// ************************************************************************* //
