/*--------------------------------*- C++ -*----------------------------------*\
  =========                 |
  \\      /  F ield         | OpenFOAM: The Open Source CFD Toolbox
   \\    /   O peration     | Website:  https://openfoam.org
    \\  /    A nd           | Version:  dev
     \\/     M anipulation  |

   OpenFOAM for Windows 20.09 (v1)
   Built by CFD Support, www.cfdsupport.com (based on Symscape).
\*---------------------------------------------------------------------------*/
FoamFile
{
    version     2.0;
    format      ascii;
    class       volSymmTensorField;
    location    "6";
    object      devReff;
}
// * * * * * * * * * * * * * * * * * * * * * * * * * * * * * * * * * * * * * //

dimensions      [0 2 -2 0 0 0 0];

internalField   nonuniform List<symmTensor> 
960
(
(-3.42329e-07 -0.00092058 0 7.52258e-07 0 -4.0993e-07)
(-3.01031e-08 -0.000917793 0 4.96923e-08 0 -1.95892e-08)
(-6.95917e-08 -0.000918218 0 4.47688e-08 0 2.48229e-08)
(-4.96818e-08 -0.00092408 0 6.88632e-08 0 -1.91813e-08)
(2.76535e-07 -0.000828361 0 -5.15584e-07 0 2.39049e-07)
(1.05269e-07 -0.000826259 0 -1.21272e-07 0 1.60028e-08)
(-1.03536e-07 -0.00082329 0 9.15245e-08 0 1.20114e-08)
(-8.70364e-08 -0.000827599 0 1.08515e-07 0 -2.14784e-08)
(-1.72877e-07 -0.000737833 0 3.65848e-07 0 -1.92971e-07)
(1.93701e-07 -0.000736293 0 -2.28872e-07 0 3.51709e-08)
(-1.27786e-07 -0.000734591 0 1.16632e-07 0 1.11542e-08)
(-9.6207e-08 -0.000737318 0 1.22021e-07 0 -2.58141e-08)
(2.23639e-07 -0.00065405 0 -4.57859e-07 0 2.3422e-07)
(2.36548e-07 -0.000653459 0 -2.75833e-07 0 3.92855e-08)
(-1.36986e-07 -0.00065247 0 1.24169e-07 0 1.28169e-08)
(-7.56342e-08 -0.000653864 0 1.02003e-07 0 -2.63688e-08)
(-1.44056e-07 -0.000577038 0 2.40396e-07 0 -9.63402e-08)
(2.45829e-07 -0.000577002 0 -2.80626e-07 0 3.47965e-08)
(-1.41036e-07 -0.00057655 0 1.29744e-07 0 1.12921e-08)
(-4.51179e-08 -0.000577175 0 7.10493e-08 0 -2.59313e-08)
(-1.31029e-07 -0.000506669 0 1.88203e-07 0 -5.7174e-08)
(2.47398e-07 -0.00050688 0 -2.81555e-07 0 3.41571e-08)
(-1.42219e-07 -0.000506841 0 1.29115e-07 0 1.31039e-08)
(-1.67919e-08 -0.000507079 0 4.23042e-08 0 -2.55123e-08)
(-1.59495e-07 -0.000442659 0 2.28784e-07 0 -6.92896e-08)
(2.37226e-07 -0.000443083 0 -2.69545e-07 0 3.23194e-08)
(-1.46783e-07 -0.000443312 0 1.34786e-07 0 1.19968e-08)
(5.53756e-09 -0.000443378 0 1.9983e-08 0 -2.55206e-08)
(-1.56911e-07 -0.000384768 0 2.16535e-07 0 -5.96241e-08)
(2.2204e-07 -0.000385453 0 -2.5308e-07 0 3.104e-08)
(-1.50699e-07 -0.00038577 0 1.36588e-07 0 1.41106e-08)
(1.88898e-08 -0.00038577 0 6.74655e-09 0 -2.56364e-08)
(-1.42725e-07 -0.000332687 0 1.84232e-07 0 -4.1507e-08)
(2.0045e-07 -0.000333547 0 -2.29972e-07 0 2.95216e-08)
(-1.57047e-07 -0.000333957 0 1.45046e-07 0 1.20017e-08)
(2.47492e-08 -0.000333995 0 3.65785e-10 0 -2.5115e-08)
(-1.65998e-07 -0.000286158 0 2.37919e-07 0 -7.19206e-08)
(1.73211e-07 -0.000287165 0 -1.98465e-07 0 2.52541e-08)
(-1.63897e-07 -0.000287559 0 1.48498e-07 0 1.53988e-08)
(1.84084e-08 -0.000287654 0 7.46791e-09 0 -2.58763e-08)
(-1.17262e-07 -0.000244834 0 1.47929e-07 0 -3.06676e-08)
(1.54931e-07 -0.000245817 0 -1.86372e-07 0 3.14405e-08)
(-1.73638e-07 -0.000246274 0 1.62355e-07 0 1.12831e-08)
(5.25636e-09 -0.000246473 0 1.96038e-08 0 -2.48601e-08)
(-1.26021e-07 -0.000208356 0 1.91445e-07 0 -6.54244e-08)
(1.31715e-07 -0.000209297 0 -1.64306e-07 0 3.25907e-08)
(-1.85278e-07 -0.00020976 0 1.69991e-07 0 1.52874e-08)
(-3.25138e-08 -0.000209972 0 6.96934e-08 0 -3.71797e-08)
(-6.33814e-08 -0.000176404 0 9.00014e-08 0 -2.66201e-08)
(1.08243e-07 -0.000177022 0 -1.40681e-07 0 3.24376e-08)
(-1.93232e-07 -0.000177542 0 1.79647e-07 0 1.35851e-08)
(-5.6445e-08 -0.000177896 0 8.6679e-08 0 -3.0234e-08)
(-5.17154e-08 -0.00014872 0 1.14209e-07 0 -6.24936e-08)
(8.21721e-08 -0.000148778 0 -1.04078e-07 0 2.19059e-08)
(-2.14906e-07 -0.000149267 0 2.00863e-07 0 1.40434e-08)
(-8.18867e-08 -0.000149767 0 9.31357e-08 0 -1.12491e-08)
(2.80936e-08 -0.000124873 0 2.10534e-09 0 -3.0199e-08)
(6.14323e-08 -0.000124259 0 -6.62526e-08 0 4.82024e-09)
(-2.24043e-07 -0.000124728 0 2.09066e-07 0 1.49768e-08)
(-1.39039e-07 -0.000125425 0 1.59251e-07 0 -2.02117e-08)
(8.83423e-08 -0.000103757 0 -4.4763e-08 0 -4.35793e-08)
(7.07948e-08 -0.000103725 0 -7.75089e-08 0 6.71411e-09)
(-2.56125e-07 -0.000103929 0 2.45347e-07 0 1.07782e-08)
(-1.84915e-07 -0.000104501 0 1.89057e-07 0 -4.14207e-09)
(1.24644e-07 -8.55386e-05 0 -1.00087e-07 0 -2.45562e-08)
(6.34065e-08 -8.63125e-05 0 -7.69942e-08 0 1.35876e-08)
(-2.47118e-07 -8.61916e-05 0 2.30313e-07 0 1.68051e-08)
(-2.41197e-07 -8.66665e-05 0 2.59888e-07 0 -1.86913e-08)
(1.52555e-07 -7.05622e-05 0 -1.23848e-07 0 -2.87077e-08)
(5.95865e-08 -7.11427e-05 0 -7.79392e-08 0 1.83527e-08)
(-2.6589e-07 -7.08755e-05 0 2.54189e-07 0 1.17006e-08)
(-2.9965e-07 -7.16722e-05 0 3.29072e-07 0 -2.94215e-08)
(1.74636e-07 -5.79734e-05 0 -1.54238e-07 0 -2.03978e-08)
(6.61612e-08 -5.83667e-05 0 -9.40712e-08 0 2.79101e-08)
(-2.6597e-07 -5.79038e-05 0 2.51561e-07 0 1.44096e-08)
(-3.39098e-07 -5.88866e-05 0 3.64643e-07 0 -2.55455e-08)
(1.8949e-07 -4.74813e-05 0 -1.59403e-07 0 -3.00867e-08)
(5.66065e-08 -4.76339e-05 0 -7.07984e-08 0 1.41919e-08)
(-2.77413e-07 -4.70361e-05 0 2.61242e-07 0 1.61715e-08)
(-3.78801e-07 -4.81913e-05 0 3.99425e-07 0 -2.0624e-08)
(2.0511e-07 -3.87726e-05 0 -1.82939e-07 0 -2.21711e-08)
(6.24407e-08 -3.87299e-05 0 -7.29625e-08 0 1.05218e-08)
(-2.84353e-07 -3.79572e-05 0 2.71159e-07 0 1.31938e-08)
(-4.17739e-07 -3.91591e-05 0 4.36729e-07 0 -1.89896e-08)
(2.15405e-07 -3.16111e-05 0 -1.87945e-07 0 -2.74597e-08)
(8.14791e-08 -3.1359e-05 0 -9.45538e-08 0 1.30748e-08)
(-2.89853e-07 -3.04579e-05 0 2.73372e-07 0 1.64803e-08)
(-4.58946e-07 -3.16931e-05 0 4.80331e-07 0 -2.13856e-08)
(2.244e-07 -2.57505e-05 0 -2.0467e-07 0 -1.97302e-08)
(1.00849e-07 -2.54029e-05 0 -1.12566e-07 0 1.17173e-08)
(-2.93345e-07 -2.43309e-05 0 2.7965e-07 0 1.36947e-08)
(-4.92547e-07 -2.54973e-05 0 5.11883e-07 0 -1.93356e-08)
(2.24037e-07 -2.09836e-05 0 -1.98732e-07 0 -2.53054e-08)
(1.26361e-07 -2.05476e-05 0 -1.38261e-07 0 1.19e-08)
(-2.91029e-07 -1.9367e-05 0 2.74365e-07 0 1.66641e-08)
(-5.26948e-07 -2.04817e-05 0 5.48681e-07 0 -2.1733e-08)
(2.26641e-07 -1.71334e-05 0 -2.10151e-07 0 -1.64903e-08)
(1.49389e-07 -1.67199e-05 0 -1.57079e-07 0 7.68995e-09)
(-2.90193e-07 -1.54393e-05 0 2.77416e-07 0 1.27764e-08)
(-5.53157e-07 -1.64323e-05 0 5.704e-07 0 -1.72432e-08)
(2.12846e-07 -1.40628e-05 0 -1.8749e-07 0 -2.53568e-08)
(1.82133e-07 -1.36901e-05 0 -1.94711e-07 0 1.25785e-08)
(-2.76356e-07 -1.2473e-05 0 2.56616e-07 0 1.97409e-08)
(-5.85048e-07 -1.34158e-05 0 6.08837e-07 0 -2.37889e-08)
(2.08233e-07 -1.16207e-05 0 -1.90959e-07 0 -1.72736e-08)
(2.21162e-07 -1.14273e-05 0 -2.4908e-07 0 2.79182e-08)
(-2.8131e-07 -1.03766e-05 0 2.70898e-07 0 1.0412e-08)
(-6.1967e-07 -1.11226e-05 0 6.53056e-07 0 -3.33854e-08)
(1.95261e-07 -9.64027e-06 0 -1.79665e-07 0 -1.55964e-08)
(2.33896e-07 -9.72406e-06 0 -2.58319e-07 0 2.44223e-08)
(-2.69287e-07 -9.24427e-06 0 2.54842e-07 0 1.44451e-08)
(-6.29878e-07 -9.83243e-06 0 6.58085e-07 0 -2.8207e-08)
(1.73309e-07 -8.04958e-06 0 -1.54439e-07 0 -1.88693e-08)
(2.04583e-07 -8.53803e-06 0 -2.0439e-07 0 -1.92819e-10)
(-2.75314e-07 -8.92481e-06 0 2.57609e-07 0 1.77042e-08)
(-6.26699e-07 -9.09917e-06 0 6.42758e-07 0 -1.60584e-08)
(1.56857e-07 -6.14746e-06 0 -1.42003e-07 0 -1.48535e-08)
(1.65999e-07 -7.90274e-06 0 -1.53476e-07 0 -1.25232e-08)
(-2.97488e-07 -9.3725e-06 0 2.94948e-07 0 2.54069e-09)
(-6.02549e-07 -8.11503e-06 0 6.04865e-07 0 -2.31639e-09)
(1.25466e-07 -5.54124e-06 0 -1.14347e-07 0 -1.11191e-08)
(8.25037e-08 -7.94178e-06 0 -6.95982e-08 0 -1.29055e-08)
(-2.79893e-07 -9.76851e-06 0 2.62223e-07 0 1.76708e-08)
(-5.58237e-07 -7.86482e-06 0 5.46868e-07 0 1.13694e-08)
(8.2381e-08 -6.87756e-06 0 -6.61895e-08 0 -1.61915e-08)
(2.41045e-08 -8.51558e-06 0 -1.25171e-08 0 -1.15874e-08)
(-2.94243e-07 -9.56277e-06 0 2.93671e-07 0 5.71256e-10)
(-5.26377e-07 -8.60155e-06 0 5.14993e-07 0 1.13832e-08)
(5.4031e-08 -8.48638e-06 0 -4.6061e-08 0 -7.96997e-09)
(1.86864e-08 -9.49736e-06 0 -3.34211e-08 0 1.47347e-08)
(-2.97065e-07 -9.59153e-06 0 2.96427e-07 0 6.37683e-10)
(-5.25321e-07 -9.25645e-06 0 5.23663e-07 0 1.65741e-09)
(1.86502e-08 -1.04483e-05 0 -9.1858e-09 0 -9.46437e-09)
(1.48084e-08 -1.0952e-05 0 -3.27202e-08 0 1.79119e-08)
(-2.82557e-07 -1.03813e-05 0 2.81173e-07 0 1.38444e-09)
(-5.20279e-07 -1.02913e-05 0 5.1997e-07 0 3.08226e-10)
(-1.09527e-08 -1.28277e-05 0 1.97706e-08 0 -8.81793e-09)
(5.95568e-09 -1.29567e-05 0 -7.73373e-09 0 1.77805e-09)
(-2.76344e-07 -1.20773e-05 0 2.79925e-07 0 -3.58179e-09)
(-5.14438e-07 -1.21515e-05 0 5.057e-07 0 8.738e-09)
(-3.56556e-08 -1.572e-05 0 4.28248e-08 0 -7.16914e-09)
(1.90376e-08 -1.56222e-05 0 -1.81871e-08 0 -8.50493e-10)
(-2.49224e-07 -1.45857e-05 0 2.44354e-07 0 4.87053e-09)
(-5.09051e-07 -1.45903e-05 0 4.96818e-07 0 1.22328e-08)
(-6.6178e-08 -1.92875e-05 0 7.95874e-08 0 -1.34094e-08)
(3.72234e-08 -1.90693e-05 0 -3.45048e-08 0 -2.71863e-09)
(-2.4093e-07 -1.80462e-05 0 2.46583e-07 0 -5.65221e-09)
(-5.14167e-07 -1.79295e-05 0 5.06559e-07 0 7.60776e-09)
(-7.44161e-08 -2.36256e-05 0 7.33746e-08 0 1.04153e-09)
(6.3409e-08 -2.34218e-05 0 -6.76317e-08 0 4.22268e-09)
(-2.02962e-07 -2.25189e-05 0 1.92971e-07 0 9.99095e-09)
(-4.98079e-07 -2.21358e-05 0 4.82368e-07 0 1.57108e-08)
(-1.21311e-07 -2.89701e-05 0 1.43967e-07 0 -2.26559e-08)
(7.03906e-08 -2.88207e-05 0 -6.60729e-08 0 -4.31766e-09)
(-2.03117e-07 -2.81349e-05 0 2.17034e-07 0 -1.39172e-08)
(-5.04784e-07 -2.74072e-05 0 5.06983e-07 0 -2.1994e-09)
(-1.20964e-07 -3.54299e-05 0 1.20123e-07 0 8.41029e-10)
(6.9743e-08 -3.53894e-05 0 -5.46222e-08 0 -1.51208e-08)
(-1.6638e-07 -3.50315e-05 0 1.70169e-07 0 -3.78917e-09)
(-4.8387e-07 -3.38464e-05 0 4.88769e-07 0 -4.89958e-09)
(-1.35977e-07 -4.32393e-05 0 1.27043e-07 0 8.9343e-09)
(1.10184e-07 -4.33053e-05 0 -1.34621e-07 0 2.4437e-08)
(-1.0947e-07 -4.33946e-05 0 8.44675e-08 0 2.50029e-08)
(-3.72412e-07 -4.16561e-05 0 2.98179e-07 0 7.42331e-08)
(-2.02914e-07 -5.25818e-05 0 2.37361e-07 0 -3.44469e-08)
(8.95762e-08 -5.27796e-05 0 -1.01703e-07 0 1.21268e-08)
(-1.15629e-07 -5.3405e-05 0 1.26951e-07 0 -1.13228e-08)
(-4.48625e-07 -5.10245e-05 0 5.01123e-07 0 -5.24975e-08)
(-1.75497e-07 -6.37556e-05 0 1.6182e-07 0 1.36775e-08)
(6.56722e-08 -6.39659e-05 0 -7.53491e-08 0 9.67691e-09)
(-5.74795e-08 -6.52616e-05 0 4.23126e-08 0 1.51669e-08)
(-2.99613e-07 -6.22007e-05 0 2.67807e-07 0 3.1806e-08)
(-2.21035e-07 -7.68953e-05 0 2.35013e-07 0 -1.39789e-08)
(4.0294e-08 -7.71271e-05 0 -5.57965e-08 0 1.55025e-08)
(-3.15261e-08 -7.92052e-05 0 2.08359e-08 0 1.06902e-08)
(-1.92087e-07 -7.54194e-05 0 1.41024e-07 0 5.10624e-08)
(-2.46994e-07 -9.22631e-05 0 2.76808e-07 0 -2.98145e-08)
(-7.85392e-08 -9.23934e-05 0 1.33742e-07 0 -5.5203e-08)
(-6.90994e-08 -9.5514e-05 0 1.25781e-07 0 -5.66814e-08)
(-2.46675e-07 -9.09661e-05 0 3.57638e-07 0 -1.10963e-07)
(-1.67108e-07 -0.000109969 0 1.18886e-07 0 4.82223e-08)
(-1.24635e-07 -0.000109981 0 1.632e-07 0 -3.8565e-08)
(9.25366e-09 -0.000112974 0 -9.9698e-09 0 7.16139e-10)
(1.13578e-07 -0.000108798 0 -2.29843e-07 0 1.16265e-07)
(-2.06555e-07 -0.000130709 0 1.97935e-07 0 8.62056e-09)
(-1.30232e-07 -0.000130659 0 1.34586e-07 0 -4.35421e-09)
(3.75459e-08 -0.000132454 0 -4.48866e-08 0 7.34073e-09)
(9.6558e-08 -0.000129367 0 -1.10722e-07 0 1.41643e-08)
(-2.13807e-07 -0.000154748 0 1.99672e-07 0 1.41352e-08)
(-1.65741e-07 -0.000154844 0 1.85072e-07 0 -1.93314e-08)
(3.66754e-08 -0.000155754 0 -1.85417e-08 0 -1.81337e-08)
(1.19555e-07 -0.00015331 0 -8.88291e-08 0 -3.07263e-08)
(-2.10037e-07 -0.000182296 0 1.76161e-07 0 3.3876e-08)
(-1.48065e-07 -0.000182456 0 1.34432e-07 0 1.36326e-08)
(1.1586e-07 -0.000182688 0 -1.47318e-07 0 3.1458e-08)
(2.91931e-07 -0.000180748 0 -3.87578e-07 0 9.56466e-08)
(-2.65323e-07 -0.000213456 0 2.60257e-07 0 5.06674e-09)
(-1.64597e-07 -0.000213831 0 1.67667e-07 0 -3.0697e-09)
(1.10096e-07 -0.0002135 0 -1.05362e-07 0 -4.73403e-09)
(1.9527e-07 -0.000211905 0 -1.56073e-07 0 -3.91976e-08)
(-2.84496e-07 -0.00024877 0 2.72854e-07 0 1.16425e-08)
(-1.96852e-07 -0.000249192 0 2.28502e-07 0 -3.16496e-08)
(1.31244e-07 -0.000248491 0 -1.10964e-07 0 -2.02802e-08)
(2.81161e-07 -0.000247118 0 -3.0146e-07 0 2.02984e-08)
(-2.98692e-07 -0.000288124 0 2.66453e-07 0 3.22388e-08)
(-1.64254e-07 -0.000288977 0 1.74305e-07 0 -1.00516e-08)
(1.953e-07 -0.000287952 0 -2.0377e-07 0 8.47035e-09)
(3.13788e-07 -0.000286618 0 -3.42361e-07 0 2.85726e-08)
(-3.50252e-07 -0.000332343 0 3.36114e-07 0 1.41386e-08)
(-1.74461e-07 -0.000333348 0 1.8767e-07 0 -1.32084e-08)
(2.26406e-07 -0.000332152 0 -2.19935e-07 0 -6.471e-09)
(3.17889e-07 -0.000330775 0 -3.29326e-07 0 1.1437e-08)
(-3.93763e-07 -0.000380982 0 3.79004e-07 0 1.47585e-08)
(-1.61512e-07 -0.000382679 0 1.7341e-07 0 -1.18987e-08)
(2.75064e-07 -0.000381347 0 -2.74939e-07 0 -1.24991e-10)
(3.55983e-07 -0.000379795 0 -3.83738e-07 0 2.77553e-08)
(-4.23897e-07 -0.000435005 0 3.98906e-07 0 2.49911e-08)
(-1.00286e-07 -0.000437002 0 2.55697e-08 0 7.47162e-08)
(3.78608e-07 -0.00043575 0 -4.25763e-07 0 4.7155e-08)
(3.7681e-07 -0.000434017 0 -3.99807e-07 0 2.29979e-08)
(-5.13971e-07 -0.000493918 0 5.31861e-07 0 -1.78903e-08)
(-3.48598e-07 -0.00049665 0 5.2119e-07 0 -1.72592e-07)
(2.83363e-07 -0.000495498 0 -1.8977e-07 0 -9.35935e-08)
(3.77652e-07 -0.000493571 0 -3.7612e-07 0 -1.5317e-09)
(-4.54285e-07 -0.000558602 0 3.76816e-07 0 7.7469e-08)
(-3.61583e-07 -0.000561504 0 4.93879e-07 0 -1.32296e-07)
(3.26698e-07 -0.000560834 0 -2.17363e-07 0 -1.09335e-07)
(3.13246e-07 -0.000558971 0 -2.17499e-07 0 -9.57462e-08)
(-6.88297e-07 -0.000628576 0 8.25199e-07 0 -1.36902e-07)
(-3.50944e-08 -0.000631557 0 -1.81089e-07 0 2.16184e-07)
(6.68245e-07 -0.00063152 0 -8.73082e-07 0 2.04837e-07)
(6.49059e-07 -0.000630155 0 -8.69567e-07 0 2.20508e-07)
(-7.32916e-07 -0.0007102 0 9.3519e-07 0 -2.02275e-07)
(-7.35228e-07 -0.000710758 0 1.14191e-06 0 -4.06685e-07)
(3.81683e-07 -0.000710936 0 -2.78864e-07 0 -1.02819e-07)
(4.64954e-07 -0.000710753 0 -4.93732e-07 0 2.87777e-08)
(-3.81568e-07 -0.00109877 0 2.80437e-07 0 1.01131e-07)
(-2.50426e-07 -0.00109012 0 2.23831e-07 0 2.65949e-08)
(3.69597e-07 -0.00109108 0 -2.74666e-07 0 -9.49317e-08)
(3.00298e-07 -0.00109863 0 -1.66369e-07 0 -1.3393e-07)
(5.9672e-08 -0.000921099 0 -7.66224e-08 0 1.69503e-08)
(-1.57279e-08 -0.000919387 0 2.76461e-08 0 -1.19183e-08)
(-6.23146e-09 -0.000922067 0 -3.44551e-09 0 9.67697e-09)
(3.64108e-08 -0.000920921 0 -2.79976e-08 0 -8.41323e-09)
(1.31082e-07 -0.000824488 0 -1.48483e-07 0 1.74011e-08)
(-4.20173e-08 -0.000823436 0 5.55932e-08 0 -1.35759e-08)
(-3.006e-08 -0.000825934 0 2.44999e-08 0 5.56009e-09)
(3.08541e-08 -0.000824839 0 -5.69749e-08 0 2.61208e-08)
(2.03584e-07 -0.000734104 0 -2.2575e-07 0 2.21659e-08)
(-6.8503e-08 -0.000733345 0 8.49783e-08 0 -1.64753e-08)
(-5.60026e-08 -0.000735283 0 4.94328e-08 0 6.56982e-09)
(-6.77772e-09 -0.00073484 0 -2.25542e-08 0 2.93319e-08)
(2.67322e-07 -0.000650938 0 -2.88674e-07 0 2.13519e-08)
(-8.31665e-08 -0.000650276 0 9.86278e-08 0 -1.54613e-08)
(-7.88369e-08 -0.000651578 0 7.20876e-08 0 6.74925e-09)
(-4.83372e-08 -0.000651422 0 1.63829e-08 0 3.19544e-08)
(3.23168e-07 -0.000574817 0 -3.45545e-07 0 2.2377e-08)
(-9.00367e-08 -0.000574176 0 1.06768e-07 0 -1.6731e-08)
(-9.36134e-08 -0.000575069 0 8.64796e-08 0 7.13374e-09)
(-8.99904e-08 -0.000575105 0 6.144e-08 0 2.85504e-08)
(3.66189e-07 -0.000505342 0 -3.86817e-07 0 2.06278e-08)
(-9.1423e-08 -0.000504689 0 1.06791e-07 0 -1.53682e-08)
(-1.09393e-07 -0.000505412 0 1.02403e-07 0 6.99059e-09)
(-1.17243e-07 -0.000505599 0 8.85793e-08 0 2.86636e-08)
(4.01734e-07 -0.000442247 0 -4.23499e-07 0 2.17651e-08)
(-9.17895e-08 -0.000441592 0 1.07987e-07 0 -1.61971e-08)
(-1.23649e-07 -0.000442232 0 1.16314e-07 0 7.33493e-09)
(-1.33519e-07 -0.000442379 0 1.06667e-07 0 2.68528e-08)
(4.25219e-07 -0.000385216 0 -4.45998e-07 0 2.07792e-08)
(-9.07987e-08 -0.000384576 0 1.06129e-07 0 -1.53302e-08)
(-1.33652e-07 -0.000385175 0 1.2496e-07 0 8.69168e-09)
(-1.35119e-07 -0.000385113 0 1.10181e-07 0 2.49383e-08)
(4.39934e-07 -0.000333976 0 -4.60901e-07 0 2.09663e-08)
(-9.01036e-08 -0.000333361 0 1.06076e-07 0 -1.59726e-08)
(-1.42131e-07 -0.000333943 0 1.35561e-07 0 6.56956e-09)
(-1.22568e-07 -0.00033364 0 9.8473e-08 0 2.40946e-08)
(4.4656e-07 -0.000288163 0 -4.6849e-07 0 2.193e-08)
(-9.06728e-08 -0.000287589 0 1.07088e-07 0 -1.64149e-08)
(-1.38896e-07 -0.000288143 0 1.26536e-07 0 1.23601e-08)
(-9.75862e-08 -0.000287593 0 7.71887e-08 0 2.03976e-08)
(4.39549e-07 -0.000247475 0 -4.59108e-07 0 1.95588e-08)
(-8.77353e-08 -0.000246899 0 1.02147e-07 0 -1.44115e-08)
(-1.437e-07 -0.000247444 0 1.38925e-07 0 4.77478e-09)
(-5.63416e-08 -0.000246815 0 3.23997e-08 0 2.39419e-08)
(4.31734e-07 -0.000211463 0 -4.54363e-07 0 2.26288e-08)
(-9.33695e-08 -0.00021094 0 1.13673e-07 0 -2.03034e-08)
(-1.29692e-07 -0.000211435 0 1.1144e-07 0 1.82519e-08)
(3.93162e-09 -0.000210781 0 -3.85872e-08 0 3.46555e-08)
(4.08109e-07 -0.000179815 0 -4.29988e-07 0 2.18794e-08)
(-8.53742e-08 -0.000179461 0 9.85631e-08 0 -1.31889e-08)
(-1.25022e-07 -0.000179791 0 1.07392e-07 0 1.76293e-08)
(6.96287e-08 -0.000179155 0 -1.16666e-07 0 4.70377e-08)
(3.76246e-07 -0.000152061 0 -3.97182e-07 0 2.09369e-08)
(-8.42835e-08 -0.000151953 0 9.6557e-08 0 -1.22736e-08)
(-1.41719e-07 -0.000152072 0 1.463e-07 0 -4.58158e-09)
(8.77188e-08 -0.000151618 0 -9.30564e-08 0 5.33757e-09)
(3.26492e-07 -0.000128049 0 -3.41415e-07 0 1.49227e-08)
(-8.7281e-08 -0.000128083 0 1.02282e-07 0 -1.50012e-08)
(-1.2103e-07 -0.000127994 0 1.11218e-07 0 9.81219e-09)
(1.12691e-07 -0.000127885 0 -9.08874e-08 0 -2.1804e-08)
(2.76875e-07 -0.000107058 0 -2.89e-07 0 1.21253e-08)
(-7.62837e-08 -0.0001072 0 8.26777e-08 0 -6.39396e-09)
(-1.25089e-07 -0.000107104 0 1.20411e-07 0 4.67839e-09)
(1.71323e-07 -0.000106442 0 -1.56063e-07 0 -1.52598e-08)
(2.32688e-07 -8.8895e-05 0 -2.45847e-07 0 1.31583e-08)
(-8.58591e-08 -8.90423e-05 0 9.8211e-08 0 -1.23519e-08)
(-9.60641e-08 -8.91495e-05 0 8.73213e-08 0 8.74278e-09)
(2.23988e-07 -8.77868e-05 0 -2.01782e-07 0 -2.22062e-08)
(1.95394e-07 -7.36296e-05 0 -2.07455e-07 0 1.20604e-08)
(-9.36726e-08 -7.36054e-05 0 1.09295e-07 0 -1.56222e-08)
(-6.23296e-08 -7.38177e-05 0 3.76523e-08 0 2.46773e-08)
(3.18457e-07 -7.25119e-05 0 -3.29868e-07 0 1.14116e-08)
(1.67946e-07 -6.05678e-05 0 -1.83117e-07 0 1.51713e-08)
(-9.19253e-08 -6.04708e-05 0 1.04412e-07 0 -1.24862e-08)
(-4.57826e-08 -6.07365e-05 0 2.41367e-08 0 2.16459e-08)
(3.88679e-07 -5.95139e-05 0 -4.22619e-07 0 3.39392e-08)
(1.46786e-07 -4.96212e-05 0 -1.65458e-07 0 1.86722e-08)
(-9.79018e-08 -4.94539e-05 0 1.12514e-07 0 -1.46122e-08)
(-3.5202e-08 -4.96858e-05 0 1.62987e-08 0 1.89034e-08)
(3.99416e-07 -4.85997e-05 0 -3.99781e-07 0 3.64336e-10)
(1.19352e-07 -4.03708e-05 0 -1.30504e-07 0 1.11522e-08)
(-9.4424e-08 -4.02031e-05 0 1.07679e-07 0 -1.32546e-08)
(-2.32607e-08 -4.03775e-05 0 8.58724e-09 0 1.46734e-08)
(4.26017e-07 -3.94305e-05 0 -4.24034e-07 0 -1.98286e-09)
(1.06626e-07 -3.27283e-05 0 -1.22522e-07 0 1.58961e-08)
(-9.58571e-08 -3.25545e-05 0 1.08656e-07 0 -1.27986e-08)
(-9.88134e-09 -3.26443e-05 0 -7.49902e-09 0 1.73804e-08)
(4.5329e-07 -3.18676e-05 0 -4.54365e-07 0 1.07541e-09)
(9.02076e-08 -2.64009e-05 0 -1.03569e-07 0 1.33614e-08)
(-9.1348e-08 -2.62098e-05 0 1.04805e-07 0 -1.34569e-08)
(2.6591e-09 -2.62105e-05 0 -1.92551e-08 0 1.6596e-08)
(4.59622e-07 -2.56038e-05 0 -4.57273e-07 0 -2.34922e-09)
(8.00856e-08 -2.12935e-05 0 -9.5916e-08 0 1.58304e-08)
(-8.99619e-08 -2.10617e-05 0 1.0372e-07 0 -1.3758e-08)
(9.4167e-09 -2.09667e-05 0 -2.47378e-08 0 1.53211e-08)
(4.66745e-07 -2.05258e-05 0 -4.66533e-07 0 -2.12628e-10)
(7.13847e-08 -1.71708e-05 0 -8.80229e-08 0 1.66382e-08)
(-7.81666e-08 -1.68584e-05 0 8.98593e-08 0 -1.16927e-08)
(2.37865e-08 -1.66715e-05 0 -4.24818e-08 0 1.86952e-08)
(4.58395e-07 -1.6397e-05 0 -4.56101e-07 0 -2.29421e-09)
(5.79799e-08 -1.40399e-05 0 -6.87537e-08 0 1.07738e-08)
(-7.56452e-08 -1.3532e-05 0 9.22711e-08 0 -1.66259e-08)
(2.52908e-08 -1.32563e-05 0 -3.98935e-08 0 1.46027e-08)
(4.43762e-07 -1.31744e-05 0 -4.36801e-07 0 -6.96161e-09)
(5.63424e-08 -1.16505e-05 0 -6.46953e-08 0 8.35282e-09)
(-5.28921e-08 -1.09502e-05 0 6.59733e-08 0 -1.30812e-08)
(3.72837e-08 -1.05042e-05 0 -5.63414e-08 0 1.90576e-08)
(4.38994e-07 -1.06225e-05 0 -4.45136e-07 0 6.1416e-09)
(6.12966e-08 -1.00438e-05 0 -7.25817e-08 0 1.12852e-08)
(-3.47833e-08 -8.99301e-06 0 4.93044e-08 0 -1.45211e-08)
(4.66027e-08 -8.39734e-06 0 -7.0342e-08 0 2.37393e-08)
(4.17034e-07 -8.74169e-06 0 -4.21608e-07 0 4.57414e-09)
(9.92689e-08 -8.95646e-06 0 -1.25542e-07 0 2.62732e-08)
(-1.73395e-10 -7.63234e-06 0 1.59394e-08 0 -1.5766e-08)
(3.63807e-08 -6.75649e-06 0 -4.49173e-08 0 8.53658e-09)
(3.78328e-07 -7.38306e-06 0 -3.66385e-07 0 -1.19439e-08)
(1.16372e-07 -8.22274e-06 0 -1.36867e-07 0 2.0495e-08)
(4.75848e-08 -7.54145e-06 0 -4.15893e-08 0 -5.99552e-09)
(4.55532e-08 -6.10693e-06 0 -5.86643e-08 0 1.31112e-08)
(3.68219e-07 -6.25625e-06 0 -3.68308e-07 0 8.93889e-11)
(9.91248e-08 -7.98073e-06 0 -1.09246e-07 0 1.01208e-08)
(8.85467e-08 -7.6954e-06 0 -9.05194e-08 0 1.97273e-09)
(6.66241e-08 -6.01574e-06 0 -6.12729e-08 0 -5.35119e-09)
(3.73098e-07 -5.77106e-06 0 -3.58572e-07 0 -1.4526e-08)
(8.45745e-08 -8.37535e-06 0 -7.08025e-08 0 -1.3772e-08)
(1.31484e-07 -7.78966e-06 0 -1.43463e-07 0 1.19797e-08)
(9.08271e-08 -6.42532e-06 0 -8.37593e-08 0 -7.06785e-09)
(3.80858e-07 -6.30265e-06 0 -3.79152e-07 0 -1.70606e-09)
(9.30274e-08 -9.17244e-06 0 -7.32172e-08 0 -1.98102e-08)
(1.6513e-07 -8.7295e-06 0 -1.78335e-07 0 1.32048e-08)
(1.18431e-07 -7.67153e-06 0 -1.13998e-07 0 -4.43297e-09)
(3.85203e-07 -7.40967e-06 0 -3.99304e-07 0 1.41014e-08)
(8.87892e-08 -1.03694e-05 0 -6.49363e-08 0 -2.3853e-08)
(1.79739e-07 -1.0229e-05 0 -1.89641e-07 0 9.90208e-09)
(1.41216e-07 -9.35318e-06 0 -1.39248e-07 0 -1.96837e-09)
(3.63539e-07 -9.05471e-06 0 -3.73225e-07 0 9.68564e-09)
(9.89565e-08 -1.2205e-05 0 -8.6309e-08 0 -1.26475e-08)
(2.00707e-07 -1.22792e-05 0 -2.15401e-07 0 1.46939e-08)
(1.58921e-07 -1.15818e-05 0 -1.54549e-07 0 -4.3717e-09)
(3.44939e-07 -1.12859e-05 0 -3.56893e-07 0 1.19534e-08)
(9.37027e-08 -1.4656e-05 0 -8.23517e-08 0 -1.13509e-08)
(2.02586e-07 -1.50162e-05 0 -2.14408e-07 0 1.18217e-08)
(1.70363e-07 -1.44094e-05 0 -1.63199e-07 0 -7.16443e-09)
(3.15053e-07 -1.41306e-05 0 -3.19475e-07 0 4.42165e-09)
(7.72957e-08 -1.79384e-05 0 -6.0572e-08 0 -1.67237e-08)
(2.05798e-07 -1.85456e-05 0 -2.17312e-07 0 1.15139e-08)
(1.8974e-07 -1.79616e-05 0 -1.85453e-07 0 -4.28719e-09)
(2.88561e-07 -1.76873e-05 0 -2.89573e-07 0 1.01219e-09)
(7.44496e-08 -2.20661e-05 0 -6.77766e-08 0 -6.673e-09)
(2.05604e-07 -2.2954e-05 0 -2.21233e-07 0 1.56292e-08)
(2.00842e-07 -2.23656e-05 0 -1.94396e-07 0 -6.44587e-09)
(2.79053e-07 -2.20716e-05 0 -2.93476e-07 0 1.44238e-08)
(3.86211e-08 -2.72176e-05 0 -1.39291e-08 0 -2.4692e-08)
(1.91606e-07 -2.84019e-05 0 -1.99047e-07 0 7.44079e-09)
(2.18644e-07 -2.7746e-05 0 -2.12746e-07 0 -5.89809e-09)
(2.31193e-07 -2.74561e-05 0 -2.18675e-07 0 -1.2518e-08)
(3.09239e-08 -3.34869e-05 0 -1.73082e-08 0 -1.36157e-08)
(1.79997e-07 -3.49945e-05 0 -1.87826e-07 0 7.82934e-09)
(2.36677e-07 -3.42861e-05 0 -2.33497e-07 0 -3.17979e-09)
(2.47871e-07 -3.40256e-05 0 -2.73804e-07 0 2.59327e-08)
(4.90477e-08 -4.10468e-05 0 -7.64866e-08 0 2.74389e-08)
(1.93966e-07 -4.29251e-05 0 -2.30741e-07 0 3.67743e-08)
(2.59571e-07 -4.21123e-05 0 -2.61366e-07 0 1.79549e-09)
(2.31439e-07 -4.19288e-05 0 -2.59172e-07 0 2.77328e-08)
(-7.22075e-08 -5.00891e-05 0 1.43242e-07 0 -7.10342e-08)
(1.18831e-07 -5.23307e-05 0 -1.01367e-07 0 -1.7464e-08)
(2.38192e-07 -5.15046e-05 0 -2.02437e-07 0 -3.57544e-08)
(1.17059e-07 -5.14719e-05 0 -5.17359e-08 0 -6.53233e-08)
(-8.66289e-09 -6.08206e-05 0 -8.04238e-09 0 1.67053e-08)
(1.26147e-07 -6.33989e-05 0 -1.42751e-07 0 1.66041e-08)
(2.82545e-07 -6.25355e-05 0 -2.779e-07 0 -4.64445e-09)
(2.16257e-07 -6.28268e-05 0 -2.66632e-07 0 5.03755e-08)
(-4.11182e-08 -7.34808e-05 0 3.78371e-08 0 3.28103e-09)
(1.10678e-07 -7.62884e-05 0 -1.42784e-07 0 3.21057e-08)
(2.92352e-07 -7.55286e-05 0 -2.91034e-07 0 -1.31876e-09)
(1.22382e-07 -7.63027e-05 0 -1.04979e-07 0 -1.74032e-08)
(-1.6252e-07 -8.84521e-05 0 2.67324e-07 0 -1.04804e-07)
(1.46633e-08 -9.17143e-05 0 1.14267e-08 0 -2.60899e-08)
(2.68352e-07 -9.09997e-05 0 -2.4939e-07 0 -1.89616e-08)
(6.51299e-08 -9.21572e-05 0 -1.19651e-08 0 -5.31649e-08)
(1.53559e-08 -0.000106584 0 -1.0324e-07 0 8.78838e-08)
(5.61552e-08 -0.00010997 0 -1.19316e-07 0 6.31612e-08)
(3.27733e-07 -0.000109239 0 -3.76145e-07 0 4.84117e-08)
(2.13753e-07 -0.000110051 0 -3.31744e-07 0 1.1799e-07)
(-1.513e-07 -0.000128011 0 2.02663e-07 0 -5.13636e-08)
(-3.86079e-08 -0.000130969 0 2.88297e-08 0 9.77819e-09)
(2.71661e-07 -0.000130128 0 -2.58416e-07 0 -1.32455e-08)
(3.6304e-08 -0.000130288 0 1.92619e-08 0 -5.55659e-08)
(-1.63212e-07 -0.000152486 0 1.9732e-07 0 -3.41085e-08)
(-9.09651e-08 -0.000154971 0 1.03815e-07 0 -1.28496e-08)
(2.91124e-07 -0.000154064 0 -2.80013e-07 0 -1.11118e-08)
(3.71514e-08 -0.000153987 0 -5.9907e-11 0 -3.70915e-08)
(-1.19292e-07 -0.000180305 0 8.03706e-08 0 3.89214e-08)
(-7.31635e-08 -0.000182332 0 4.47208e-08 0 2.84427e-08)
(3.24709e-07 -0.000181479 0 -3.31692e-07 0 6.98387e-09)
(1.04214e-07 -0.000181184 0 -1.41409e-07 0 3.71952e-08)
(-2.51582e-07 -0.000211703 0 3.18297e-07 0 -6.67147e-08)
(-1.34537e-07 -0.00021339 0 1.51332e-07 0 -1.67943e-08)
(3.14006e-07 -0.00021263 0 -2.87584e-07 0 -2.64216e-08)
(-3.97757e-08 -0.000212262 0 1.24354e-07 0 -8.45787e-08)
(-2.10713e-07 -0.000247106 0 2.10946e-07 0 -2.32787e-10)
(-1.21701e-07 -0.000248442 0 1.10454e-07 0 1.12471e-08)
(3.69794e-07 -0.000247843 0 -3.84493e-07 0 1.46989e-08)
(4.78482e-08 -0.00024737 0 -5.84083e-08 0 1.05602e-08)
(-2.36018e-07 -0.000286717 0 2.40347e-07 0 -4.32974e-09)
(-1.33023e-07 -0.000287821 0 1.23344e-07 0 9.67894e-09)
(3.74208e-07 -0.000287409 0 -3.72627e-07 0 -1.58079e-09)
(1.11123e-08 -0.000286918 0 -1.05364e-08 0 -5.75855e-10)
(-2.68189e-07 -0.000330991 0 2.8328e-07 0 -1.50908e-08)
(-1.4956e-07 -0.000331806 0 1.42813e-07 0 6.74674e-09)
(3.85532e-07 -0.000331594 0 -3.86453e-07 0 9.20339e-10)
(-7.08504e-09 -0.000331006 0 2.52777e-08 0 -1.81927e-08)
(-2.79126e-07 -0.000380049 0 2.89837e-07 0 -1.0711e-08)
(-1.54654e-07 -0.000380647 0 1.4627e-07 0 8.38394e-09)
(4.0026e-07 -0.000380758 0 -3.98774e-07 0 -1.48688e-09)
(-2.49879e-08 -0.000380124 0 3.4399e-08 0 -9.41111e-09)
(-3.36293e-07 -0.000434341 0 3.88916e-07 0 -5.26229e-08)
(-1.734e-07 -0.000434555 0 1.66778e-07 0 6.62239e-09)
(3.47422e-07 -0.000435034 0 -2.93739e-07 0 -5.36832e-08)
(-1.53389e-07 -0.00043435 0 3.0799e-07 0 -1.54602e-07)
(-2.3733e-07 -0.000493958 0 1.86316e-07 0 5.10139e-08)
(-1.80132e-07 -0.00049376 0 1.74049e-07 0 6.08287e-09)
(5.01793e-07 -0.000494752 0 -5.96119e-07 0 9.43258e-08)
(2.05624e-07 -0.00049413 0 -4.28211e-07 0 2.22587e-07)
(-2.80776e-07 -0.000559459 0 2.6983e-07 0 1.09451e-08)
(-1.95591e-07 -0.000558581 0 1.84676e-07 0 1.09156e-08)
(4.68253e-07 -0.000560196 0 -5.49063e-07 0 8.08101e-08)
(1.42198e-07 -0.000559803 0 -2.57593e-07 0 1.15395e-07)
(-4.04776e-07 -0.000630811 0 5.32509e-07 0 -1.27733e-07)
(-1.83628e-07 -0.000629005 0 1.56788e-07 0 2.68402e-08)
(1.70568e-07 -0.000631363 0 2.38935e-08 0 -1.94462e-07)
(-4.63956e-07 -0.000631546 0 9.61108e-07 0 -4.97152e-07)
(-9.47423e-08 -0.000710856 0 -6.5304e-08 0 1.60046e-07)
(-2.54463e-07 -0.000708381 0 2.84208e-07 0 -2.97447e-08)
(2.78251e-07 -0.000711183 0 -2.55574e-07 0 -2.26769e-08)
(1.93825e-07 -0.000712754 0 -2.70566e-07 0 7.67405e-08)
(-2.18622e-07 -0.00109464 0 2.38174e-07 0 -1.95527e-08)
(-2.21831e-07 -0.00109212 0 2.22587e-07 0 -7.56436e-10)
(2.06575e-07 -0.00109513 0 -1.95912e-07 0 -1.06637e-08)
(1.70636e-08 -0.00109839 0 2.97403e-08 0 -4.68039e-08)
(3.06933e-07 -0.00411844 0 -8.66443e-07 0 5.59509e-07)
(1.50362e-06 -0.00403583 0 -3.07957e-06 0 1.57595e-06)
(7.10903e-07 -0.00404293 0 -1.21966e-06 0 5.08761e-07)
(7.44791e-07 -0.00414934 0 -1.16931e-06 0 4.24519e-07)
(1.37502e-06 -0.00674087 0 -1.71176e-06 0 3.36745e-07)
(5.45733e-07 -0.00668365 0 1.14751e-06 0 -1.69324e-06)
(-3.85368e-06 -0.00669222 0 4.38886e-06 0 -5.35176e-07)
(-2.65374e-06 -0.00677708 0 3.45789e-06 0 -8.04154e-07)
(6.02098e-07 -0.00631875 0 1.58017e-07 0 -7.60115e-07)
(1.38444e-06 -0.0063556 0 -1.22248e-06 0 -1.61966e-07)
(-2.93369e-06 -0.00635955 0 2.95564e-06 0 -2.19553e-08)
(-1.42114e-06 -0.00632905 0 1.11143e-06 0 3.09714e-07)
(1.42586e-06 -0.00561194 0 -1.56996e-06 0 1.441e-07)
(2.15042e-06 -0.00564944 0 -3.42097e-06 0 1.27055e-06)
(-1.71247e-06 -0.00565031 0 9.95906e-07 0 7.16565e-07)
(-8.49523e-07 -0.00561846 0 2.78854e-07 0 5.70668e-07)
(1.20343e-06 -0.00496481 0 -1.38899e-06 0 1.85559e-07)
(-8.92474e-07 -0.00499628 0 2.04842e-06 0 -1.15595e-06)
(-2.63587e-06 -0.0049938 0 3.39477e-06 0 -7.58902e-07)
(-1.80663e-06 -0.00496326 0 2.54261e-06 0 -7.35983e-07)
(3.86288e-07 -0.00437113 0 -1.35332e-07 0 -2.50956e-07)
(2.3874e-07 -0.00439621 0 -5.667e-07 0 3.2796e-07)
(-1.02795e-06 -0.00439095 0 7.32301e-07 0 2.95647e-07)
(-2.43185e-07 -0.00436363 0 -1.99636e-07 0 4.42821e-07)
(4.46698e-07 -0.00383002 0 -6.86302e-07 0 2.39603e-07)
(-2.80495e-07 -0.00384699 0 1.62277e-07 0 1.18219e-07)
(-6.83294e-07 -0.00384123 0 5.80646e-07 0 1.02648e-07)
(-4.23555e-07 -0.00382036 0 5.30352e-07 0 -1.06798e-07)
(-2.12959e-07 -0.00333973 0 3.20036e-07 0 -1.07077e-07)
(-6.33955e-07 -0.00334948 0 8.01934e-07 0 -1.67979e-07)
(-4.92495e-07 -0.00334441 0 5.54064e-07 0 -6.15695e-08)
(4.53418e-08 -0.00332955 0 -1.0408e-07 0 5.87381e-08)
(-4.2357e-07 -0.00289614 0 4.45867e-07 0 -2.22964e-08)
(-5.25727e-07 -0.00290212 0 4.94933e-07 0 3.07944e-08)
(-1.04636e-07 -0.00289916 0 9.33419e-08 0 1.12937e-08)
(2.1117e-07 -0.00288893 0 -1.36965e-07 0 -7.42053e-08)
(-5.33845e-07 -0.00249971 0 4.58462e-07 0 7.53826e-08)
(-7.65703e-07 -0.00250113 0 9.62783e-07 0 -1.9708e-07)
(-9.03181e-08 -0.00249943 0 1.94795e-07 0 -1.04477e-07)
(4.0392e-07 -0.00249317 0 -2.58517e-07 0 -1.45403e-07)
(-6.23073e-07 -0.00214601 0 4.99843e-07 0 1.2323e-07)
(-2.7982e-07 -0.00214368 0 1.0824e-08 0 2.68996e-07)