/*--------------------------------*- C++ -*----------------------------------*\
  =========                 |
  \\      /  F ield         | OpenFOAM: The Open Source CFD Toolbox
   \\    /   O peration     | Website:  https://openfoam.org
    \\  /    A nd           | Version:  dev
     \\/     M anipulation  |

   OpenFOAM for Windows 20.09 (v1)
   Built by CFD Support, www.cfdsupport.com (based on Symscape).
\*---------------------------------------------------------------------------*/
FoamFile
{
    version     2.0;
    format      ascii;
    class       volScalarField;
    location    "6";
    object      epsilon;
}
// * * * * * * * * * * * * * * * * * * * * * * * * * * * * * * * * * * * * * //

dimensions      [0 2 -3 0 0 0 0];

internalField   nonuniform List<scalar> 
960
(
1.73748e-12
1.73748e-12
1.73748e-12
1.73748e-12
2.99637e-13
2.99637e-13
2.99637e-13
2.99637e-13
1.01968e-13
1.01968e-13
1.01968e-13
1.01968e-13
4.7919e-14
4.79193e-14
4.79191e-14
4.79191e-14
2.70281e-14
2.70283e-14
2.70281e-14
2.70281e-14
1.71876e-14
1.71878e-14
1.71876e-14
1.71876e-14
1.18446e-14
1.18447e-14
1.18446e-14
1.18446e-14
8.63994e-15
8.64008e-15
8.63992e-15
8.63999e-15
6.5734e-15
6.57352e-15
6.57337e-15
6.57346e-15
5.16568e-15
5.16578e-15
5.16564e-15
5.16575e-15
4.1648e-15
4.16488e-15
4.16476e-15
4.16489e-15
3.42839e-15
3.42844e-15
3.42835e-15
3.42849e-15
2.87119e-15
2.87121e-15
2.87114e-15
2.8713e-15
2.43966e-15
2.43965e-15
2.43961e-15
2.43977e-15
2.09887e-15
2.09882e-15
2.09881e-15
2.09899e-15
1.82515e-15
1.82508e-15
1.82508e-15
1.82526e-15
1.60216e-15
1.60209e-15
1.60209e-15
1.60226e-15
1.41827e-15
1.41819e-15
1.4182e-15
1.41836e-15
1.26499e-15
1.26491e-15
1.26493e-15
1.26508e-15
1.13605e-15
1.13596e-15
1.13598e-15
1.13613e-15
1.0267e-15
1.02661e-15
1.02663e-15
1.02677e-15
9.33325e-16
9.33228e-16
9.33258e-16
9.33387e-16
8.53113e-16
8.53013e-16
8.53045e-16
8.53166e-16
7.83858e-16
7.83755e-16
7.8379e-16
7.83902e-16
7.23808e-16
7.23704e-16
7.2374e-16
7.23844e-16
6.71559e-16
6.71454e-16
6.7149e-16
6.71587e-16
6.25972e-16
6.25866e-16
6.25903e-16
6.25992e-16
5.86118e-16
5.86011e-16
5.86048e-16
5.86129e-16
5.51231e-16
5.51123e-16
5.5116e-16
5.51235e-16
5.20675e-16
5.20565e-16
5.20602e-16
5.20672e-16
4.93224e-16
4.93116e-16
4.93148e-16
4.93212e-16
4.68817e-16
4.68711e-16
4.68735e-16
4.68795e-16
4.47387e-16
4.47281e-16
4.47298e-16
4.47354e-16
4.28616e-16
4.2851e-16
4.2852e-16
4.28573e-16
4.12235e-16
4.12128e-16
4.1213e-16
4.12182e-16
3.98014e-16
3.97907e-16
3.97902e-16
3.97952e-16
3.85762e-16
3.85653e-16
3.85641e-16
3.8569e-16
3.75315e-16
3.75205e-16
3.75187e-16
3.75233e-16
3.66539e-16
3.66427e-16
3.66402e-16
3.66447e-16
3.65459e-16
3.65181e-16
3.65347e-16
3.65771e-16
3.7581e-16
3.75499e-16
3.75687e-16
3.76175e-16
3.89788e-16
3.89442e-16
3.89651e-16
3.90208e-16
4.0762e-16
4.07237e-16
4.07465e-16
4.08096e-16
4.29629e-16
4.29206e-16
4.29452e-16
4.30164e-16
4.56242e-16
4.55778e-16
4.56038e-16
4.56841e-16
4.86825e-16
4.8633e-16
4.866e-16
4.87504e-16
5.22324e-16
5.21804e-16
5.22079e-16
5.23094e-16
5.64303e-16
5.63762e-16
5.64037e-16
5.65183e-16
6.13849e-16
6.13293e-16
6.13566e-16
6.14865e-16
6.72324e-16
6.71764e-16
6.72033e-16
6.73516e-16
7.4144e-16
7.40884e-16
7.41154e-16
7.4286e-16
8.23343e-16
8.22804e-16
8.23082e-16
8.25067e-16
9.20741e-16
9.20228e-16
9.20531e-16
9.22869e-16
1.03705e-15
1.03657e-15
1.03693e-15
1.03972e-15
1.17662e-15
1.17617e-15
1.17662e-15
1.18002e-15
1.34499e-15
1.34455e-15
1.34514e-15
1.34936e-15
1.54929e-15
1.5488e-15
1.54962e-15
1.55495e-15
1.79876e-15
1.79809e-15
1.79924e-15
1.80608e-15
2.10541e-15
2.10438e-15
2.10595e-15
2.11487e-15
2.485e-15
2.48334e-15
2.4854e-15
2.49717e-15
1.73748e-12
1.73748e-12
1.73748e-12
1.73748e-12
2.99637e-13
2.99637e-13
2.99637e-13
2.99637e-13
1.01968e-13
1.01968e-13
1.01968e-13
1.01968e-13
4.79193e-14
4.79191e-14
4.79192e-14
4.79192e-14
2.70283e-14
2.70281e-14
2.70282e-14
2.70282e-14
1.71878e-14
1.71876e-14
1.71876e-14
1.71877e-14
1.18448e-14
1.18446e-14
1.18446e-14
1.18446e-14
8.6402e-15
8.63993e-15
8.63994e-15
8.63994e-15
6.57366e-15
6.57339e-15
6.57338e-15
6.57338e-15
5.16594e-15
5.16566e-15
5.16564e-15
5.16564e-15
4.16506e-15
4.16479e-15
4.16476e-15
4.16476e-15
3.42864e-15
3.42838e-15
3.42833e-15
3.42834e-15
2.87142e-15
2.87117e-15
2.87111e-15
2.87112e-15
2.43988e-15
2.43964e-15
2.43957e-15
2.43959e-15
2.09906e-15
2.09884e-15
2.09876e-15
2.09879e-15
1.82533e-15
1.82511e-15
1.82503e-15
1.82507e-15
1.60233e-15
1.60212e-15
1.60204e-15
1.60209e-15
1.41843e-15
1.41823e-15
1.41815e-15
1.41821e-15
1.26514e-15
1.26495e-15
1.26487e-15
1.26494e-15
1.13619e-15
1.136e-15
1.13593e-15
1.136e-15
1.02682e-15
1.02665e-15
1.02658e-15
1.02666e-15
9.33437e-16
9.33274e-16
9.33211e-16
9.33292e-16
8.53212e-16
8.53059e-16
8.53e-16
8.53084e-16
7.83944e-16
7.83801e-16
7.83747e-16
7.83831e-16
7.23881e-16
7.23749e-16
7.237e-16
7.23784e-16
6.71619e-16
6.71498e-16
6.71453e-16
6.71535e-16
6.2602e-16
6.25908e-16
6.25869e-16
6.25948e-16
5.86153e-16
5.86051e-16
5.86016e-16
5.86093e-16
5.51253e-16
5.51161e-16
5.51131e-16
5.51203e-16
5.20684e-16
5.20601e-16
5.20575e-16
5.20644e-16
4.93223e-16
4.93148e-16
4.93125e-16
4.9319e-16
4.68806e-16
4.68737e-16
4.68718e-16
4.68779e-16
4.47366e-16
4.47303e-16
4.47287e-16
4.47344e-16
4.28585e-16
4.28527e-16
4.28514e-16
4.28567e-16
4.12193e-16
4.1214e-16
4.1213e-16
4.12179e-16
3.97962e-16
3.97915e-16
3.97907e-16
3.97952e-16
3.85699e-16
3.85658e-16
3.85652e-16
3.85693e-16
3.75241e-16
3.75206e-16
3.75203e-16
3.75239e-16
3.66453e-16
3.66424e-16
3.66424e-16
3.66455e-16
3.65509e-16
3.65415e-16
3.65391e-16
3.65349e-16
3.75874e-16
3.75768e-16
3.75741e-16
3.75689e-16
3.89868e-16
3.89746e-16
3.89717e-16
3.89655e-16
4.07715e-16
4.07577e-16
4.07545e-16
4.07473e-16
4.29738e-16
4.29582e-16
4.29548e-16
4.29466e-16
4.5637e-16
4.56192e-16
4.56158e-16
4.56063e-16
4.86984e-16
4.86777e-16
4.86748e-16
4.86634e-16
5.22522e-16
5.2228e-16
5.22261e-16
5.22123e-16
5.64553e-16
5.64268e-16
5.64262e-16
5.64096e-16
6.14168e-16
6.13829e-16
6.13843e-16
6.13642e-16
6.7274e-16
6.72331e-16
6.72375e-16
6.72132e-16
7.4199e-16
7.41493e-16
7.41577e-16
7.41282e-16
8.24082e-16
8.2347e-16
8.23609e-16
8.23252e-16
9.21743e-16
9.20981e-16
9.21192e-16
9.20762e-16
1.03842e-15
1.03746e-15
1.03777e-15
1.03726e-15
1.17849e-15
1.17728e-15
1.17771e-15
1.17709e-15
1.34755e-15
1.34602e-15
1.34659e-15
1.34586e-15
1.55276e-15
1.55083e-15
1.55157e-15
1.5507e-15
1.8034e-15
1.80098e-15
1.80189e-15
1.80087e-15
2.11151e-15
2.10852e-15
2.10959e-15
2.10841e-15
2.4929e-15
2.48929e-15
2.49046e-15
2.48904e-15
2.98822e-15
2.98533e-15
2.98783e-15
3.00365e-15
3.48379e-15
3.4835e-15
3.48614e-15
3.50109e-15
3.75551e-15
3.76283e-15
3.76467e-15
3.77088e-15
3.8142e-15
3.82598e-15
3.82675e-15
3.82631e-15
3.71396e-15
3.72706e-15
3.72683e-15
3.72231e-15
3.50811e-15
3.52033e-15
3.51939e-15
3.51308e-15
3.24129e-15
3.25148e-15
3.25027e-15
3.24391e-15
2.94728e-15
2.95511e-15
2.95397e-15
2.94848e-15
2.64961e-15
2.65528e-15
2.65441e-15
2.65001e-15
2.36359e-15
2.36744e-15
2.36686e-15
2.3635e-15
2.09821e-15
2.10059e-15
2.10024e-15
2.09773e-15
1.85784e-15
1.85905e-15
1.85888e-15
1.85713e-15
1.64369e-15
1.64403e-15
1.64396e-15
1.64278e-15
1.455e-15
1.45467e-15
1.45457e-15
1.4539e-15
1.28976e-15
1.28886e-15
1.28884e-15
1.28847e-15
1.15158e-15
1.15041e-15
1.15029e-15
1.15021e-15
1.0365e-15
1.0354e-15
1.0351e-15
1.03518e-15
9.37816e-16
9.36893e-16
9.36349e-16
9.36597e-16
8.53526e-16
8.52862e-16
8.52006e-16
8.52434e-16
7.81805e-16
7.81319e-16
7.80152e-16
7.80777e-16
7.20884e-16
7.20557e-16
7.19052e-16
7.19917e-16
6.69299e-16
6.69109e-16
6.67221e-16
6.68387e-16
6.2582e-16
6.25755e-16
6.2342e-16
6.24962e-16
5.89451e-16
5.89507e-16
5.86975e-16
5.88646e-16
5.59411e-16
5.59594e-16
5.57178e-16
5.58658e-16
5.35117e-16
5.35438e-16
5.33279e-16
5.3442e-16
5.16167e-16
5.1664e-16
5.14697e-16
5.15523e-16
5.02331e-16
5.02968e-16
5.01171e-16
5.0173e-16
4.93545e-16
4.94361e-16
4.92636e-16
4.92969e-16
4.9806e-16
4.9794e-16
4.97876e-16
4.97839e-16
5.24542e-16
5.24424e-16
5.24385e-16
5.2434e-16
5.54668e-16
5.54556e-16
5.54548e-16
5.54492e-16
5.89253e-16
5.89148e-16
5.89172e-16
5.89104e-16
6.28931e-16
6.28835e-16
6.28888e-16
6.28808e-16
6.74469e-16
6.74383e-16
6.74463e-16
6.74371e-16
7.26805e-16
7.26729e-16
7.26834e-16
7.26731e-16
7.87088e-16
7.87023e-16
7.87151e-16
7.87037e-16
8.56737e-16
8.56685e-16
8.56836e-16
8.5671e-16
9.37522e-16
9.37487e-16
9.37661e-16
9.37524e-16
1.03168e-15
1.03166e-15
1.03186e-15
1.03171e-15
1.14203e-15
1.14204e-15
1.14226e-15
1.14209e-15
1.27224e-15
1.27227e-15
1.27251e-15
1.27233e-15
1.42705e-15
1.42711e-15
1.42738e-15
1.42718e-15
1.61277e-15
1.61286e-15
1.61314e-15
1.61292e-15
1.83784e-15
1.83796e-15
1.83826e-15
1.83803e-15
2.11496e-15
2.1151e-15
2.11543e-15
2.11518e-15
2.45977e-15
2.45992e-15
2.4603e-15
2.46004e-15
2.89547e-15
2.89564e-15
2.89606e-15
2.89578e-15
3.4569e-15
3.45709e-15
3.45754e-15
3.45726e-15
4.19742e-15
4.19761e-15
4.19809e-15
4.1978e-15
5.20201e-15
5.2022e-15
5.20269e-15
5.2024e-15
6.61268e-15
6.61287e-15
6.61337e-15
6.61308e-15
8.68096e-15
8.68114e-15
8.68164e-15
8.68136e-15
1.18857e-14
1.18858e-14
1.18863e-14
1.1886e-14
1.72267e-14
1.72269e-14
1.72273e-14
1.72271e-14
2.70631e-14
2.70633e-14
2.70637e-14
2.70634e-14
4.79485e-14
4.79487e-14
4.7949e-14
4.79488e-14
1.01989e-13
1.01989e-13
1.01989e-13
1.01989e-13
2.99646e-13
2.99646e-13
2.99647e-13
2.99647e-13
1.73748e-12
1.73748e-12
1.73748e-12
1.73748e-12
2.99797e-15
2.99417e-15
2.99482e-15
2.99275e-15
3.49598e-15
3.49019e-15
3.49216e-15
3.49112e-15
3.7686e-15
3.75956e-15
3.76492e-15
3.76649e-15
3.82541e-15
3.81582e-15
3.82236e-15
3.82504e-15
3.7217e-15
3.71332e-15
3.71967e-15
3.72288e-15
3.51251e-15
3.50575e-15
3.51133e-15
3.51455e-15
3.24311e-15
3.23795e-15
3.24255e-15
3.24564e-15
2.94726e-15
2.94349e-15
2.94721e-15
2.95015e-15
2.64858e-15
2.6458e-15
2.64881e-15
2.65157e-15
2.36209e-15
2.3602e-15
2.36238e-15
2.36505e-15
2.09661e-15
2.09526e-15
2.09674e-15
2.09943e-15
1.8563e-15
1.85522e-15
1.85614e-15
1.85894e-15
1.64227e-15
1.64125e-15
1.64188e-15
1.64468e-15
1.45366e-15
1.45266e-15
1.45305e-15
1.45583e-15
1.2885e-15
1.2875e-15
1.28769e-15
1.29039e-15
1.15038e-15
1.14939e-15
1.14942e-15
1.15201e-15
1.03547e-15
1.03448e-15
1.03438e-15
1.03675e-15
9.36966e-16
9.35998e-16
9.35781e-16
9.37875e-16
8.52877e-16
8.5194e-16
8.51644e-16
8.53448e-16
7.81287e-16
7.80388e-16
7.80053e-16
7.81575e-16
7.20487e-16
7.19628e-16
7.1929e-16
7.20555e-16
6.69009e-16
6.68188e-16
6.67872e-16
6.68901e-16
6.25627e-16
6.24837e-16
6.24555e-16
6.25368e-16
5.89357e-16
5.88581e-16
5.88332e-16
5.88945e-16
5.59428e-16
5.58649e-16
5.5859e-16
5.58841e-16
5.35264e-16
5.34455e-16
5.34581e-16
5.34469e-16
5.16469e-16
5.15591e-16
5.15909e-16
5.1541e-16
5.02817e-16
5.01813e-16
5.02351e-16
5.01412e-16
4.94246e-16
4.9305e-16
4.93842e-16
4.92387e-16
4.97752e-16
4.9777e-16
4.97774e-16
4.97794e-16
5.24239e-16
5.24267e-16
5.24275e-16
5.243e-16
5.54377e-16
5.54413e-16
5.54427e-16
5.54457e-16
5.88976e-16
5.89019e-16
5.8904e-16
5.89076e-16
6.28667e-16
6.28718e-16
6.28744e-16
6.28788e-16
6.74221e-16
6.74277e-16
6.74309e-16
6.74362e-16
7.26572e-16
7.26634e-16
7.26671e-16
7.26733e-16
7.86872e-16
7.86938e-16
7.86979e-16
7.87051e-16
8.56542e-16
8.56611e-16
8.56655e-16
8.56736e-16
9.37353e-16
9.37426e-16
9.37471e-16
9.37559e-16
1.03154e-15
1.03161e-15
1.03166e-15
1.03175e-15
1.14193e-15
1.142e-15
1.14205e-15
1.14215e-15
1.27218e-15
1.27225e-15
1.2723e-15
1.2724e-15
1.42703e-15
1.42711e-15
1.42717e-15
1.42726e-15
1.61279e-15
1.61286e-15
1.61293e-15
1.61302e-15
1.83791e-15
1.83798e-15
1.83805e-15
1.83814e-15
2.11507e-15
2.11513e-15
2.11522e-15
2.11531e-15
2.45993e-15
2.45999e-15
2.46008e-15
2.46017e-15
2.89567e-15
2.89573e-15
2.89583e-15
2.89592e-15
3.45714e-15
3.4572e-15
3.4573e-15
3.45739e-15
4.19768e-15
4.19775e-15
4.19784e-15
4.19793e-15
5.20227e-15
5.20235e-15
5.20242e-15
5.20252e-15
6.61295e-15
6.61302e-15
6.61308e-15
6.61317e-15
8.68123e-15
8.68129e-15
8.68133e-15
8.68142e-15
1.18859e-14
1.1886e-14
1.1886e-14
1.18861e-14
1.72269e-14
1.7227e-14
1.7227e-14
1.7227e-14
2.70634e-14
2.70634e-14
2.70633e-14
2.70634e-14
4.79488e-14
4.79487e-14
4.79487e-14
4.79487e-14
1.01989e-13
1.01989e-13
1.01989e-13
1.01989e-13
2.99647e-13
2.99646e-13
2.99646e-13
2.99646e-13
1.73748e-12
1.73748e-12
1.73748e-12
1.73748e-12
)
;

boundaryField
{
    topWall
    {
        type            epsilonWallFunction;
        value           uniform 1.73748e-12;
    }
    botWall
    {
        type            epsilonWallFunction;
        value           uniform 1.73748e-12;
    }
    inlet
    {
        type            cyclic;
    }
    outlet
    {
        type            cyclic;
    }
    fixWall
    {
        type            empty;
    }
}


// ************************************************************************* //
