/*--------------------------------*- C++ -*----------------------------------*\
  =========                 |
  \\      /  F ield         | OpenFOAM: The Open Source CFD Toolbox
   \\    /   O peration     | Website:  https://openfoam.org
    \\  /    A nd           | Version:  dev
     \\/     M anipulation  |

   OpenFOAM for Windows 20.09 (v1)
   Built by CFD Support, www.cfdsupport.com (based on Symscape).
\*---------------------------------------------------------------------------*/
FoamFile
{
    version     2.0;
    format      ascii;
    class       volTensorField;
    location    "6";
    object      gradU;
}
// * * * * * * * * * * * * * * * * * * * * * * * * * * * * * * * * * * * * * //

dimensions      [0 0 -1 0 0 0 0];

internalField   nonuniform List<tensor> 
960
(
(-0.000179143 -1.48481e-06 0 4.87907 -0.0030798 0 0 0 0)
(2.78619e-05 6.59589e-05 0 4.86424 -0.000183596 0 0 0 0)
(0.000250199 1.37637e-06 0 4.86655 -5.28567e-05 0 0 0 0)
(8.08263e-05 2.13743e-07 0 4.89762 -0.000233318 0 0 0 0)
(-9.93394e-05 -2.4401e-06 0 4.39032 0.00199978 0 0 0 0)
(-0.000236555 -1.55099e-05 0 4.37919 0.000363777 0 0 0 0)
(0.0003062 -2.20507e-06 0 4.36344 -0.00021071 0 0 0 0)
(0.000173729 4.8e-06 0 4.38627 -0.000344482 0 0 0 0)
(-5.325e-05 9.08086e-07 0 3.91051 -0.00148087 0 0 0 0)
(-0.000420105 2.91175e-05 0 3.90233 0.000699713 0 0 0 0)
(0.000368191 -1.04279e-05 0 3.89334 -0.000279515 0 0 0 0)
(0.000186541 1.10521e-05 0 3.90777 -0.000391763 0 0 0 0)
(2.80383e-05 6.93015e-06 0 3.46646 0.00183401 0 0 0 0)
(-0.000522745 4.51266e-06 0 3.46333 0.000835064 0 0 0 0)
(0.000396979 -2.03963e-05 0 3.45811 -0.000295084 0 0 0 0)
(0.000130553 2.04082e-05 0 3.46546 -0.000340185 0 0 0 0)
(0.000126446 1.41381e-05 0 3.05829 -0.00089235 0 0 0 0)
(-0.000559237 -6.36739e-06 0 3.05812 0.000835869 0 0 0 0)
(0.00040367 -3.00154e-05 0 3.05575 -0.000313898 0 0 0 0)
(5.08444e-05 2.9663e-05 0 3.059 -0.000256999 0 0 0 0)
(0.000195716 2.23139e-05 0 2.68532 -0.000650249 0 0 0 0)
(-0.000565089 1.41535e-05 0 2.68645 0.000836638 0 0 0 0)
(0.000411605 -3.86108e-05 0 2.6863 -0.000307429 0 0 0 0)
(-2.31089e-05 4.18897e-05 0 2.68748 -0.000179714 0 0 0 0)
(0.000239043 3.07283e-05 0 2.34606 -0.000789895 0 0 0 0)
(-0.000543002 -6.53709e-07 0 2.34834 0.000799942 0 0 0 0)
(0.000420767 -4.69546e-05 0 2.3496 -0.000325392 0 0 0 0)
(-8.23041e-05 5.27823e-05 0 2.34985 -0.000120585 0 0 0 0)
(0.00025781 3.91714e-05 0 2.03923 -0.000731822 0 0 0 0)
(-0.000506149 2.18952e-05 0 2.04288 0.000752917 0 0 0 0)
(0.000436744 -5.39529e-05 0 2.04463 -0.000324565 0 0 0 0)
(-0.000117994 6.69787e-05 0 2.04451 -8.58147e-05 0 0 0 0)
(0.000268228 4.70418e-05 0 1.76319 -0.000598209 0 0 0 0)
(-0.000452961 6.1339e-06 0 1.76779 0.000687658 0 0 0 0)
(0.00044798 -6.09335e-05 0 1.77004 -0.000352567 0 0 0 0)
(-0.00013214 7.88077e-05 0 1.7701 -6.75241e-05 0 0 0 0)
(0.000249306 5.39174e-05 0 1.51658 -0.000821075 0 0 0 0)
(-0.000392086 2.59893e-05 0 1.52195 0.000592856 0 0 0 0)
(0.000475134 -6.65393e-05 0 1.52413 -0.000352713 0 0 0 0)
(-0.000117354 9.41373e-05 0 1.52447 -8.83621e-05 0 0 0 0)
(0.000229474 5.9431e-05 0 1.29756 -0.000473281 0 0 0 0)
(-0.000327251 1.39399e-05 0 1.30282 0.000577203 0 0 0 0)
(0.000490041 -7.22871e-05 0 1.30532 -0.00040034 0 0 0 0)
(-7.98087e-05 0.000106346 0 1.3062 -0.000117829 0 0 0 0)
(0.00016058 6.3911e-05 0 1.10422 -0.000680704 0 0 0 0)
(-0.000262679 2.7205e-05 0 1.10925 0.000521775 0 0 0 0)
(0.000531499 -7.81231e-05 0 1.11181 -0.000409964 0 0 0 0)
(-1.23646e-05 0.000121951 0 1.11273 -0.000283214 0 0 0 0)
(9.74174e-05 6.48924e-05 0 0.934877 -0.000309047 0 0 0 0)
(-0.000200884 1.84523e-05 0 0.9382 0.000458763 0 0 0 0)
(0.000548066 -8.57036e-05 0 0.941056 -0.000440064 0 0 0 0)
(6.9459e-05 0.000134246 0 0.942713 -0.00030982 0 0 0 0)
(-2.85623e-05 6.43268e-05 0 0.788153 -0.000468262 0 0 0 0)
(-0.000159706 2.50213e-05 0 0.788496 0.000333857 0 0 0 0)
(0.000606717 -9.09329e-05 0 0.791205 -0.000495072 0 0 0 0)
(0.00018719 0.000149243 0 0.793616 -0.00027662 0 0 0 0)
(-0.000154475 6.61109e-05 0 0.661761 -8.56064e-05 0 0 0 0)
(-0.000150022 1.80054e-05 0 0.658556 0.000188343 0 0 0 0)
(0.000633402 -9.58782e-05 0 0.661155 -0.000514337 0 0 0 0)
(0.000314894 0.000160964 0 0.664591 -0.000475577 0 0 0 0)
(-0.000349592 6.44147e-05 0 0.549847 3.13663e-06 0 0 0 0)
(-0.000169814 1.78758e-05 0 0.549724 0.000223191 0 0 0 0)
(0.000707295 -0.000101998 0 0.550927 -0.000621608 0 0 0 0)
(0.000479049 0.000173553 0 0.553683 -0.000511979 0 0 0 0)
(-0.00039538 6.3612e-05 0 0.453291 0.000200158 0 0 0 0)
(-0.00013202 7.59303e-06 0 0.457449 0.000240042 0 0 0 0)
(0.000699396 -0.000108131 0 0.456924 -0.000565796 0 0 0 0)
(0.00058964 0.000184624 0 0.459148 -0.000738236 0 0 0 0)
(-0.000480347 6.04841e-05 0 0.373919 0.000252121 0 0 0 0)
(-0.00010927 5.10995e-06 0 0.377051 0.000255174 0 0 0 0)
(0.000735614 -0.000118303 0 0.375758 -0.000642594 0 0 0 0)
(0.000716105 0.000194422 0 0.379668 -0.000950007 0 0 0 0)
(-0.00051684 5.27917e-05 0 0.307206 0.000354678 0 0 0 0)
(-0.000101365 -7.31889e-06 0 0.309351 0.00032325 0 0 0 0)
(0.000743007 -0.000128217 0 0.307018 -0.000628451 0 0 0 0)
(0.000830913 0.000205029 0 0.311894 -0.001034 0 0 0 0)
(-0.000581878 4.5707e-05 0 0.251605 0.000342689 0 0 0 0)
(-0.000112399 -1.12755e-05 0 0.252471 0.000225224 0 0 0 0)
(0.000778 -0.000140924 0 0.249432 -0.000649436 0 0 0 0)
(0.000949169 0.000213654 0 0.2552 -0.00111313 0 0 0 0)
(-0.000602294 3.88724e-05 0 0.205456 0.000426034 0 0 0 0)
(-0.000137585 -2.38543e-05 0 0.205292 0.000221233 0 0 0 0)
(0.000788498 -0.000150523 0 0.201324 -0.000683608 0 0 0 0)
(0.00105669 0.000223986 0 0.207319 -0.00120765 0 0 0 0)
(-0.000643592 3.07536e-05 0 0.167508 0.000425287 0 0 0 0)
(-0.000181271 -2.97695e-05 0 0.166233 0.000285216 0 0 0 0)
(0.000811782 -0.000164738 0 0.161591 -0.000680764 0 0 0 0)
(0.00115953 0.000231304 0 0.167742 -0.00132955 0 0 0 0)
(-0.000646945 2.35107e-05 0 0.136454 0.00049009 0 0 0 0)
(-0.000236199 -4.22885e-05 0 0.134678 0.000329352 0 0 0 0)
(0.000813655 -0.000177436 0 0.129131 -0.000704782 0 0 0 0)
(0.00125401 0.000241445 0 0.134894 -0.00140773 0 0 0 0)
(-0.000660757 1.61504e-05 0 0.111197 0.00045958 0 0 0 0)
(-0.000303322 -4.96841e-05 0 0.108952 0.000397927 0 0 0 0)
(0.000815387 -0.00019369 0 0.102839 -0.000682908 0 0 0 0)
(0.00133882 0.000248215 0 0.108305 -0.0015116 0 0 0 0)
(-0.000644298 9.54697e-06 0 0.0907972 0.0005132 0 0 0 0)
(-0.000375501 -6.13299e-05 0 0.0886771 0.000436636 0 0 0 0)
(0.000802868 -0.000209261 0 0.0820374 -0.000701296 0 0 0 0)
(0.00142017 0.000257763 0 0.0868333 -0.00155726 0 0 0 0)
(-0.000631238 3.38452e-06 0 0.0745295 0.000429652 0 0 0 0)
(-0.000449318 -6.99257e-05 0 0.0726274 0.000549318 0 0 0 0)
(0.000784658 -0.000226921 0 0.0663338 -0.000627718 0 0 0 0)
(0.00148734 0.000264526 0 0.0708391 -0.00167646 0 0 0 0)
(-0.000597592 -2.82291e-07 0 0.0615898 0.000460267 0 0 0 0)
(-0.000512096 -7.89528e-05 0 0.0606439 0.000734045 0 0 0 0)
(0.000773064 -0.000246358 0 0.0552425 -0.000690288 0 0 0 0)
(0.00155366 0.000271737 0 0.0586779 -0.00181907 0 0 0 0)
(-0.000558773 -4.3128e-06 0 0.0510977 0.000434781 0 0 0 0)
(-0.000555107 -8.91016e-05 0 0.0516266 0.000749264 0 0 0 0)
(0.000751891 -0.000269473 0 0.0492641 -0.000637052 0 0 0 0)
(0.00159443 0.000279257 0 0.0518326 -0.00181867 0 0 0 0)
(-0.000509272 -6.6176e-06 0 0.0426694 0.000359261 0 0 0 0)
(-0.000542657 -9.68167e-05 0 0.0453484 0.000541124 0 0 0 0)
(0.000776497 -0.000289157 0 0.0475907 -0.000635749 0 0 0 0)
(0.0016182 0.000286059 0 0.0479395 -0.00174586 0 0 0 0)
(-0.000455032 -1.09485e-05 0 0.0325925 0.000336946 0 0 0 0)
(-0.000473085 -0.000105685 0 0.0419902 0.000373526 0 0 0 0)
(0.000795077 -0.00030759 0 0.0499818 -0.000774878 0 0 0 0)
(0.00159062 0.000296558 0 0.0427131 -0.00160903 0 0 0 0)
(-0.00036195 -1.66631e-05 0 0.0293852 0.000273553 0 0 0 0)
(-0.000252834 -0.000115347 0 0.0422068 0.000150236 0 0 0 0)
(0.000788545 -0.000322199 0 0.0520953 -0.000648062 0 0 0 0)
(0.00150946 0.000305923 0 0.0413776 -0.00141907 0 0 0 0)
(-0.000261217 -2.36399e-05 0 0.0364747 0.000132495 0 0 0 0)
(-9.45834e-05 -0.000121045 0 0.0452536 2.46387e-06 0 0 0 0)
(0.000781257 -0.000333745 0 0.0510164 -0.000776716 0 0 0 0)
(0.00142506 0.000312631 0 0.0452756 -0.00133457 0 0 0 0)
(-0.000164303 -3.32925e-05 0 0.0450111 0.000100941 0 0 0 0)
(-1.04721e-05 -0.000130501 0 0.0504665 0.000127613 0 0 0 0)
(0.000788911 -0.000344483 0 0.0511796 -0.000783842 0 0 0 0)
(0.00139649 0.000321388 0 0.0487378 -0.00138332 0 0 0 0)
(-7.45035e-05 -3.97718e-05 0 0.0554159 -7.38209e-07 0 0 0 0)
(8.22423e-06 -0.000135792 0 0.0581814 0.000134175 0 0 0 0)
(0.000752445 -0.000358927 0 0.05538 -0.000741439 0 0 0 0)
(0.00137956 0.000328054 0 0.0542159 -0.00137711 0 0 0 0)
(5.6571e-06 -4.79682e-05 0 0.068035 -7.57596e-05 0 0 0 0)
(-1.10707e-05 -0.000142846 0 0.0688132 2.52062e-05 0 0 0 0)
(0.000722819 -0.000369671 0 0.0643793 -0.000751294 0 0 0 0)
(0.00138642 0.000335559 0 0.0640675 -0.00131695 0 0 0 0)
(7.54892e-05 -5.56424e-05 0 0.0833718 -0.000132484 0 0 0 0)
(-5.27035e-05 -0.000147051 0 0.0829449 4.59421e-05 0 0 0 0)
(0.000673351 -0.000381296 0 0.0776853 -0.00063463 0 0 0 0)
(0.0013814 0.000343829 0 0.076985 -0.00128415 0 0 0 0)
(0.000139837 -6.15079e-05 0 0.102285 -0.000246441 0 0 0 0)
(-0.000105846 -0.000151215 0 0.101219 8.42334e-05 0 0 0 0)
(0.000623487 -0.000391839 0 0.0960369 -0.000668422 0 0 0 0)
(0.0013827 0.000349272 0 0.0946772 -0.00132222 0 0 0 0)
(0.000199963 -6.70727e-05 0 0.125283 -0.000191683 0 0 0 0)
(-0.000156844 -0.000154084 0 0.12429 0.000190414 0 0 0 0)
(0.000564325 -0.000404737 0 0.119755 -0.000484897 0 0 0 0)
(0.00136154 0.000356906 0 0.116963 -0.00123664 0 0 0 0)
(0.000261436 -7.19332e-05 0 0.153613 -0.00044155 0 0 0 0)
(-0.000197977 -0.000156102 0 0.152906 0.000163651 0 0 0 0)
(0.00050138 -0.000415624 0 0.149531 -0.000612022 0 0 0 0)
(0.00133185 0.000360053 0 0.144898 -0.00134933 0 0 0 0)
(0.000322784 -7.34505e-05 0 0.187852 -0.000316098 0 0 0 0)
(-0.000224889 -0.000156925 0 0.187721 0.000104679 0 0 0 0)
(0.000430865 -0.000429954 0 0.186097 -0.000460989 0 0 0 0)
(0.00126927 0.000366631 0 0.179019 -0.00130822 0 0 0 0)
(0.000384014 -8.3427e-05 0 0.229251 -0.000312987 0 0 0 0)
(-0.00022723 -0.000158516 0 0.229677 0.000421504 0 0 0 0)
(0.000356354 -0.000439172 0 0.23043 -0.000157581 0 0 0 0)
(0.00118361 0.000367899 0 0.220409 -0.000593456 0 0 0 0)
(0.000446438 -7.9097e-05 0 0.278763 -0.00072029 0 0 0 0)
(-0.000205241 -0.000154335 0 0.279886 0.000301649 0 0 0 0)
(0.000276411 -0.00044687 0 0.283493 -0.000366427 0 0 0 0)
(0.00104974 0.000373847 0 0.270056 -0.00146709 0 0 0 0)
(0.000501313 -7.77994e-05 0 0.337983 -0.000392577 0 0 0 0)
(-0.000148388 -0.000152619 0 0.339172 0.000225319 0 0 0 0)
(0.000192513 -0.000468651 0 0.346355 -7.19359e-05 0 0 0 0)
(0.000878262 0.000364542 0 0.329299 -0.000625404 0 0 0 0)
(0.000548697 -8.93429e-05 0 0.407635 -0.00065983 0 0 0 0)
(-6.56974e-05 -0.000148991 0 0.408923 0.000188942 0 0 0 0)
(0.000111873 -0.000461048 0 0.420248 -2.6886e-05 0 0 0 0)
(0.000644345 0.000376139 0 0.399347 -0.000238399 0 0 0 0)
(0.000575525 -7.85182e-05 0 0.489073 -0.00081255 0 0 0 0)
(6.18408e-05 -0.00014207 0 0.489827 -0.000500705 0 0 0 0)
(3.29077e-05 -0.000475773 0 0.5067 -0.000483525 0 0 0 0)
(0.000359636 0.000363464 0 0.481757 -0.00124179 0 0 0 0)
(0.000570626 -9.58683e-05 0 0.582934 -0.000187259 0 0 0 0)
(0.000228087 -0.000143507 0 0.583041 -0.000534678 0 0 0 0)
(-2.26244e-05 -0.0004734 0 0.599238 2.83177e-05 0 0 0 0)
(7.1196e-06 0.000367762 0 0.576264 0.000917185 0 0 0 0)
(0.000570216 -0.000107293 0 0.692865 -0.000501683 0 0 0 0)
(0.000333575 -0.000138477 0 0.69263 -0.000368191 0 0 0 0)
(-8.00437e-05 -0.000451576 0 0.702459 0.000138402 0 0 0 0)
(-0.000218343 0.000371434 0 0.685272 0.000330949 0 0 0 0)
(0.000604047 -9.86999e-05 0 0.820261 -0.000491673 0 0 0 0)
(0.000387984 -0.000132839 0 0.820808 -0.000541669 0 0 0 0)
(-0.000145244 -0.000461747 0 0.825956 1.08135e-06 0 0 0 0)
(-0.000398246 0.000354236 0 0.81219 0.000153973 0 0 0 0)
(0.000646371 -0.000114685 0 0.966281 -0.000377056 0 0 0 0)
(0.000428498 -0.000130264 0 0.967147 -0.000320119 0 0 0 0)
(-0.000223665 -0.000439982 0 0.968685 0.000473757 0 0 0 0)
(-0.000520155 0.000361194 0 0.957603 0.00128055 0 0 0 0)
(0.000716534 -0.000111924 0 1.13143 -0.000676253 0 0 0 0)
(0.000428048 -0.000118659 0 1.13342 -0.000452452 0 0 0 0)
(-0.000304299 -0.00043507 0 1.13199 0.000266664 0 0 0 0)
(-0.00062134 0.000344509 0 1.12275 0.000309719 0 0 0 0)
(0.000784768 -0.000112998 0 1.31859 -0.00069221 0 0 0 0)
(0.000437786 -0.000114549 0 1.32083 -0.000689401 0 0 0 0)
(-0.000401539 -0.000427279 0 1.31743 0.000240312 0 0 0 0)
(-0.000691286 0.000339745 0 1.30938 0.000852659 0 0 0 0)
(0.000876966 -0.00012646 0 1.52719 -0.000620667 0 0 0 0)
(0.000408636 -0.000103117 0 1.53168 -0.000488546 0 0 0 0)
(-0.000495098 -0.000409369 0 1.52656 0.000562437 0 0 0 0)
(-0.000755822 0.000331177 0 1.51874 0.000982974 0 0 0 0)
(0.000965636 -0.00012158 0 1.76154 -0.000853235 0 0 0 0)
(0.00042732 -9.48305e-05 0 1.76684 -0.000532327 0 0 0 0)
(-0.000617124 -0.000402753 0 1.76081 0.00056568 0 0 0 0)
(-0.000812097 0.000319564 0 1.75279 0.000903021 0 0 0 0)
(0.00108258 -0.000133412 0 2.01934 -0.000965251 0 0 0 0)
(0.000396475 -7.94681e-05 0 2.02828 -0.000491069 0 0 0 0)
(-0.00072925 -0.000385446 0 2.02152 0.000728256 0 0 0 0)
(-0.000869803 0.000308571 0 2.01261 0.00109046 0 0 0 0)
(0.00118955 -0.00012783 0 2.30565 -0.000990874 0 0 0 0)
(0.000463756 -6.66053e-05 0 2.31618 0.000130238 0 0 0 0)
(-0.000878351 -0.000376395 0 2.30985 0.00125323 0 0 0 0)
(-0.000937601 0.000294153 0 2.3 0.00112043 0 0 0 0)
(0.00131461 -0.00011081 0 2.61788 -0.00145684 0 0 0 0)
(0.000466417 -4.20663e-05 0 2.63228 -0.00183852 0 0 0 0)
(-0.000998936 -0.000368943 0 2.62651 0.000254868 0 0 0 0)
(-0.00100484 0.000268183 0 2.61566 0.000992659 0 0 0 0)
(0.00140915 -0.000187216 0 2.96078 -0.000793271 0 0 0 0)
(0.000607611 -3.80769e-05 0 2.97601 -0.00165936 0 0 0 0)
(-0.00115549 -0.000329208 0 2.97275 0.000286276 0 0 0 0)
(-0.00108383 0.000283929 0 2.96226 0.000322646 0 0 0 0)
(0.0014612 -0.00015494 0 3.33161 -0.00254957 0 0 0 0)
(0.000665888 -2.40739e-05 0 3.34727 0.00105277 0 0 0 0)
(-0.00122803 -0.000335909 0 3.34739 0.00285648 0 0 0 0)
(-0.00113566 0.000251977 0 3.33957 0.0028887 0 0 0 0)
(0.0014062 -0.000105263 0 3.76417 -0.00301428 0 0 0 0)
(0.00087064 5.2024e-05 0 3.76696 -0.00410378 0 0 0 0)
(-0.00128393 -0.00029861 0 3.76826 0.00046652 0 0 0 0)
(-0.00115587 0.00020716 0 3.76679 0.00138465 0 0 0 0)
(0.00127915 -0.000238676 0 5.8237 -0.000475159 0 0 0 0)
(0.000734106 3.39395e-05 0 5.77758 -0.000522676 0 0 0 0)
(-0.001231 -0.000244435 0 5.78297 0.000476295 0 0 0 0)
(-0.0011507 0.000254155 0 5.82247 8.59635e-05 0 0 0 0)
(-0.000113213 4.4789e-07 0 4.88183 0.000247968 0 0 0 0)
(1.00955e-05 -2.61453e-07 0 4.87275 -0.000104846 0 0 0 0)
(4.21574e-05 -3.39454e-07 0 4.88695 3.47746e-05 0 0 0 0)
(-0.000118784 -6.59112e-05 0 4.88095 5.18985e-05 0 0 0 0)
(-0.000301254 1.69332e-06 0 4.36978 0.000439593 0 0 0 0)
(7.53696e-05 -3.29177e-06 0 4.36422 -0.000183298 0 0 0 0)
(9.43933e-05 2.95186e-06 0 4.37745 -5.01906e-05 0 0 0 0)
(-1.25434e-05 1.40017e-05 0 4.37163 0.000220203 0 0 0 0)
(-0.000480758 3.13429e-06 0 3.89075 0.000656977 0 0 0 0)
(0.000137873 -8.42451e-06 0 3.88674 -0.000268852 0 0 0 0)
(0.000165817 6.38557e-06 0 3.89699 -0.000113587 0 0 0 0)
(9.56904e-05 -3.17451e-05 0 3.89468 0.000137498 0 0 0 0)
(-0.00065182 3.74183e-06 0 3.44997 0.000821568 0 0 0 0)
(0.000179419 -1.61345e-05 0 3.44648 -0.000302336 0 0 0 0)
(0.000226803 9.72436e-06 0 3.45335 -0.000173147 0 0 0 0)
(0.000212773 -8.78636e-06 0 3.45255 4.12645e-05 0 0 0 0)
(-0.000797096 3.76511e-06 0 3.04653 0.000974993 0 0 0 0)
(0.00019426 -2.50031e-05 0 3.04316 -0.000327272 0 0 0 0)
(0.00026698 1.21122e-05 0 3.04785 -0.000210267 0 0 0 0)
(0.000314133 1.70748e-06 0 3.04806 -8.71577e-05 0 0 0 0)
(-0.000915738 2.57061e-06 0 2.67831 0.00107973 0 0 0 0)
(0.000201545 -3.58888e-05 0 2.67489 -0.000323722 0 0 0 0)
(0.000308418 1.37263e-05 0 2.67867 -0.000252842 0 0 0 0)
(0.000386652 -2.01544e-05 0 2.6797 -0.000158776 0 0 0 0)
(-0.00100692 1.36497e-06 0 2.34391 0.00117995 0 0 0 0)
(0.00020032 -4.72126e-05 0 2.34049 -0.000329086 0 0 0 0)
(0.000347107 1.48613e-05 0 2.34381 -0.000288794 0 0 0 0)
(0.000424987 -4.91597e-06 0 2.34461 -0.000211507 0 0 0 0)
(-0.00107177 -9.04418e-07 0 2.04164 0.00123696 0 0 0 0)
(0.000199992 -6.03679e-05 0 2.03831 -0.000321867 0 0 0 0)
(0.000377211 1.56859e-05 0 2.04141 -0.000308112 0 0 0 0)
(0.000424152 -2.85061e-05 0 2.04113 -0.000225892 0 0 0 0)
(-0.00111027 -2.56923e-06 0 1.77007 0.00127695 0 0 0 0)
(0.000196447 -7.29638e-05 0 1.76689 -0.000323429 0 0 0 0)
(0.000394057 1.64609e-05 0 1.76988 -0.000341829 0 0 0 0)
(0.000388655 -1.19778e-05 0 1.7683 -0.000197103 0 0 0 0)
(-0.00112527 -5.16951e-06 0 1.52727 0.00129961 0 0 0 0)
(0.000196783 -8.73475e-05 0 1.52431 -0.000327282 0 0 0 0)
(0.00040083 1.77914e-05 0 1.52714 -0.000302567 0 0 0 0)
(0.000312657 -3.27791e-05 0 1.52427 -0.000150496 0 0 0 0)
(-0.00111297 -6.55122e-06 0 1.31162 0.00126847 0 0 0 0)
(0.000194308 -9.96668e-05 0 1.30867 -0.000308879 0 0 0 0)
(0.000393459 1.94073e-05 0 1.31143 -0.000355499 0 0 0 0)
(0.000212751 -2.06196e-05 0 1.30814 -2.2413e-05 0 0 0 0)
(-0.00108413 -8.35368e-06 0 1.12076 0.00126403 0 0 0 0)
(0.000193625 -0.000114414 0 1.1181 -0.000355038 0 0 0 0)
(0.00039205 2.25658e-05 0 1.12058 -0.000246947 0 0 0 0)
(8.14183e-05 -3.47421e-05 0 1.11717 0.000194093 0 0 0 0)
(-0.00102351 -7.74829e-06 0 0.953029 0.00119745 0 0 0 0)
(0.000191291 -0.00012485 0 0.951267 -0.000296143 0 0 0 0)
(0.000378025 2.85595e-05 0 0.952861 -0.000237872 0 0 0 0)
(-5.98659e-05 -2.78489e-05 0 0.949549 0.000433816 0 0 0 0)
(-0.000941568 -8.12572e-06 0 0.805931 0.00110802 0 0 0 0)
(0.000190826 -0.000138336 0 0.805487 -0.000288401 0 0 0 0)
(0.000363413 3.47318e-05 0 0.805946 -0.000399837 0 0 0 0)
(-0.00021831 -3.59284e-05 0 0.80361 0.000260744 0 0 0 0)
(-0.000825659 -7.94464e-06 0 0.678666 0.000944295 0 0 0 0)
(0.000191541 -0.000149981 0 0.67899 -0.000310801 0 0 0 0)
(0.000346733 3.77119e-05 0 0.678329 -0.000268726 0 0 0 0)
(-0.000356413 -2.89893e-05 0 0.677818 0.000183071 0 0 0 0)
(-0.000701587 -5.37946e-06 0 0.567412 0.000797983 0 0 0 0)
(0.000185208 -0.000158553 0 0.568318 -0.00023604 0 0 0 0)
(0.000343885 4.2963e-05 0 0.567607 -0.000306691 0 0 0 0)
(-0.000494443 -3.28764e-05 0 0.564178 0.000373127 0 0 0 0)
(-0.000581755 -3.34566e-06 0 0.471147 0.000686363 0 0 0 0)
(0.000194794 -0.000168392 0 0.472093 -0.000292992 0 0 0 0)
(0.000277738 4.78647e-05 0 0.472444 -0.000208233 0 0 0 0)
(-0.000652414 -2.38255e-05 0 0.465294 0.000475875 0 0 0 0)
(-0.000485835 2.04127e-06 0 0.390235 0.000581715 0 0 0 0)
(0.000206833 -0.000173463 0 0.390282 -0.00033103 0 0 0 0)
(0.000230568 5.57774e-05 0 0.391178 -3.43838e-05 0 0 0 0)
(-0.000813669 -2.60699e-05 0 0.384339 0.000904391 0 0 0 0)
(-0.000404853 6.97061e-06 0 0.321002 0.000525464 0 0 0 0)
(0.000210514 -0.00017866 0 0.320674 -0.000309779 0 0 0 0)
(0.000178686 6.84551e-05 0 0.321835 -6.6006e-06 0 0 0 0)
(-0.000940061 -1.90504e-05 0 0.315442 0.00120988 0 0 0 0)
(-0.000339501 1.41116e-05 0 0.262978 0.000487945 0 0 0 0)
(0.000220717 -0.00018233 0 0.262288 -0.000336885 0 0 0 0)
(0.000143379 8.1105e-05 0 0.263254 6.90236e-06 0 0 0 0)
(-0.00105749 -2.00486e-05 0 0.257598 0.00106038 0 0 0 0)
(-0.000286729 1.9908e-05 0 0.213946 0.000375389 0 0 0 0)
(0.000215099 -0.000186678 0 0.213263 -0.000320473 0 0 0 0)
(0.000100525 9.17429e-05 0 0.213909 1.61284e-05 0 0 0 0)
(-0.0011342 -1.3454e-05 0 0.208995 0.00111844 0 0 0 0)
(-0.000240434 2.88979e-05 0 0.173431 0.000366808 0 0 0 0)
(0.000220105 -0.000188318 0 0.172727 -0.000321854 0 0 0 0)
(7.22435e-05 0.000105087 0 0.17291 6.59304e-05 0 0 0 0)
(-0.00119837 -1.32168e-05 0 0.168912 0.00120692 0 0 0 0)
(-0.000203642 3.6703e-05 0 0.139888 0.000309866 0 0 0 0)
(0.000206411 -0.000191692 0 0.139104 -0.000313394 0 0 0 0)
(3.69328e-05 0.000117222 0 0.138798 9.50054e-05 0 0 0 0)
(-0.00122422 -7.4647e-06 0 0.135708 0.00120555 0 0 0 0)
(-0.000170276 4.71369e-05 0 0.112808 0.000296128 0 0 0 0)
(0.00020194 -0.000191899 0 0.111819 -0.000311316 0 0 0 0)
(1.56466e-05 0.000130403 0 0.110993 0.000106156 0 0 0 0)
(-0.00123744 -6.63206e-06 0 0.108793 0.00123575 0 0 0 0)
(-0.000145078 5.67076e-05 0 0.0909484 0.000277352 0 0 0 0)
(0.000176156 -0.000194858 0 0.0895441 -0.000269113 0 0 0 0)
(-1.3492e-05 0.000143007 0 0.0882161 0.000162119 0 0 0 0)
(-0.00122083 -1.5743e-06 0 0.0869059 0.00120259 0 0 0 0)
(-0.000125096 6.86059e-05 0 0.0743429 0.000210748 0 0 0 0)
(0.000156401 -0.00019382 0 0.0719134 -0.000288577 0 0 0 0)
(-2.83236e-05 0.000154931 0 0.0701034 0.000144415 0 0 0 0)
(-0.00119442 -7.8071e-07 0 0.069825 0.00113907 0 0 0 0)
(-0.000127172 7.9839e-05 0 0.0616681 0.000193577 0 0 0 0)
(0.000105499 -0.000195964 0 0.0582318 -0.000209494 0 0 0 0)
(-4.82992e-05 0.000166801 0 0.0555057 0.000199807 0 0 0 0)
(-0.00114706 3.17965e-06 0 0.0562959 0.00119588 0 0 0 0)
(-0.00013253 9.54321e-05 0 0.0531367 0.000222247 0 0 0 0)
(5.36949e-05 -0.000193716 0 0.0478567 -0.000169138 0 0 0 0)
(-6.05882e-05 0.000178354 0 0.0443275 0.000249316 0 0 0 0)
(-0.00109302 3.56029e-06 0 0.0463274 0.00112938 0 0 0 0)
(-0.000193439 0.000107331 0 0.0473619 0.000402311 0 0 0 0)
(-4.13204e-05 -0.000195513 0 0.0406469 -8.40193e-05 0 0 0 0)
(-7.3787e-05 0.000188443 0 0.0356209 0.000141653 0 0 0 0)
(-0.00103422 6.27074e-06 0 0.0391239 0.000939268 0 0 0 0)
(-0.000254074 0.00012313 0 0.0434574 0.000417009 0 0 0 0)
(-0.000141988 -0.00019806 0 0.0401678 9.43236e-05 0 0 0 0)
(-8.59714e-05 0.000195409 0 0.0321713 0.000190205 0 0 0 0)
(-0.000975543 7.18709e-06 0 0.0331509 0.000976254 0 0 0 0)
(-0.000235861 0.000135721 0 0.0421621 0.000316321 0 0 0 0)
(-0.000229421 -0.000199293 0 0.0409849 0.000245104 0 0 0 0)
(-0.000190734 0.000203142 0 0.0316803 0.000148192 0 0 0 0)
(-0.0010272 8.71643e-06 0 0.0305779 0.000911721 0 0 0 0)
(-0.000260618 0.000150866 0 0.0442385 0.000151131 0 0 0 0)
(-0.000316686 -0.000200862 0 0.0414861 0.000411924 0 0 0 0)
(-0.000259422 0.000206519 0 0.0338477 0.000203232 0 0 0 0)
(-0.00101379 9.27643e-06 0 0.0333948 0.00100023 0 0 0 0)
(-0.00029902 0.000164829 0 0.0484491 0.000141529 0 0 0 0)
(-0.000402601 -0.000198424 0 0.0464648 0.00050758 0 0 0 0)
(-0.000325589 0.000212947 0 0.0404462 0.000290347 0 0 0 0)
(-0.000983419 7.53747e-06 0 0.0392637 0.00109553 0 0 0 0)
(-0.000298502 0.000182381 0 0.0547755 0.000108871 0 0 0 0)
(-0.000450068 -0.000198382 0 0.054412 0.000528789 0 0 0 0)
(-0.00037944 0.000216318 0 0.0493555 0.000363791 0 0 0 0)
(-0.000937712 6.11967e-06 0 0.0479838 0.00101471 0 0 0 0)
(-0.000295751 0.000196594 0 0.0644901 0.000195203 0 0 0 0)
(-0.000492934 -0.000194176 0 0.0652741 0.00060975 0 0 0 0)
(-0.000432726 0.000221046 0 0.0611626 0.000397971 0 0 0 0)
(-0.000882413 1.46198e-06 0 0.0598136 0.000977443 0 0 0 0)
(-0.000278392 0.000214492 0 0.0774625 0.000188152 0 0 0 0)
(-0.000505526 -0.000195002 0 0.0797809 0.000599509 0 0 0 0)
(-0.000470448 0.000222446 0 0.0761473 0.000413491 0 0 0 0)
(-0.000823173 -1.77583e-06 0 0.0748941 0.000858325 0 0 0 0)
(-0.000249151 0.000227988 0 0.0948455 0.000116198 0 0 0 0)
(-0.000514853 -0.00019042 0 0.0984822 0.000606388 0 0 0 0)
(-0.000514173 0.000225359 0 0.094971 0.00048009 0 0 0 0)
(-0.000762004 -7.63759e-06 0 0.0937503 0.000770051 0 0 0 0)
(-0.000214975 0.000246636 0 0.116704 0.000161924 0 0 0 0)
(-0.000503434 -0.000188938 0 0.121845 0.000627686 0 0 0 0)
(-0.000549313 0.000225174 0 0.118312 0.000498069 0 0 0 0)
(-0.000701266 -1.38847e-05 0 0.116994 0.000815935 0 0 0 0)
(-0.00016778 0.00025906 0 0.143994 -2.85216e-05 0 0 0 0)
(-0.000488038 -0.000184818 0 0.150715 0.000547192 0 0 0 0)
(-0.000595036 0.000228497 0 0.146826 0.000548146 0 0 0 0)
(-0.000645833 -1.91334e-05 0 0.145536 0.000546316 0 0 0 0)
(-0.00011803 0.000278245 0 0.177203 9.78519e-06 0 0 0 0)
(-0.000456244 -0.000179326 0 0.18565 0.000518487 0 0 0 0)
(-0.00063562 0.000225159 0 0.181491 0.000610341 0 0 0 0)
(-0.000588138 -3.03796e-05 0 0.180366 0.000794303 0 0 0 0)
(-5.72632e-05 0.000289505 0 0.217258 0.000275403 0 0 0 0)
(-0.000416559 -0.000174809 0 0.227678 0.000708914 0 0 0 0)
(-0.000683105 0.000233094 0 0.222962 0.000697379 0 0 0 0)
(-0.000539821 -3.45741e-05 0 0.222257 0.000760297 0 0 0 0)
(3.10915e-06 0.000299951 0 0.265172 -0.000567831 0 0 0 0)
(-0.000361183 -0.000172293 0 0.277525 0.000222344 0 0 0 0)
(-0.000725958 0.000226016 0 0.272748 0.00044171 0 0 0 0)
(-0.000483314 -4.72191e-05 0 0.272848 -3.60066e-05 0 0 0 0)
(6.72256e-05 0.000317663 0 0.322032 6.55813e-05 0 0 0 0)
(-0.000290288 -0.000157983 0 0.336172 0.00042229 0 0 0 0)
(-0.000761052 0.000228788 0 0.33121 0.000724128 0 0 0 0)
(-0.000439586 -5.39408e-05 0 0.333036 0.000840071 0 0 0 0)
(0.000117658 0.000317412 0 0.389131 -9.15737e-05 0 0 0 0)
(-0.000208217 -0.000161318 0 0.40449 0.000463458 0 0 0 0)
(-0.000778229 0.000232979 0 0.400068 0.000767744 0 0 0 0)
(-0.00037043 -6.58308e-05 0 0.40447 0.000232075 0 0 0 0)
(0.000152948 0.00032936 0 0.468467 -0.00098614 0 0 0 0)
(-0.000107996 -0.000143661 0 0.486229 -9.9419e-05 0 0 0 0)
(-0.00076138 0.000224931 0 0.482074 0.000610635 0 0 0 0)
(-0.000313481 -7.77337e-05 0 0.488511 -0.000109179 0 0 0 0)
(0.000192199 0.000336452 0 0.564559 0.000506477 0 0 0 0)
(1.85658e-05 -0.000134705 0 0.582977 0.000483565 0 0 0 0)
(-0.000740201 0.000232816 0 0.578732 0.00112507 0 0 0 0)
(-0.000253772 -8.95506e-05 0 0.583359 0.0011918 0 0 0 0)
(0.00026483 0.000322133 0 0.678137 -0.000673171 0 0 0 0)
(0.000128223 -0.000133351 0 0.694268 -5.04865e-05 0 0 0 0)
(-0.000755003 0.000236735 0 0.689444 0.000649702 0 0 0 0)
(-0.000243455 -9.96059e-05 0 0.690624 -0.000198294 0 0 0 0)
(0.000342123 0.000330095 0 0.807847 -0.000613286 0 0 0 0)
(0.000207006 -0.000112657 0 0.821456 -0.000309161 0 0 0 0)
(-0.000800926 0.000230353 0 0.816309 0.000712587 0 0 0 0)
(-0.000196744 -0.00010874 0 0.816238 -9.81338e-05 0 0 0 0)
(0.000419266 0.000314414 0 0.9553 -0.00010984 0 0 0 0)
(0.000269256 -0.000111253 0 0.96647 -4.3137e-05 0 0 0 0)
(-0.000841971 0.000240252 0 0.9616 0.000897492 0 0 0 0)
(-0.0001776 -0.000119677 0 0.960397 0.000473302 0 0 0 0)
(0.000489898 0.000308033 0 1.12172 -0.00102028 0 0 0 0)
(0.000312019 -9.5868e-05 0 1.13106 -0.000445534 0 0 0 0)
(-0.000902132 0.00023896 0 1.1267 0.000692081 0 0 0 0)
(-0.000118728 -0.000129983 0 1.12512 -0.000553673 0 0 0 0)
(0.000557773 0.000301827 0 1.30936 -0.000559624 0 0 0 0)
(0.000352313 -8.27137e-05 0 1.31683 -0.000262899 0 0 0 0)
(-0.000941003 0.00023845 0 1.31333 0.00105786 0 0 0 0)
(-9.88133e-05 -0.000142482 0 1.31121 0.000182767 0 0 0 0)
(0.000613973 0.000289441 0 1.51931 -0.000648395 0 0 0 0)
(0.000378159 -6.89099e-05 0 1.52552 -0.000301212 0 0 0 0)
(-0.000995841 0.000246388 0 1.52302 0.000983273 0 0 0 0)
(-3.09736e-05 -0.000159151 0 1.52083 2.63955e-05 0 0 0 0)
(0.00067071 0.000280424 0 1.75397 -0.000790681 0 0 0 0)
(0.000414212 -5.55192e-05 0 1.75863 -0.000360575 0 0 0 0)
(-0.00101922 0.00024391 0 1.7572 0.00102654 0 0 0 0)
(-2.94352e-05 -0.000169215 0 1.7545 -0.000115197 0 0 0 0)
(0.0007113 0.000268381 0 2.01399 -0.000796452 0 0 0 0)
(0.00043205 -3.86229e-05 0 2.01747 -0.000365397 0 0 0 0)
(-0.00106463 0.000250477 0 2.01776 0.00105281 0 0 0 0)
(4.12785e-05 -0.00019048 0 2.01485 -0.000116097 0 0 0 0)
(0.000751726 0.000256159 0 2.30175 -0.00117008 0 0 0 0)
(0.00047706 -2.46982e-05 0 2.30317 -0.000424412 0 0 0 0)
(-0.00106293 0.000248065 0 2.30543 0.000636147 0 0 0 0)
(-3.21462e-06 -0.000202849 0 2.30226 -0.00122587 0 0 0 0)
(0.000764112 0.000242633 0 2.61773 -0.000358552 0 0 0 0)
(0.000493468 -8.51916e-06 0 2.61694 -0.00044511 0 0 0 0)
(-0.00107979 0.00023712 0 2.62195 0.00182968 0 0 0 0)
(4.4951e-05 -0.000217597 0 2.61911 0.00172462 0 0 0 0)
(0.00077306 0.000232197 0 2.9649 -0.000686046 0 0 0 0)
(0.000547244 1.17723e-05 0 2.96047 -0.000460465 0 0 0 0)
(-0.00102672 0.000284227 0 2.96876 0.00166916 0 0 0 0)
(-7.10265e-05 -0.000257624 0 2.96721 0.000988418 0 0 0 0)
(0.000734164 0.000229581 0 3.34307 -0.00174964 0 0 0 0)
(0.00055774 3.07343e-05 0 3.33369 -0.000344361 0 0 0 0)
(-0.000967329 0.000261268 0 3.34596 -0.000578641 0 0 0 0)
(-8.79685e-05 -0.000258638 0 3.34745 -0.00386439 0 0 0 0)
(0.00067519 0.000178312 0 3.76736 0.000597178 0 0 0 0)
(0.000595503 3.1289e-05 0 3.75439 -0.000831974 0 0 0 0)
(-0.000797458 0.00022556 0 3.76904 0.000617177 0 0 0 0)
(-0.000310275 -0.000290473 0 3.77789 0.000920362 0 0 0 0)
(0.000527533 0.000192638 0 5.80139 -0.000682977 0 0 0 0)
(0.000585848 3.10676e-05 0 5.78823 -0.000591861 0 0 0 0)
(-0.000575684 0.000290473 0 5.80388 0.000490907 0 0 0 0)
(-0.000169249 -0.000319162 0 5.82179 -0.000202842 0 0 0 0)
(0.000669327 -0.000110593 0 21.8279 0.00377877 0 0 0 0)
(0.000191672 6.78816e-05 0 21.3898 0.0123371 0 0 0 0)
(-0.000535675 -0.000288466 0 21.4278 0.00458033 0 0 0 0)
(-0.000848721 0.000187839 0 21.9913 0.00422365 0 0 0 0)
(-0.00275142 4.40368e-05 0 35.7265 0.00542854 0 0 0 0)
(-0.00593328 4.72988e-05 0 35.4233 -0.00752799 0 0 0 0)
(0.00879404 -0.00037966 0 35.4692 -0.0130487 0 0 0 0)
(0.0049014 0.000120897 0 35.9184 -0.0112944 0 0 0 0)
(-0.00360987 -0.0004776 0 33.4899 -0.00243305 0 0 0 0)
(-0.00409798 -0.000240072 0 33.6849 0.00281035 0 0 0 0)
(0.0077161 -0.00035124 0 33.706 -0.00789064 0 0 0 0)
(0.00458676 0.000466502 0 33.5435 -0.00212453 0 0 0 0)
(-0.00339667 0.000157453 0 29.7431 0.00454227 0 0 0 0)
(-0.00233166 -4.36611e-05 0 29.9421 0.0124325 0 0 0 0)
(0.00643694 -0.000461909 0 29.9471 -0.000740254 0 0 0 0)
(0.00376351 0.000259209 0 29.7776 0.000773308 0 0 0 0)
(-0.00269736 -9.38851e-05 0 26.3136 0.00417255 0 0 0 0)
(-0.000698205 -0.000328114 0 26.4806 -0.00849158 0 0 0 0)
(0.00497395 -0.00054556 0 26.4677 -0.0110072 0 0 0 0)
(0.00283722 0.000442387 0 26.3048 -0.00868829 0 0 0 0)
(-0.0016887 -0.000194293 0 23.1672 -0.000306404 0 0 0 0)
(0.000236433 -0.000296657 0 23.3002 0.00237085 0 0 0 0)
(0.00350753 -0.000465187 0 23.2725 -0.00115713 0 0 0 0)
(0.00181792 0.000504119 0 23.1267 0.00170251 0 0 0 0)
(-0.000548802 -5.02211e-05 0 20.2992 0.00245365 0 0 0 0)
(0.00105659 -0.000342293 0 20.3894 -0.000116754 0 0 0 0)
(0.00208275 -0.000556699 0 20.3591 -0.00126669 0 0 0 0)