/*--------------------------------*- C++ -*----------------------------------*\
  =========                 |
  \\      /  F ield         | OpenFOAM: The Open Source CFD Toolbox
   \\    /   O peration     | Website:  https://openfoam.org
    \\  /    A nd           | Version:  dev
     \\/     M anipulation  |

   OpenFOAM for Windows 20.09 (v1)
   Built by CFD Support, www.cfdsupport.com (based on Symscape).
\*---------------------------------------------------------------------------*/
FoamFile
{
    version     2.0;
    format      ascii;
    class       volVectorField;
    location    "6";
    object      gradp;
}
// * * * * * * * * * * * * * * * * * * * * * * * * * * * * * * * * * * * * * //

dimensions      [1 -2 -2 0 0 0 0];

internalField   nonuniform List<vector> 
960
(
(3.74221 -107.76 0)
(-1.50491 -98.7499 0)
(-1.27608 -98.1402 0)
(-1.25386 -98.1131 0)
(3.73161 -107.85 0)
(-1.34487 -98.7504 0)
(-1.26548 -98.1408 0)
(-1.254 -98.1139 0)
(3.73173 -98.2327 0)
(-1.3431 -98.0805 0)
(-1.26547 -98.1014 0)
(-1.25397 -98.1084 0)
(3.73215 -98.3263 0)
(-1.34268 -98.103 0)
(-1.26595 -98.1018 0)
(-1.25415 -98.1085 0)
(3.7319 -98.4115 0)
(-1.33936 -98.1301 0)
(-1.26556 -98.1024 0)
(-1.25446 -98.102 0)
(3.73189 -98.32 0)
(-1.33753 -98.1129 0)
(-1.26548 -98.1029 0)
(-1.25443 -98.1022 0)
(3.73196 -98.3153 0)
(-1.33574 -98.1149 0)
(-1.26538 -98.1033 0)
(-1.2544 -98.1025 0)
(3.73193 -98.3111 0)
(-1.33399 -98.1169 0)
(-1.26527 -98.1036 0)
(-1.25437 -98.1029 0)
(3.7319 -98.3067 0)
(-1.33228 -98.1189 0)
(-1.26515 -98.1041 0)
(-1.25433 -98.1032 0)
(3.73185 -98.3028 0)
(-1.33061 -98.1208 0)
(-1.26501 -98.1047 0)
(-1.25428 -98.1036 0)
(3.73178 -98.2884 0)
(-1.32898 -98.1154 0)
(-1.26486 -98.1053 0)
(-1.2542 -98.1039 0)
(3.73187 -98.2846 0)
(-1.32756 -98.1164 0)
(-1.26482 -98.0804 0)
(-1.25425 -98.1042 0)
(3.73173 -98.2716 0)
(-1.32558 -98.1 0)
(-1.26466 -98.0677 0)
(-1.25412 -98.1037 0)
(3.73211 -98.2691 0)
(-1.32416 -98.1041 0)
(-1.26488 -98.0924 0)
(-1.25361 -98.101 0)
(3.73086 -97.5555 0)
(-1.32263 -97.4432 0)
(-1.26461 -97.8812 0)
(-1.24529 -97.7979 0)
(3.7368 -98.7565 0)
(-1.32959 -98.4295 0)
(-1.2708 -98.3652 0)
(-1.25372 -98.2336 0)
(3.72463 -99.5118 0)
(-1.31611 -99.1348 0)
(-1.26134 -98.5896 0)
(-1.24562 -98.5365 0)
(3.72466 -98.3076 0)
(-1.31422 -98.1582 0)
(-1.26082 -98.1071 0)
(-1.24565 -98.1016 0)
(3.72483 -98.2889 0)
(-1.31277 -98.1593 0)
(-1.2604 -98.1078 0)
(-1.24564 -98.0946 0)
(3.72488 -98.2861 0)
(-1.31121 -98.16 0)
(-1.25975 -98.1083 0)
(-1.24557 -98.0884 0)
(3.72504 -98.2751 0)
(-1.30981 -98.1535 0)
(-1.25921 -98.1087 0)
(-1.24549 -98.0836 0)
(3.7252 -98.2724 0)
(-1.30843 -98.1544 0)
(-1.25858 -98.1063 0)
(-1.24542 -98.0846 0)
(3.72535 -98.266 0)
(-1.30704 -98.152 0)
(-1.25804 -98.1121 0)
(-1.24544 -98.0904 0)
(3.72551 -98.2646 0)
(-1.30587 -98.1544 0)
(-1.25755 -98.1157 0)
(-1.24527 -98.0902 0)
(3.7257 -98.2666 0)
(-1.30456 -98.159 0)
(-1.25697 -98.1112 0)
(-1.24517 -98.09 0)
(3.72583 -98.2638 0)
(-1.30328 -98.1583 0)
(-1.2564 -98.1115 0)
(-1.24506 -98.0744 0)
(3.72596 -98.2618 0)
(-1.30202 -98.1586 0)
(-1.25557 -98.112 0)
(-1.24481 -98.075 0)
(3.72608 -98.2599 0)
(-1.30078 -98.1603 0)
(-1.25501 -98.113 0)
(-1.24491 -98.0957 0)
(3.72619 -96.7852 0)
(-1.29957 -96.3262 0)
(-1.2545 -96.7927 0)
(-1.24477 -98.0451 0)
(3.74245 -97.5472 0)
(-1.30091 -96.5669 0)
(-1.28366 -97.0548 0)
(-1.25546 -97.9462 0)
(3.74997 -99.0203 0)
(-1.29136 -98.4193 0)
(-1.27749 -98.3783 0)
(-1.25994 -98.8765 0)
(3.74988 -98.2563 0)
(-1.29021 -98.1961 0)
(-1.29128 -98.117 0)
(-1.25966 -98.9612 0)
(3.74981 -98.2507 0)
(-1.28904 -98.1977 0)
(-1.29024 -98.1114 0)
(-1.2594 -98.0666 0)
(3.74956 -98.2562 0)
(-1.28789 -98.2051 0)
(-1.28909 -98.1097 0)
(-1.25919 -98.0758 0)
(3.74945 -98.259 0)
(-1.2866 -98.2055 0)
(-1.28808 -98.1116 0)
(-1.25895 -98.0819 0)
(3.74937 -98.2515 0)
(-1.28543 -98.1994 0)
(-1.28703 -98.1119 0)
(-1.25871 -98.0724 0)
(3.74929 -98.2502 0)
(-1.28427 -98.1994 0)
(-1.28597 -98.1092 0)
(-1.25847 -98.0721 0)
(3.7492 -98.2488 0)
(-1.28308 -98.1978 0)
(-1.28491 -98.1129 0)
(-1.25825 -98.0746 0)
(3.74914 -98.2433 0)
(-1.28201 -98.1982 0)
(-1.28391 -98.1168 0)
(-1.258 -98.0763 0)
(3.74896 -98.2502 0)
(-1.28097 -98.2001 0)
(-1.28288 -98.1142 0)
(-1.25774 -98.0763 0)
(3.74896 -98.253 0)
(-1.27974 -98.1984 0)
(-1.28185 -98.1021 0)
(-1.25749 -98.0706 0)
(3.74889 -98.2446 0)
(-1.27846 -98.196 0)
(-1.28075 -98.1022 0)
(-1.25741 -98.0738 0)
(3.74889 -98.2442 0)
(-1.27737 -98.1955 0)
(-1.27981 -98.1138 0)
(-1.25718 -98.0797 0)
(3.74846 -97.5416 0)
(-1.27628 -97.2644 0)
(-1.27882 -98.1145 0)
(-1.25694 -98.0769 0)
(3.76073 -98.5456 0)
(-1.28691 -97.8483 0)
(-1.29336 -97.568 0)
(-1.2567 -97.5535 0)
(3.73911 -99.5403 0)
(-1.25999 -98.7922 0)
(-1.27391 -98.2252 0)
(-1.25448 -98.7937 0)
(3.74742 -98.5366 0)
(-1.265 -98.2456 0)
(-1.29338 -98.7796 0)
(-1.25896 -99.3181 0)
(3.74672 -98.2414 0)
(-1.26404 -98.2806 0)
(-1.29178 -98.1295 0)
(-1.25859 -98.0792 0)
(3.7459 -98.2382 0)
(-1.26313 -98.2565 0)
(-1.29002 -98.1286 0)
(-1.25822 -98.0777 0)
(3.74563 -98.2285 0)
(-1.26221 -98.2141 0)
(-1.2888 -98.1153 0)
(-1.25786 -98.0683 0)
(3.74556 -98.2372 0)
(-1.26124 -98.214 0)
(-1.28759 -98.1201 0)
(-1.25771 -98.0704 0)
(3.74535 -98.2463 0)
(-1.26026 -98.2206 0)
(-1.28641 -98.1319 0)
(-1.25726 -98.0819 0)
(3.74516 -98.2375 0)
(-1.25934 -98.2182 0)
(-1.28528 -98.1263 0)
(-1.25709 -98.0815 0)
(3.74498 -98.2376 0)
(-1.25841 -98.217 0)
(-1.28413 -98.1259 0)
(-1.25678 -98.0792 0)
(3.74483 -98.2376 0)
(-1.25747 -98.2168 0)
(-1.28299 -98.1259 0)
(-1.25647 -98.0797 0)
(3.74468 -98.2305 0)
(-1.25655 -98.2155 0)
(-1.28185 -98.1242 0)
(-1.25616 -98.0716 0)
(3.74421 -98.2285 0)
(-1.2557 -98.2235 0)
(-1.28059 -98.1322 0)
(-1.25553 -98.0767 0)
(3.74362 -98.2332 0)
(-1.25494 -98.222 0)
(-1.2794 -98.1314 0)
(-1.25511 -98.0828 0)
(3.7435 -97.5278 0)
(-1.254 -97.7445 0)
(-1.27827 -97.6509 0)
(-1.25483 -97.4693 0)
(3.74195 -75.1203 0)
(-1.25699 -75.8848 0)
(-1.27482 -75.8051 0)
(-1.25445 -75.1757 0)
(-1.24871 -98.1484 0)
(-1.22881 -98.0979 0)
(-1.21742 -98.1508 0)
(3.98758 -98.1128 0)
(-1.24846 -98.1476 0)
(-1.22885 -98.1013 0)
(-1.21766 -98.1507 0)
(3.82771 -98.1218 0)
(-1.2485 -98.1108 0)
(-1.22886 -98.104 0)
(-1.21776 -98.1106 0)
(3.82593 -98.1132 0)
(-1.24839 -98.1311 0)
(-1.22884 -98.106 0)
(-1.21782 -98.1111 0)
(3.82567 -98.1132 0)
(-1.24846 -98.1191 0)
(-1.22853 -98.1064 0)
(-1.21788 -98.1107 0)
(3.82235 -98.1142 0)
(-1.24846 -98.0995 0)
(-1.2287 -98.102 0)
(-1.21795 -98.111 0)
(3.82066 -98.1163 0)
(-1.24846 -98.0993 0)
(-1.22872 -98.1022 0)
(-1.21812 -98.1017 0)
(3.81886 -98.1174 0)
(-1.24845 -98.0992 0)
(-1.22874 -98.1025 0)
(-1.2182 -98.1018 0)
(3.8171 -98.1132 0)
(-1.24845 -98.0988 0)
(-1.22877 -98.1025 0)
(-1.21829 -98.1019 0)
(3.81538 -98.1142 0)
(-1.24844 -98.097 0)
(-1.2288 -98.0993 0)
(-1.2184 -98.094 0)
(3.81369 -98.1136 0)
(-1.24838 -98.1036 0)
(-1.22872 -98.1095 0)
(-1.21853 -98.1026 0)
(3.8119 -98.1166 0)
(-1.24854 -98.0758 0)
(-1.22878 -98.1135 0)
(-1.21852 -98.0919 0)
(3.81059 -98.1136 0)
(-1.24853 -98.0296 0)
(-1.22899 -98.1042 0)
(-1.21854 -98.0599 0)
(3.80869 -98.1141 0)
(-1.24854 -97.5623 0)
(-1.22928 -98.1039 0)
(-1.21868 -98.0824 0)
(3.80706 -98.0521 0)
(-1.24858 -97.8877 0)
(-1.23765 -97.7315 0)
(-1.21767 -97.7809 0)
(3.80557 -97.7247 0)
(-1.24744 -98.3849 0)
(-1.2275 -98.1021 0)
(-1.21857 -98.2686 0)
(3.81082 -98.0555 0)
(-1.24639 -98.1054 0)
(-1.23572 -98.4738 0)
(-1.21689 -98.6181 0)
(3.79744 -98.4061 0)
(-1.24639 -98.1085 0)
(-1.23605 -98.1026 0)
(-1.21744 -98.1437 0)
(3.79593 -98.1702 0)
(-1.24641 -98.1031 0)
(-1.2363 -98.1029 0)
(-1.21802 -98.1302 0)
(3.79471 -98.1725 0)
(-1.24653 -98.0997 0)
(-1.2365 -98.0995 0)
(-1.2186 -98.1243 0)
(3.79328 -98.1727 0)
(-1.24659 -98.0996 0)
(-1.23671 -98.1 0)
(-1.21924 -98.1244 0)
(3.79201 -98.1729 0)
(-1.2468 -98.1032 0)
(-1.23691 -98.1045 0)
(-1.21982 -98.124 0)
(3.79077 -98.1729 0)
(-1.24692 -98.1029 0)
(-1.23706 -98.1048 0)
(-1.22038 -98.1271 0)
(3.78954 -98.1707 0)
(-1.24704 -98.0993 0)
(-1.23732 -98.1046 0)
(-1.22092 -98.1282 0)
(3.78845 -98.1756 0)
(-1.24716 -98.0989 0)
(-1.23754 -98.1048 0)
(-1.22156 -98.126 0)
(3.78727 -98.1782 0)
(-1.24729 -98.0899 0)
(-1.23777 -98.099 0)
(-1.22214 -98.1262 0)
(3.78611 -98.1738 0)
(-1.24757 -98.1025 0)
(-1.23815 -98.0993 0)
(-1.22281 -98.1265 0)
(3.78497 -98.1738 0)
(-1.24769 -98.1108 0)
(-1.23817 -98.1126 0)
(-1.22338 -98.1271 0)
(3.78385 -98.1739 0)
(-1.24786 -97.4262 0)
(-1.23842 -98.1098 0)
(-1.22383 -97.1499 0)
(3.78276 -97.3081 0)
(-1.24877 -97.9648 0)
(-1.23356 -97.8372 0)
(-1.21002 -97.5682 0)
(3.78993 -97.994 0)
(-1.24604 -98.6303 0)
(-1.23181 -98.6752 0)
(-1.22645 -98.5492 0)
(3.78311 -98.8652 0)
(-1.24542 -98.0844 0)
(-1.23221 -98.9384 0)
(-1.21319 -98.1347 0)
(3.78208 -98.1863 0)
(-1.24566 -98.0827 0)
(-1.23265 -98.1022 0)
(-1.21391 -98.1292 0)
(3.78108 -98.1782 0)
(-1.24601 -98.083 0)
(-1.23299 -98.1058 0)
(-1.21445 -98.1362 0)
(3.78006 -98.1835 0)
(-1.24616 -98.0833 0)
(-1.23353 -98.1077 0)
(-1.21521 -98.1431 0)
(3.77908 -98.1945 0)
(-1.24644 -98.0831 0)
(-1.23398 -98.1074 0)
(-1.2159 -98.137 0)
(3.77812 -98.1898 0)
(-1.24674 -98.0812 0)
(-1.23443 -98.1077 0)
(-1.21658 -98.1372 0)
(3.77718 -98.1894 0)
(-1.24703 -98.0842 0)
(-1.23491 -98.1081 0)
(-1.21726 -98.1374 0)
(3.77624 -98.1891 0)
(-1.2473 -98.0865 0)
(-1.23532 -98.1063 0)
(-1.21793 -98.1336 0)
(3.77532 -98.1836 0)
(-1.24753 -98.0837 0)
(-1.2357 -98.107 0)
(-1.21855 -98.1367 0)
(3.77441 -98.189 0)
(-1.24781 -98.0825 0)
(-1.2362 -98.1087 0)
(-1.2193 -98.1413 0)
(3.77343 -98.1944 0)
(-1.24817 -98.084 0)
(-1.23668 -98.1088 0)
(-1.21997 -98.1399 0)
(3.77255 -98.1919 0)
(-1.24839 -98.0853 0)
(-1.23714 -98.1051 0)
(-1.22068 -98.1289 0)
(3.77169 -98.1692 0)
(-1.24859 -98.0854 0)
(-1.23741 -97.6979 0)
(-1.22104 -97.9723 0)
(3.77063 -97.975 0)
(-1.24208 -97.4203 0)
(-1.23525 -97.7664 0)
(-1.2253 -97.6067 0)
(3.77886 -97.2876 0)
(-1.25214 -98.3612 0)
(-1.24052 -98.1777 0)
(-1.21306 -97.9839 0)
(3.75498 -97.9933 0)
(-1.23181 -99.0266 0)
(-1.22896 -98.1069 0)
(-1.22223 -98.3504 0)
(3.75292 -98.7024 0)
(-1.23195 -98.0849 0)
(-1.22925 -98.0956 0)
(-1.22299 -98.1179 0)
(3.75188 -98.1894 0)
(-1.23208 -98.0844 0)
(-1.22951 -98.0941 0)
(-1.22379 -98.1172 0)
(3.75086 -98.1906 0)
(-1.23223 -98.0848 0)
(-1.22979 -98.0936 0)
(-1.22459 -98.1181 0)
(3.74986 -98.1938 0)
(-1.2325 -98.0846 0)
(-1.23007 -98.0947 0)
(-1.22546 -98.1189 0)
(3.74902 -98.1974 0)
(-1.23263 -98.0946 0)
(-1.23036 -98.0892 0)
(-1.22631 -98.1181 0)
(3.74789 -98.1965 0)
(-1.23263 -98.0971 0)
(-1.23046 -98.0957 0)
(-1.22725 -98.1176 0)
(3.74689 -98.1963 0)
(-1.23287 -98.0885 0)
(-1.23071 -98.1014 0)
(-1.22798 -98.1184 0)
(3.74589 -98.1972 0)
(-1.233 -98.0889 0)
(-1.23096 -98.0946 0)
(-1.22885 -98.1185 0)
(3.7449 -98.1984 0)
(-1.23312 -98.0682 0)
(-1.2312 -98.0811 0)
(-1.22971 -98.102 0)
(3.74391 -98.178 0)
(-1.23315 -98.0694 0)
(-1.23152 -98.0828 0)
(-1.23046 -98.0954 0)
(3.74276 -98.1603 0)
(-1.23322 -98.0893 0)
(-1.23163 -98.0975 0)
(-1.231 -98.114 0)
(3.74169 -98.1796 0)
(-1.2334 -97.611 0)
(-1.23193 -97.6082 0)
(-1.23183 -97.6063 0)
(3.74077 -97.6442 0)
(-1.23553 -75.5682 0)
(-1.23155 -75.4809 0)
(-1.2316 -75.5562 0)
(3.74299 -75.5832 0)
(3.73847 -32.1093 0)
(-1.26542 -32.7882 0)
(-1.26645 -32.7447 0)
(-1.25088 -32.0885 0)
(3.73783 -10.3131 0)
(-1.26758 -10.4539 0)
(-1.26316 -10.4339 0)
(-1.24901 -10.2481 0)
(3.7378 -9.82595 0)
(-1.26743 -9.82376 0)
(-1.26302 -9.80735 0)
(-1.249 -9.80613 0)
(3.73774 -9.8261 0)
(-1.26727 -9.82133 0)
(-1.26286 -9.80594 0)
(-1.24898 -9.80432 0)
(3.73779 -9.82529 0)
(-1.2671 -9.82078 0)
(-1.26274 -9.80682 0)
(-1.24901 -9.80504 0)
(3.73775 -9.82502 0)
(-1.26696 -9.82276 0)
(-1.2626 -9.80888 0)
(-1.249 -9.80618 0)
(3.73771 -9.82484 0)
(-1.26683 -9.82172 0)
(-1.26246 -9.80865 0)
(-1.24899 -9.80565 0)
(3.73771 -9.82445 0)
(-1.26669 -9.82118 0)
(-1.26233 -9.80874 0)
(-1.24899 -9.80578 0)
(3.73769 -9.82465 0)
(-1.26656 -9.82105 0)
(-1.2622 -9.80918 0)
(-1.24899 -9.8061 0)
(3.73769 -9.82432 0)
(-1.26644 -9.82062 0)
(-1.26208 -9.80933 0)
(-1.24899 -9.80636 0)
(3.73769 -9.82364 0)
(-1.26631 -9.81893 0)
(-1.26196 -9.80828 0)
(-1.249 -9.80482 0)
(3.73772 -9.82388 0)
(-1.26618 -9.81678 0)
(-1.26185 -9.80738 0)
(-1.24902 -9.80475 0)
(3.7378 -9.82405 0)
(-1.26604 -9.8159 0)
(-1.26176 -9.80771 0)
(-1.24906 -9.8062 0)
(3.73789 -9.82339 0)
(-1.26591 -9.81572 0)
(-1.26169 -9.80877 0)
(-1.2491 -9.80654 0)
(3.73799 -9.82257 0)
(-1.2658 -9.81799 0)
(-1.26161 -9.81256 0)
(-1.24914 -9.81013 0)
(3.73803 -9.82023 0)
(-1.26574 -9.82131 0)
(-1.26155 -9.81614 0)
(-1.24914 -9.81101 0)
(3.73798 -9.8174 0)
(-1.26573 -9.82201 0)
(-1.26144 -9.81681 0)
(-1.24909 -9.80817 0)
(3.73793 -9.8161 0)
(-1.26573 -9.8214 0)
(-1.26132 -9.8169 0)
(-1.24904 -9.80788 0)
(3.73788 -9.81559 0)
(-1.26574 -9.81988 0)
(-1.26121 -9.81571 0)
(-1.24899 -9.80633 0)
(3.73787 -9.81566 0)
(-1.26573 -9.81794 0)
(-1.2611 -9.81442 0)
(-1.24895 -9.80596 0)
(3.7379 -9.81622 0)
(-1.26572 -9.8174 0)
(-1.26101 -9.81466 0)
(-1.24893 -9.80765 0)
(3.73793 -9.81619 0)
(-1.26571 -9.81752 0)
(-1.26094 -9.81483 0)
(-1.24891 -9.80795 0)
(3.73795 -9.816 0)
(-1.2657 -9.81762 0)
(-1.26085 -9.81487 0)
(-1.24888 -9.80809 0)
(3.73796 -9.81597 0)
(-1.26569 -9.81776 0)
(-1.26078 -9.81503 0)
(-1.24886 -9.80833 0)
(3.73797 -9.81585 0)
(-1.26568 -9.81789 0)
(-1.2607 -9.81511 0)
(-1.24883 -9.80848 0)
(3.73798 -9.81581 0)
(-1.26568 -9.81801 0)
(-1.26062 -9.81521 0)
(-1.2488 -9.80868 0)
(3.73797 -9.81574 0)
(-1.26567 -9.81804 0)
(-1.26054 -9.8152 0)
(-1.24877 -9.80877 0)
(3.73797 -9.81561 0)
(-1.26567 -9.81797 0)
(-1.26047 -9.81493 0)
(-1.24874 -9.8086 0)
(3.73796 -9.81541 0)
(-1.26566 -9.8176 0)
(-1.26039 -9.81405 0)
(-1.24871 -9.80818 0)
(3.73795 -9.81524 0)
(-1.26564 -9.81679 0)
(-1.26031 -9.8125 0)
(-1.24869 -9.80756 0)
(3.73795 -9.81517 0)
(-1.26561 -9.81599 0)
(-1.26023 -9.81092 0)
(-1.24867 -9.80718 0)
(3.73797 -9.81519 0)
(-1.26557 -9.81522 0)
(-1.26016 -9.80964 0)
(-1.24866 -9.80701 0)
(3.73799 -9.81526 0)
(-1.26552 -9.8146 0)
(-1.2601 -9.80897 0)
(-1.24866 -9.80703 0)
(3.73801 -9.81527 0)
(-1.26547 -9.81444 0)
(-1.26004 -9.80896 0)
(-1.24866 -9.8073 0)
(3.73804 -9.81521 0)
(-1.26542 -9.81448 0)
(-1.25998 -9.80898 0)
(-1.24866 -9.80744 0)
(3.73805 -9.81513 0)
(-1.26536 -9.81458 0)
(-1.25992 -9.80898 0)
(-1.24866 -9.80758 0)
(3.73807 -9.8151 0)
(-1.26531 -9.8148 0)
(-1.25986 -9.8091 0)
(-1.24866 -9.80783 0)
(3.73807 -9.81508 0)
(-1.26526 -9.81498 0)
(-1.2598 -9.80922 0)
(-1.24865 -9.80809 0)
(3.73807 -9.81505 0)
(-1.26522 -9.81507 0)
(-1.25975 -9.80932 0)
(-1.24865 -9.80835 0)
(3.73807 -9.81499 0)
(-1.26517 -9.81516 0)
(-1.25969 -9.80942 0)
(-1.24865 -9.80859 0)
(3.73806 -9.81494 0)
(-1.26512 -9.81527 0)
(-1.25964 -9.80954 0)
(-1.24864 -9.80884 0)
(3.73805 -9.81489 0)
(-1.26508 -9.81541 0)
(-1.25958 -9.80967 0)
(-1.24864 -9.80909 0)
(3.73803 -9.81465 0)
(-1.26504 -9.81538 0)
(-1.25953 -9.80972 0)
(-1.24863 -9.80899 0)
(3.73801 -9.81397 0)
(-1.265 -9.81468 0)
(-1.25948 -9.80958 0)
(-1.24862 -9.80832 0)
(3.73799 -9.81293 0)
(-1.26496 -9.8132 0)
(-1.25942 -9.80929 0)
(-1.24861 -9.80748 0)
(3.738 -9.81189 0)
(-1.26494 -9.8114 0)
(-1.25938 -9.80897 0)
(-1.2486 -9.80676 0)
(3.73802 -9.81104 0)
(-1.26492 -9.80983 0)
(-1.25935 -9.80876 0)
(-1.2486 -9.80643 0)
(3.73807 -9.81065 0)
(-1.2649 -9.80895 0)
(-1.25932 -9.80877 0)
(-1.24861 -9.80668 0)
(3.73812 -9.81056 0)
(-1.26488 -9.80881 0)
(-1.25931 -9.8089 0)
(-1.24861 -9.80708 0)
(3.73817 -9.81053 0)
(-1.26487 -9.80897 0)
(-1.2593 -9.80903 0)
(-1.24862 -9.80735 0)
(3.73821 -9.81051 0)
(-1.26486 -9.80909 0)
(-1.25928 -9.80914 0)
(-1.24862 -9.80761 0)
(3.73825 -9.81048 0)
(-1.26485 -9.80919 0)
(-1.25927 -9.80923 0)
(-1.24863 -9.80786 0)
(3.73828 -9.81044 0)
(-1.26484 -9.80928 0)
(-1.25926 -9.80932 0)
(-1.24863 -9.80812 0)
(3.73831 -9.81038 0)
(-1.26483 -9.80936 0)
(-1.25925 -9.80941 0)
(-1.24863 -9.80839 0)
(3.73833 -9.8103 0)
(-1.26482 -9.80945 0)
(-1.25924 -9.80951 0)
(-1.24863 -9.80865 0)
(3.73835 -9.81022 0)
(-1.26482 -9.80954 0)
(-1.25924 -9.80961 0)
(-1.24863 -9.8089 0)
(3.73837 -9.81015 0)
(-1.26481 -9.80963 0)
(-1.25923 -9.80972 0)
(-1.24864 -9.80916 0)
(3.73838 -9.81008 0)
(-1.26481 -9.80971 0)
(-1.25923 -9.80983 0)
(-1.24864 -9.80941 0)
(3.73839 -9.81003 0)
(-1.26481 -9.80979 0)
(-1.25923 -9.80992 0)
(-1.24864 -9.80964 0)
(3.7384 -9.81 0)
(-1.26481 -9.80991 0)
(-1.25923 -9.80998 0)
(-1.24864 -9.80987 0)
(-1.23849 -32.4182 0)
(-1.23173 -32.2603 0)
(-1.23354 -32.4412 0)
(3.74804 -32.5411 0)
(-1.2384 -10.3205 0)
(-1.23194 -10.2469 0)
(-1.23628 -10.3395 0)
(3.74853 -10.4133 0)
(-1.23847 -9.80573 0)
(-1.23205 -9.8152 0)
(-1.23631 -9.81925 0)
(3.74848 -9.81796 0)
(-1.23855 -9.80684 0)
(-1.23216 -9.81478 0)
(-1.23633 -9.82038 0)
(3.74841 -9.8207 0)
(-1.23864 -9.80781 0)
(-1.23227 -9.81469 0)
(-1.23641 -9.8204 0)
(3.74838 -9.8214 0)
(-1.23871 -9.80757 0)
(-1.23237 -9.81468 0)
(-1.23644 -9.81902 0)
(3.74833 -9.81841 0)
(-1.23878 -9.80819 0)
(-1.23247 -9.81441 0)
(-1.23647 -9.8193 0)
(3.74828 -9.81932 0)
(-1.23885 -9.8088 0)
(-1.23256 -9.81429 0)
(-1.23652 -9.81942 0)
(3.74824 -9.81988 0)
(-1.23892 -9.80941 0)
(-1.23264 -9.81423 0)
(-1.23657 -9.81933 0)
(3.7482 -9.81999 0)
(-1.23899 -9.8099 0)
(-1.23272 -9.81411 0)
(-1.23662 -9.81934 0)
(3.74815 -9.82024 0)
(-1.23905 -9.80971 0)
(-1.2328 -9.81339 0)
(-1.23667 -9.81962 0)
(3.74811 -9.82086 0)
(-1.23913 -9.81099 0)
(-1.23289 -9.81333 0)
(-1.23674 -9.82069 0)
(3.74808 -9.82387 0)
(-1.2392 -9.81273 0)
(-1.23296 -9.81354 0)
(-1.23684 -9.82113 0)
(3.74806 -9.82624 0)
(-1.23925 -9.8134 0)
(-1.23303 -9.81272 0)
(-1.23695 -9.81991 0)
(3.74804 -9.8268 0)
(-1.2393 -9.81492 0)
(-1.23307 -9.81225 0)
(-1.23708 -9.81721 0)
(3.748 -9.82592 0)
(-1.23929 -9.81352 0)
(-1.23307 -9.81039 0)
(-1.23718 -9.81281 0)
(3.74795 -9.82063 0)
(-1.23929 -9.81079 0)
(-1.23306 -9.80759 0)
(-1.23725 -9.8092 0)
(3.74788 -9.81605 0)
(-1.23928 -9.81056 0)
(-1.23304 -9.80645 0)
(-1.23732 -9.80804 0)
(3.74781 -9.81587 0)
(-1.23926 -9.81005 0)
(-1.23302 -9.80562 0)
(-1.23741 -9.80797 0)
(3.74774 -9.81647 0)
(-1.23927 -9.8108 0)
(-1.233 -9.80547 0)
(-1.2375 -9.80874 0)
(3.74768 -9.81877 0)
(-1.23926 -9.81227 0)
(-1.23298 -9.80597 0)
(-1.23763 -9.80936 0)
(3.74763 -9.82089 0)
(-1.23924 -9.81221 0)
(-1.23296 -9.80594 0)
(-1.23775 -9.80911 0)
(3.74757 -9.82043 0)
(-1.23922 -9.812 0)
(-1.23293 -9.80599 0)
(-1.23787 -9.80879 0)
(3.74751 -9.81973 0)
(-1.23921 -9.8119 0)
(-1.2329 -9.80611 0)
(-1.23798 -9.80855 0)
(3.74745 -9.81923 0)
(-1.23919 -9.81175 0)
(-1.23287 -9.80614 0)
(-1.23809 -9.80829 0)
(3.74739 -9.81861 0)
(-1.23917 -9.81167 0)
(-1.23284 -9.80623 0)
(-1.23819 -9.8081 0)
(3.74732 -9.81808 0)
(-1.23915 -9.81156 0)
(-1.23281 -9.80631 0)
(-1.23829 -9.80796 0)
(3.74726 -9.81759 0)
(-1.23913 -9.81132 0)
(-1.23278 -9.80648 0)
(-1.23838 -9.80803 0)
(3.74719 -9.81701 0)
(-1.23911 -9.81084 0)
(-1.23276 -9.80702 0)
(-1.23846 -9.8088 0)
(3.74713 -9.81658 0)
(-1.23911 -9.81013 0)
(-1.23275 -9.80803 0)
(-1.23854 -9.81036 0)
(3.74708 -9.81662 0)
(-1.23912 -9.80947 0)
(-1.23276 -9.80933 0)
(-1.2386 -9.81219 0)
(3.74705 -9.81691 0)
(-1.23914 -9.80904 0)
(-1.2328 -9.81058 0)
(-1.23866 -9.81387 0)
(3.74703 -9.81727 0)
(-1.23918 -9.80889 0)
(-1.23284 -9.81141 0)
(-1.23872 -9.81488 0)
(3.74703 -9.8175 0)
(-1.23921 -9.80888 0)
(-1.2329 -9.81182 0)
(-1.23876 -9.81508 0)
(3.74703 -9.81732 0)
(-1.23925 -9.80881 0)
(-1.23295 -9.81199 0)
(-1.23881 -9.815 0)
(3.74703 -9.81686 0)
(-1.23929 -9.80879 0)
(-1.233 -9.81211 0)
(-1.23885 -9.81489 0)
(3.74702 -9.81637 0)
(-1.23933 -9.80882 0)
(-1.23305 -9.81225 0)
(-1.23888 -9.81475 0)
(3.74702 -9.81584 0)
(-1.23936 -9.80884 0)
(-1.2331 -9.81239 0)
(-1.23891 -9.81463 0)
(3.74702 -9.81533 0)
(-1.2394 -9.80886 0)
(-1.23315 -9.81254 0)
(-1.23893 -9.81454 0)
(3.74701 -9.8149 0)
(-1.23943 -9.80887 0)
(-1.23319 -9.81268 0)
(-1.23894 -9.81446 0)
(3.74701 -9.81448 0)
(-1.23947 -9.80887 0)
(-1.23324 -9.81282 0)
(-1.23896 -9.81436 0)
(3.747 -9.81405 0)
(-1.2395 -9.80887 0)
(-1.23328 -9.81295 0)
(-1.23897 -9.81422 0)
(3.747 -9.81361 0)
(-1.23953 -9.80869 0)
(-1.23333 -9.81281 0)
(-1.23897 -9.81394 0)
(3.74699 -9.81299 0)
(-1.23956 -9.8084 0)
(-1.23337 -9.81216 0)
(-1.23897 -9.81346 0)
(3.74699 -9.81247 0)
(-1.2396 -9.80836 0)
(-1.23341 -9.81116 0)
(-1.23897 -9.8129 0)
(3.74698 -9.8126 0)
(-1.23963 -9.80856 0)
(-1.23345 -9.81008 0)
(-1.23899 -9.81231 0)
(3.74699 -9.81321 0)
(-1.23965 -9.80892 0)
(-1.23348 -9.80922 0)
(-1.23903 -9.81188 0)
(3.74699 -9.81401 0)
(-1.23967 -9.80939 0)
(-1.2335 -9.80887 0)
(-1.23907 -9.81164 0)
(3.747 -9.8147 0)
(-1.23969 -9.80961 0)
(-1.23351 -9.80888 0)
(-1.23912 -9.8115 0)
(3.74701 -9.81474 0)
(-1.2397 -9.80962 0)
(-1.23353 -9.80897 0)
(-1.23917 -9.81135 0)
(3.74702 -9.81431 0)
(-1.23971 -9.80963 0)
(-1.23354 -9.80907 0)
(-1.23921 -9.81121 0)
(3.74702 -9.81388 0)
(-1.23973 -9.80965 0)
(-1.23355 -9.80918 0)
(-1.23925 -9.81109 0)
(3.74703 -9.81344 0)
(-1.23974 -9.80968 0)
(-1.23357 -9.80928 0)
(-1.23928 -9.81096 0)
(3.74703 -9.81301 0)
(-1.23975 -9.8097 0)
(-1.23358 -9.80938 0)
(-1.23931 -9.81086 0)
(3.74704 -9.81261 0)
(-1.23975 -9.80974 0)
(-1.23358 -9.80948 0)
(-1.23934 -9.81074 0)
(3.74704 -9.81222 0)
(-1.23976 -9.80977 0)
(-1.23359 -9.80957 0)
(-1.23936 -9.81062 0)
(3.74704 -9.81182 0)
(-1.23976 -9.80981 0)
(-1.2336 -9.80967 0)
(-1.23937 -9.81049 0)
(3.74705 -9.81142 0)
(-1.23977 -9.80986 0)
(-1.2336 -9.80976 0)
(-1.23939 -9.81035 0)
(3.74705 -9.81102 0)
(-1.23977 -9.80991 0)
(-1.23361 -9.80985 0)
(-1.2394 -9.81021 0)
(3.74705 -9.81066 0)
(-1.23977 -9.80997 0)
(-1.23361 -9.80995 0)
(-1.2394 -9.81007 0)
(3.74705 -9.81025 0)
)
;

boundaryField
{
    topWall
    {
        type            extrapolatedCalculated;
        value           nonuniform List<vector> 8((3.7384 -9.81 0) (-1.26481 -9.80991 0) (-1.25923 -9.80998 0) (-1.24864 -9.80987 0) (-1.23977 -9.80997 0) (-1.23361 -9.80995 0) (-1.2394 -9.81007 0) (3.74705 -9.81025 0));
    }
    botWall
    {
        type            extrapolatedCalculated;
        value           nonuniform List<vector> 8((3.74221 -107.76 0) (-1.50491 -98.7499 0) (-1.27608 -98.1402 0) (-1.25386 -98.1131 0) (-1.24871 -98.1484 0) (-1.22881 -98.0979 0) (-1.21742 -98.1508 0) (3.98758 -98.1128 0));
    }
    inlet
    {
        type            cyclic;
    }
    outlet
    {
        type            cyclic;
    }
    fixWall
    {
        type            empty;
    }
}


// ************************************************************************* //
