/*--------------------------------*- C++ -*----------------------------------*\
  =========                 |
  \\      /  F ield         | OpenFOAM: The Open Source CFD Toolbox
   \\    /   O peration     | Website:  https://openfoam.org
    \\  /    A nd           | Version:  dev
     \\/     M anipulation  |

   OpenFOAM for Windows 20.09 (v1)
   Built by CFD Support, www.cfdsupport.com (based on Symscape).
\*---------------------------------------------------------------------------*/
FoamFile
{
    version     2.0;
    format      ascii;
    class       volVectorField;
    location    "6";
    object      gradp_rgh;
}
// * * * * * * * * * * * * * * * * * * * * * * * * * * * * * * * * * * * * * //

dimensions      [1 -2 -2 0 0 0 0];

internalField   nonuniform List<vector> 
960
(
(-1.25778 -9.65132 0)
(-1.50505 -0.649337 0)
(-1.27609 -0.0401125 0)
(-1.25386 -0.0130321 0)
(-1.26839 -9.75807 0)
(-1.34487 -0.651025 0)
(-1.26548 -0.0407471 0)
(-1.254 -0.0138559 0)
(-1.26827 -0.133266 0)
(-1.3431 0.0194094 0)
(-1.26547 -0.00143223 0)
(-1.25397 -0.00840454 0)
(-1.26785 -0.226488 0)
(-1.34267 -0.00304746 0)
(-1.26595 -0.00185564 0)
(-1.25415 -0.00851359 0)
(-1.2681 -0.311281 0)
(-1.33935 -0.0300534 0)
(-1.26556 -0.00241698 0)
(-1.25445 -0.00200892 0)
(-1.26811 -0.219875 0)
(-1.33752 -0.0128072 0)
(-1.26548 -0.00299813 0)
(-1.25443 -0.00233494 0)
(-1.26804 -0.215075 0)
(-1.33574 -0.0147688 0)
(-1.26538 -0.00339913 0)
(-1.2544 -0.00266408 0)
(-1.26807 -0.210984 0)
(-1.33399 -0.0168251 0)
(-1.26528 -0.00371911 0)
(-1.25437 -0.00300178 0)
(-1.2681 -0.206635 0)
(-1.33228 -0.0188533 0)
(-1.26515 -0.00422598 0)
(-1.25433 -0.00335352 0)
(-1.26814 -0.202689 0)
(-1.33062 -0.0207275 0)
(-1.26502 -0.00485107 0)
(-1.25428 -0.00374002 0)
(-1.26821 -0.188248 0)
(-1.32899 -0.0152498 0)
(-1.26487 -0.00550359 0)
(-1.2542 -0.00411108 0)
(-1.26811 -0.184517 0)
(-1.32757 -0.0163892 0)
(-1.26483 0.0191714 0)
(-1.25425 -0.0045459 0)
(-1.26826 -0.171872 0)
(-1.32559 -0.000339116 0)
(-1.26467 0.0317856 0)
(-1.25411 -0.0038041 0)
(-1.26789 -0.163738 0)
(-1.32418 -0.000837362 0)
(-1.26489 0.0117118 0)
(-1.25359 -0.00218165 0)
(-1.26906 0.560479 0)
(-1.32267 0.669982 0)
(-1.2647 0.226349 0)
(-1.24544 0.296676 0)
(-1.26304 -0.662519 0)
(-1.32975 -0.333209 0)
(-1.27111 -0.268456 0)
(-1.25388 -0.13182 0)
(-1.27538 -1.4278 0)
(-1.3161 -1.04797 0)
(-1.26134 -0.496298 0)
(-1.24562 -0.430601 0)
(-1.27534 -0.207085 0)
(-1.31422 -0.0580345 0)
(-1.26082 -0.00734409 0)
(-1.24565 -0.00185654 0)
(-1.27517 -0.188904 0)
(-1.31277 -0.059374 0)
(-1.2604 -0.00808227 0)
(-1.24564 0.00503725 0)
(-1.27512 -0.186431 0)
(-1.31121 -0.0603553 0)
(-1.25975 -0.00871366 0)
(-1.24558 0.0110953 0)
(-1.27496 -0.175564 0)
(-1.30981 -0.053944 0)
(-1.25921 -0.00905279 0)
(-1.24549 0.0160073 0)
(-1.2748 -0.172946 0)
(-1.30843 -0.0549308 0)
(-1.25858 -0.0065903 0)
(-1.24542 0.0152104 0)
(-1.27466 -0.166392 0)
(-1.30704 -0.0523376 0)
(-1.25804 -0.0121359 0)
(-1.24544 0.00967231 0)
(-1.27449 -0.164751 0)
(-1.30586 -0.0545528 0)
(-1.25755 -0.0154418 0)
(-1.24526 0.0102201 0)
(-1.2743 -0.166479 0)
(-1.30455 -0.0588269 0)
(-1.25696 -0.0106824 0)
(-1.24516 0.0105516 0)
(-1.27417 -0.163227 0)
(-1.30327 -0.0575881 0)
(-1.25639 -0.0106843 0)
(-1.24506 0.0262378 0)
(-1.27404 -0.161107 0)
(-1.30201 -0.0579937 0)
(-1.25557 -0.0118058 0)
(-1.24481 0.0249904 0)
(-1.27392 -0.159177 0)
(-1.30078 -0.05978 0)
(-1.25501 -0.0127339 0)
(-1.24491 0.00407936 0)
(-1.27382 1.35342 0)
(-1.29956 1.82189 0)
(-1.2545 1.34201 0)
(-1.24479 0.0774471 0)
(-1.25713 0.571875 0)
(-1.30097 1.57624 0)
(-1.28408 1.07366 0)
(-1.25633 0.179312 0)
(-1.24939 -0.95818 0)
(-1.2912 -0.366948 0)
(-1.27778 -0.312885 0)
(-1.26048 -0.798429 0)
(-1.25013 -0.175461 0)
(-1.29021 -0.139501 0)
(-1.29128 -0.0456448 0)
(-1.25966 -0.886326 0)
(-1.2502 -0.151205 0)
(-1.28904 -0.0979801 0)
(-1.29023 -0.0113419 0)
(-1.2594 0.0331519 0)
(-1.25044 -0.156089 0)
(-1.28788 -0.104926 0)
(-1.28909 -0.00950562 0)
(-1.25918 0.0243593 0)
(-1.25055 -0.158588 0)
(-1.28659 -0.105038 0)
(-1.28808 -0.0111721 0)
(-1.25895 0.0186224 0)
(-1.25062 -0.151 0)
(-1.28542 -0.0989112 0)
(-1.28703 -0.0115274 0)
(-1.25871 0.0279011 0)
(-1.25071 -0.149672 0)
(-1.28427 -0.0988988 0)
(-1.28596 -0.00894904 0)
(-1.25847 0.0280297 0)
(-1.25079 -0.148317 0)
(-1.28308 -0.0974442 0)
(-1.28491 -0.0128047 0)
(-1.25825 0.0252338 0)
(-1.25086 -0.142966 0)
(-1.28201 -0.0980921 0)
(-1.28392 -0.0170061 0)
(-1.25799 0.0233236 0)
(-1.25104 -0.150257 0)
(-1.28098 -0.100417 0)
(-1.28289 -0.0146844 0)
(-1.25774 0.0231807 0)
(-1.25105 -0.153473 0)
(-1.27975 -0.0991622 0)
(-1.28186 -0.00293827 0)
(-1.25748 0.028868 0)
(-1.25111 -0.145737 0)
(-1.27847 -0.096817 0)
(-1.28076 -0.00259026 0)
(-1.2574 0.0261302 0)
(-1.25112 -0.146586 0)
(-1.27737 -0.0959058 0)
(-1.27981 -0.0126338 0)
(-1.25717 0.0216124 0)
(-1.25153 0.529536 0)
(-1.27624 0.799211 0)
(-1.2788 -0.0099224 0)
(-1.25695 0.0514366 0)
(-1.23974 -0.433556 0)
(-1.28636 0.23742 0)
(-1.29227 0.557582 0)
(-1.25658 0.595297 0)
(-1.26146 -1.41267 0)
(-1.25972 -0.655598 0)
(-1.27283 -0.129133 0)
(-1.25428 -0.721362 0)
(-1.25257 -0.44849 0)
(-1.26497 -0.132074 0)
(-1.29337 -0.706942 0)
(-1.25896 -1.26923 0)
(-1.25327 -0.141836 0)
(-1.26403 -0.182953 0)
(-1.29179 -0.0322449 0)
(-1.2586 0.0177991 0)
(-1.25412 -0.138603 0)
(-1.26314 -0.158456 0)
(-1.29002 -0.0304971 0)
(-1.25822 0.0205859 0)
(-1.2544 -0.129092 0)
(-1.26223 -0.115061 0)
(-1.2888 -0.016277 0)
(-1.25785 0.030603 0)
(-1.25447 -0.137364 0)
(-1.26126 -0.114404 0)
(-1.2876 -0.0205387 0)
(-1.25771 0.0289479 0)
(-1.25468 -0.14587 0)
(-1.26028 -0.120281 0)
(-1.28641 -0.0312514 0)
(-1.25727 0.0185027 0)
(-1.25486 -0.137244 0)
(-1.25935 -0.117436 0)
(-1.28528 -0.02532 0)
(-1.25709 0.019589 0)
(-1.25503 -0.137079 0)
(-1.25841 -0.115946 0)
(-1.28413 -0.0246418 0)
(-1.25678 0.0223221 0)
(-1.25518 -0.136827 0)
(-1.25747 -0.11539 0)
(-1.28298 -0.0244285 0)
(-1.25647 0.0218196 0)
(-1.25532 -0.129778 0)
(-1.25654 -0.114301 0)
(-1.28184 -0.0231587 0)
(-1.25618 0.0296087 0)
(-1.25579 -0.128212 0)
(-1.2557 -0.123096 0)
(-1.28058 -0.032042 0)
(-1.25554 0.0237214 0)
(-1.25638 -0.157759 0)
(-1.25494 -0.179765 0)
(-1.2794 -0.050659 0)
(-1.25512 0.00457749 0)
(-1.25701 -81.9437 0)
(-1.25391 -54.2818 0)
(-1.27751 -55.1307 0)
(-1.2553 -71.3299 0)
(-1.08795 -2589.17 0)
(-0.808053 -2571.85 0)
(-1.56353 -2572.63 0)
(-1.26746 -2593.98 0)
(-1.24871 -0.0484169 0)
(-1.22881 0.00210346 0)
(-1.21742 -0.0506275 0)
(-1.01228 -0.0127906 0)
(-1.24846 -0.0473423 0)
(-1.22885 -0.00124698 0)
(-1.21766 -0.0508102 0)
(-1.17229 -0.0218987 0)
(-1.2485 -0.0106322 0)
(-1.22887 -0.00391914 0)
(-1.21776 -0.0107192 0)
(-1.17407 -0.0132778 0)
(-1.24839 -0.031073 0)
(-1.22885 -0.00598606 0)
(-1.21782 -0.0110527 0)
(-1.17434 -0.0131975 0)
(-1.24846 -0.0192038 0)
(-1.22853 -0.00641408 0)
(-1.21788 -0.0106721 0)
(-1.17766 -0.0142136 0)
(-1.24846 0.000321413 0)
(-1.22871 -0.00212735 0)
(-1.21795 -0.0111351 0)
(-1.17935 -0.0163528 0)
(-1.24846 0.00036704 0)
(-1.22872 -0.00243467 0)
(-1.21812 -0.00204184 0)
(-1.18114 -0.0175587 0)
(-1.24846 0.000482784 0)
(-1.22875 -0.00273106 0)
(-1.2182 -0.00223047 0)
(-1.1829 -0.0134149 0)
(-1.24845 0.000852045 0)
(-1.22877 -0.00273421 0)
(-1.21829 -0.00236376 0)
(-1.18462 -0.0144434 0)
(-1.24845 0.00273053 0)
(-1.2288 0.000511677 0)
(-1.2184 0.00560618 0)
(-1.1863 -0.0138044 0)
(-1.24838 -0.00364835 0)
(-1.22872 -0.00951512 0)
(-1.21853 -0.00276848 0)
(-1.18809 -0.016716 0)
(-1.24854 0.0245374 0)
(-1.22878 -0.0131094 0)
(-1.21852 0.00819621 0)
(-1.18939 -0.0136253 0)
(-1.24852 0.0711497 0)
(-1.22899 -0.00353033 0)
(-1.21854 0.0404678 0)
(-1.1913 -0.0138172 0)
(-1.24853 0.531891 0)
(-1.2293 -0.00377213 0)
(-1.21869 0.0164976 0)
(-1.19293 0.0471777 0)
(-1.24855 0.209454 0)
(-1.23758 0.37343 0)
(-1.21769 0.313106 0)
(-1.19431 0.378856 0)
(-1.24725 -0.278941 0)
(-1.22757 -0.00212307 0)
(-1.2186 -0.166655 0)
(-1.18881 0.0457942 0)
(-1.24639 -0.00297304 0)
(-1.23571 -0.379098 0)
(-1.21689 -0.511793 0)
(-1.20257 -0.309566 0)
(-1.24639 -0.00860312 0)
(-1.23605 -0.00305681 0)
(-1.21744 -0.0440323 0)
(-1.20407 -0.0705931 0)
(-1.24641 -0.00336823 0)
(-1.2363 -0.00319987 0)
(-1.21802 -0.0304326 0)
(-1.20529 -0.0727702 0)
(-1.24653 -4.17722e-05 0)
(-1.2365 0.000207255 0)
(-1.2186 -0.0245574 0)
(-1.20672 -0.0728646 0)
(-1.24659 0.000282315 0)
(-1.23671 -9.02032e-05 0)
(-1.21924 -0.0245738 0)
(-1.20799 -0.0730911 0)
(-1.2468 -0.00322747 0)
(-1.23691 -0.00440313 0)
(-1.21982 -0.0240967 0)
(-1.20923 -0.0731395 0)
(-1.24692 -0.00270886 0)
(-1.23706 -0.00453257 0)
(-1.22038 -0.027071 0)
(-1.21047 -0.0708992 0)
(-1.24704 0.00105578 0)
(-1.23732 -0.00432549 0)
(-1.22092 -0.028135 0)
(-1.21155 -0.0755764 0)
(-1.24716 0.00142514 0)
(-1.23755 -0.00449692 0)
(-1.22157 -0.02587 0)
(-1.21274 -0.0779437 0)
(-1.24729 0.0104896 0)
(-1.23778 0.00126086 0)
(-1.22215 -0.0259999 0)
(-1.2139 -0.0734191 0)
(-1.24758 -0.00258118 0)
(-1.23815 0.000582707 0)
(-1.22282 -0.0263931 0)
(-1.21503 -0.0733635 0)
(-1.24769 -0.0112491 0)
(-1.23817 -0.0126236 0)
(-1.22338 -0.0267507 0)
(-1.21614 -0.0733054 0)
(-1.24786 0.656367 0)
(-1.23841 0.00544891 0)
(-1.22383 0.975748 0)
(-1.21724 0.814789 0)
(-1.24889 0.131807 0)
(-1.23285 0.285445 0)
(-1.20989 0.546849 0)
(-1.20985 0.110963 0)
(-1.24609 -0.512498 0)
(-1.2315 -0.589972 0)
(-1.22673 -0.474213 0)
(-1.21682 -0.787353 0)
(-1.24542 0.0196339 0)
(-1.23221 -0.86088 0)
(-1.21318 -0.0496351 0)
(-1.21791 -0.0914184 0)
(-1.24566 0.0172793 0)
(-1.23265 -0.00232948 0)
(-1.21391 -0.0295367 0)
(-1.21892 -0.078962 0)
(-1.24601 0.0172182 0)
(-1.23299 -0.00559279 0)
(-1.21446 -0.0362305 0)
(-1.21994 -0.0837172 0)
(-1.24616 0.017162 0)
(-1.23354 -0.00733424 0)
(-1.21521 -0.0427122 0)
(-1.22091 -0.0941875 0)
(-1.24644 0.0172308 0)
(-1.23399 -0.00713757 0)
(-1.2159 -0.0366891 0)
(-1.22187 -0.089377 0)
(-1.24675 0.018955 0)
(-1.23444 -0.00744671 0)
(-1.21658 -0.0368121 0)
(-1.22282 -0.0888025 0)
(-1.24703 0.0157748 0)
(-1.23492 -0.00794927 0)
(-1.21726 -0.0370946 0)
(-1.22375 -0.0885262 0)
(-1.2473 0.0134489 0)
(-1.23532 -0.00624198 0)
(-1.21793 -0.0332902 0)
(-1.22467 -0.083151 0)
(-1.24753 0.0160569 0)
(-1.2357 -0.00694143 0)
(-1.21854 -0.036631 0)
(-1.22558 -0.0889265 0)
(-1.2478 0.0171861 0)
(-1.2362 -0.00876453 0)
(-1.21929 -0.0413706 0)
(-1.22657 -0.0947673 0)
(-1.24815 0.0158856 0)
(-1.23667 -0.00863735 0)
(-1.21997 -0.0400029 0)
(-1.22745 -0.0927128 0)
(-1.24838 0.0147601 0)
(-1.23713 -0.00523637 0)
(-1.22069 -0.0294607 0)
(-1.22833 -0.0707437 0)
(-1.2486 0.0258223 0)
(-1.23741 0.418226 0)
(-1.22107 0.121271 0)
(-1.2294 0.11636 0)
(-1.24227 0.717837 0)
(-1.23554 0.347589 0)
(-1.22572 0.502281 0)
(-1.22153 0.833145 0)
(-1.25273 -0.271768 0)
(-1.241 -0.0938052 0)
(-1.21297 0.121901 0)
(-1.245 0.114545 0)
(-1.23181 -0.966254 0)
(-1.22898 -0.0222559 0)
(-1.22225 -0.260432 0)
(-1.2471 -0.623805 0)
(-1.23195 0.0119766 0)
(-1.22924 0.00207415 0)
(-1.223 -0.0191379 0)
(-1.24813 -0.0902549 0)
(-1.23207 0.0142164 0)
(-1.2295 0.00486715 0)
(-1.22379 -0.0177189 0)
(-1.24915 -0.0904619 0)
(-1.23221 0.0142918 0)
(-1.22977 0.00605064 0)
(-1.22459 -0.0183892 0)
(-1.25015 -0.0938597 0)
(-1.23248 0.0147566 0)
(-1.23004 0.00532424 0)
(-1.22546 -0.0191633 0)
(-1.25099 -0.0976202 0)
(-1.2326 0.00566732 0)
(-1.23034 0.0105707 0)
(-1.2263 -0.018263 0)
(-1.25212 -0.0967108 0)
(-1.23261 0.00369819 0)
(-1.23044 0.00429194 0)
(-1.22724 -0.017719 0)
(-1.25312 -0.0963856 0)
(-1.23286 0.0125146 0)
(-1.23069 -0.000814092 0)
(-1.22798 -0.0182922 0)
(-1.25411 -0.0971529 0)
(-1.233 0.011901 0)
(-1.23095 0.00562257 0)
(-1.22885 -0.018402 0)
(-1.2551 -0.098145 0)
(-1.23313 0.0329763 0)
(-1.2312 0.0195657 0)
(-1.22971 -0.00142503 0)
(-1.25609 -0.0773643 0)
(-1.23316 0.0312239 0)
(-1.23153 0.017836 0)
(-1.23047 0.00526461 0)
(-1.25724 -0.0595922 0)
(-1.23323 -0.0362409 0)
(-1.23163 -0.0227562 0)
(-1.231 -0.0353512 0)
(-1.25831 -0.106671 0)
(-1.23362 -55.8709 0)
(-1.23151 -57.9946 0)
(-1.23186 -61.3753 0)
(-1.25928 -64.3877 0)
(-1.01097 -2586.03 0)
(-1.32337 -2595.73 0)
(-1.33755 -2585.57 0)
(-1.60112 -2577.53 0)
(-1.16225 -2566.34 0)
(-0.97838 -2594.93 0)
(-1.64645 -2593.94 0)
(-1.47861 -2576.87 0)
(-1.26192 -59.1047 0)
(-1.26798 -77.2958 0)
(-1.26264 -76.4479 0)
(-1.24882 -54.2901 0)
(-1.2622 -0.0847839 0)
(-1.26743 -0.0541289 0)
(-1.26302 -0.0421449 0)
(-1.24899 -0.0675659 0)
(-1.26226 -0.0163353 0)
(-1.26727 -0.0115156 0)
(-1.26286 0.00393877 0)
(-1.24898 0.00551096 0)
(-1.26221 -0.0152919 0)
(-1.2671 -0.0107822 0)
(-1.26274 0.00318049 0)
(-1.24901 0.00495816 0)
(-1.26225 -0.0150249 0)
(-1.26696 -0.0127584 0)
(-1.2626 0.00112217 0)
(-1.249 0.00381786 0)
(-1.26229 -0.0148352 0)
(-1.26683 -0.011716 0)
(-1.26246 0.00135199 0)
(-1.24899 0.00435174 0)
(-1.26229 -0.0144469 0)
(-1.26669 -0.0111758 0)
(-1.26233 0.00126179 0)
(-1.24899 0.00421818 0)
(-1.26231 -0.0146535 0)
(-1.26656 -0.0110549 0)
(-1.2622 0.000820317 0)
(-1.24899 0.00389956 0)
(-1.26231 -0.0143162 0)
(-1.26644 -0.0106198 0)
(-1.26208 0.000665524 0)
(-1.24899 0.00364312 0)
(-1.26231 -0.0136382 0)
(-1.26631 -0.00893433 0)
(-1.26196 0.00171794 0)
(-1.249 0.00518294 0)
(-1.26228 -0.0138826 0)
(-1.26618 -0.00678042 0)
(-1.26185 0.00262126 0)
(-1.24902 0.00524909 0)
(-1.2622 -0.0140463 0)
(-1.26604 -0.00589807 0)
(-1.26176 0.00228793 0)
(-1.24906 0.00379661 0)
(-1.26211 -0.0133944 0)
(-1.26591 -0.0057249 0)
(-1.26169 0.00123315 0)
(-1.2491 0.00346369 0)
(-1.26201 -0.0125682 0)
(-1.2658 -0.00798838 0)
(-1.26161 -0.00256105 0)
(-1.24914 -0.000130689 0)
(-1.26197 -0.0102313 0)
(-1.26574 -0.0113088 0)
(-1.26155 -0.00613844 0)
(-1.24914 -0.00100998 0)
(-1.26202 -0.00740348 0)
(-1.26573 -0.0120092 0)
(-1.26144 -0.0068145 0)
(-1.24909 0.00183458 0)
(-1.26207 -0.00610171 0)
(-1.26573 -0.0114008 0)
(-1.26132 -0.00689768 0)
(-1.24904 0.00211689 0)
(-1.26212 -0.00559441 0)
(-1.26574 -0.00987728 0)
(-1.26121 -0.00570659 0)
(-1.24899 0.0036691 0)
(-1.26213 -0.0056625 0)
(-1.26573 -0.00793957 0)
(-1.2611 -0.00442344 0)
(-1.24895 0.00404445 0)
(-1.2621 -0.00621812 0)
(-1.26572 -0.00739601 0)
(-1.26101 -0.00465678 0)
(-1.24893 0.00235158 0)
(-1.26207 -0.00618767 0)
(-1.26571 -0.00751623 0)
(-1.26094 -0.00482716 0)
(-1.24891 0.00204833 0)
(-1.26205 -0.00599574 0)
(-1.2657 -0.00761747 0)
(-1.26085 -0.00487139 0)
(-1.24888 0.00190718 0)
(-1.26204 -0.00597018 0)
(-1.26569 -0.00775516 0)
(-1.26078 -0.00502963 0)
(-1.24886 0.00166835 0)
(-1.26203 -0.00585094 0)
(-1.26568 -0.00789007 0)
(-1.2607 -0.00510634 0)
(-1.24883 0.00151983 0)
(-1.26202 -0.00580647 0)
(-1.26568 -0.00800891 0)
(-1.26062 -0.00521001 0)
(-1.2488 0.00131538 0)
(-1.26203 -0.00574006 0)
(-1.26567 -0.00803609 0)
(-1.26054 -0.00520044 0)
(-1.24877 0.0012336 0)
(-1.26203 -0.00561349 0)
(-1.26567 -0.00797271 0)
(-1.26047 -0.00492529 0)
(-1.24874 0.00140233 0)
(-1.26204 -0.00540779 0)
(-1.26566 -0.00760057 0)
(-1.26039 -0.00404551 0)
(-1.24871 0.0018193 0)
(-1.26205 -0.00523669 0)
(-1.26564 -0.00679224 0)
(-1.26031 -0.00250406 0)
(-1.24869 0.00243513 0)
(-1.26205 -0.00516526 0)
(-1.26561 -0.00598617 0)
(-1.26023 -0.000919444 0)
(-1.24867 0.00281815 0)
(-1.26203 -0.00519374 0)
(-1.26557 -0.00521743 0)
(-1.26016 0.000358724 0)
(-1.24866 0.00298521 0)
(-1.26201 -0.00526428 0)
(-1.26552 -0.0045975 0)
(-1.2601 0.00103214 0)
(-1.24866 0.00297354 0)
(-1.26199 -0.00527019 0)
(-1.26547 -0.00444464 0)
(-1.26004 0.00104485 0)
(-1.24866 0.00269732 0)
(-1.26196 -0.00521346 0)
(-1.26542 -0.0044759 0)
(-1.25998 0.00101621 0)
(-1.24866 0.0025561 0)
(-1.26195 -0.00513219 0)
(-1.26536 -0.00458146 0)
(-1.25992 0.00101876 0)
(-1.24866 0.0024226 0)
(-1.26193 -0.00509774 0)
(-1.26531 -0.00479979 0)
(-1.25986 0.000900695 0)
(-1.24866 0.0021676 0)
(-1.26193 -0.00508182 0)
(-1.26526 -0.00497692 0)
(-1.2598 0.000779083 0)
(-1.24865 0.00190831 0)
(-1.26193 -0.00505253 0)
(-1.26522 -0.00507354 0)
(-1.25975 0.000677132 0)
(-1.24865 0.00165128 0)
(-1.26193 -0.00499058 0)
(-1.26517 -0.00515841 0)
(-1.25969 0.000578429 0)
(-1.24865 0.00140903 0)
(-1.26194 -0.00494095 0)
(-1.26512 -0.00527128 0)
(-1.25964 0.000461977 0)
(-1.24864 0.00116138 0)
(-1.26195 -0.0048942 0)
(-1.26508 -0.00541294 0)
(-1.25958 0.000327893 0)
(-1.24864 0.000907181 0)
(-1.26197 -0.00465428 0)
(-1.26504 -0.00537972 0)
(-1.25953 0.000282331 0)
(-1.24863 0.00100721 0)
(-1.26199 -0.00396601 0)
(-1.265 -0.00467746 0)
(-1.25948 0.0004179 0)
(-1.24862 0.0016848 0)
(-1.26201 -0.00293484 0)
(-1.26496 -0.0031977 0)
(-1.25942 0.000705101 0)
(-1.24861 0.00251673 0)
(-1.262 -0.00188673 0)
(-1.26494 -0.00139991 0)
(-1.25938 0.00103105 0)
(-1.2486 0.00323596 0)
(-1.26198 -0.00104331 0)
(-1.26492 0.00017174 0)
(-1.25935 0.00123569 0)
(-1.2486 0.0035738 0)
(-1.26193 -0.000651085 0)
(-1.2649 0.00104745 0)
(-1.25932 0.00122622 0)
(-1.24861 0.0033171 0)
(-1.26188 -0.000560676 0)
(-1.26488 0.00118524 0)
(-1.25931 0.00109824 0)
(-1.24861 0.00292407 0)
(-1.26183 -0.000528637 0)
(-1.26487 0.00103453 0)
(-1.2593 0.000967281 0)
(-1.24862 0.00265065 0)
(-1.26179 -0.000507952 0)
(-1.26486 0.000907169 0)
(-1.25928 0.000860554 0)
(-1.24862 0.0023934 0)
(-1.26175 -0.000479506 0)
(-1.26485 0.000809939 0)
(-1.25927 0.00077289 0)
(-1.24863 0.00213741 0)
(-1.26172 -0.000443501 0)
(-1.26484 0.000719662 0)
(-1.25926 0.000684882 0)
(-1.24863 0.00187815 0)
(-1.26169 -0.000376474 0)
(-1.26483 0.000636165 0)
(-1.25925 0.000589822 0)
(-1.24863 0.00161493 0)
(-1.26167 -0.000300908 0)
(-1.26482 0.000549315 0)
(-1.25924 0.000489212 0)
(-1.24863 0.00135473 0)
(-1.26165 -0.000224304 0)
(-1.26482 0.000460691 0)
(-1.25924 0.000386496 0)
(-1.24863 0.00109635 0)
(-1.26163 -0.000151314 0)
(-1.26481 0.000373006 0)
(-1.25923 0.000280133 0)
(-1.24864 0.000838532 0)
(-1.26162 -8.09478e-05 0)
(-1.26481 0.000286749 0)
(-1.25923 0.000173189 0)
(-1.24864 0.000585339 0)
(-1.26161 -2.66643e-05 0)
(-1.26481 0.000208889 0)
(-1.25923 7.8294e-05 0)
(-1.24864 0.000359246 0)
(-1.2616 -4.72409e-06 0)
(-1.26481 8.65012e-05 0)
(-1.25923 1.93698e-05 0)
(-1.24864 0.000130273 0)
(-1.2628 -2592.82 0)
(-1.22373 -2590.52 0)
(-0.928507 -2587.36 0)
(-1.31928 -2584.49 0)
(-1.23847 -62.6709 0)
(-1.23239 -52.83 0)
(-1.23697 -63.1701 0)
(-1.2508 -71.2985 0)
(-1.23847 -0.0515577 0)
(-1.23205 -0.0720728 0)
(-1.23631 -0.037762 0)
(-1.25152 -0.0333146 0)
(-1.23855 0.00302505 0)
(-1.23216 -0.00498914 0)
(-1.23633 -0.0105081 0)
(-1.25159 -0.0107667 0)
(-1.23864 0.00219266 0)
(-1.23227 -0.00468639 0)
(-1.23641 -0.0103995 0)
(-1.25162 -0.011401 0)
(-1.23871 0.00243262 0)
(-1.23237 -0.00467697 0)
(-1.23644 -0.00901747 0)
(-1.25167 -0.00841028 0)
(-1.23878 0.0018092 0)
(-1.23247 -0.00441413 0)
(-1.23647 -0.00930299 0)
(-1.25172 -0.00931748 0)
(-1.23885 0.00120305 0)
(-1.23256 -0.0042914 0)
(-1.23652 -0.0094173 0)
(-1.25176 -0.00987715 0)
(-1.23892 0.000587161 0)
(-1.23264 -0.00423467 0)
(-1.23657 -0.0093318 0)
(-1.2518 -0.00999345 0)
(-1.23899 0.000103354 0)
(-1.23272 -0.00410958 0)
(-1.23662 -0.00934289 0)
(-1.25185 -0.0102383 0)
(-1.23905 0.000285709 0)
(-1.2328 -0.00338921 0)
(-1.23667 -0.00961551 0)
(-1.25189 -0.0108616 0)
(-1.23913 -0.000987724 0)
(-1.23289 -0.00333462 0)
(-1.23674 -0.0106949 0)
(-1.25192 -0.0138721 0)
(-1.2392 -0.00273186 0)
(-1.23296 -0.00354355 0)
(-1.23684 -0.0111292 0)
(-1.25194 -0.0162421 0)
(-1.23925 -0.00339727 0)
(-1.23303 -0.00271525 0)
(-1.23695 -0.00990678 0)
(-1.25196 -0.0167994 0)
(-1.2393 -0.00491615 0)
(-1.23307 -0.00224869 0)
(-1.23708 -0.00721236 0)
(-1.252 -0.0159205 0)
(-1.23929 -0.00351886 0)
(-1.23307 -0.000386364 0)
(-1.23718 -0.00280652 0)
(-1.25205 -0.0106255 0)
(-1.23929 -0.000787943 0)
(-1.23306 0.00241299 0)
(-1.23725 0.000803675 0)
(-1.25212 -0.0060539 0)
(-1.23928 -0.000557245 0)
(-1.23304 0.00354566 0)
(-1.23732 0.00195958 0)
(-1.25219 -0.00587133 0)
(-1.23926 -4.77199e-05 0)
(-1.23302 0.00438485 0)
(-1.23741 0.00203392 0)
(-1.25226 -0.00647303 0)
(-1.23927 -0.000798667 0)
(-1.233 0.00452632 0)
(-1.2375 0.00126191 0)
(-1.25232 -0.00876933 0)
(-1.23926 -0.00226617 0)
(-1.23298 0.00402818 0)
(-1.23763 0.000643145 0)
(-1.25237 -0.0108916 0)
(-1.23924 -0.00220952 0)
(-1.23296 0.0040551 0)
(-1.23775 0.000890392 0)
(-1.25243 -0.0104298 0)
(-1.23922 -0.00199513 0)
(-1.23293 0.00401395 0)
(-1.23787 0.00120635 0)
(-1.25249 -0.00973423 0)
(-1.23921 -0.00189797 0)
(-1.2329 0.0038937 0)
(-1.23798 0.00145297 0)
(-1.25255 -0.00923499 0)
(-1.23919 -0.00174958 0)
(-1.23287 0.00385545 0)
(-1.23809 0.00171342 0)
(-1.25261 -0.00860515 0)
(-1.23917 -0.00167134 0)
(-1.23284 0.00377154 0)
(-1.23819 0.00190425 0)
(-1.25268 -0.00808364 0)
(-1.23915 -0.00155774 0)
(-1.23281 0.00368991 0)
(-1.23829 0.00203688 0)
(-1.25274 -0.00758518 0)
(-1.23913 -0.00131726 0)
(-1.23278 0.00352474 0)
(-1.23838 0.00197127 0)
(-1.25281 -0.00700829 0)
(-1.23911 -0.000842467 0)
(-1.23276 0.00298292 0)
(-1.23846 0.00119961 0)
(-1.25287 -0.00658471 0)
(-1.23911 -0.00012837 0)
(-1.23275 0.00197276 0)
(-1.23854 -0.000361599 0)
(-1.25292 -0.00661927 0)
(-1.23912 0.000532198 0)
(-1.23276 0.00066594 0)
(-1.2386 -0.00219343 0)
(-1.25295 -0.00690781 0)
(-1.23914 0.000955552 0)
(-1.2328 -0.000579607 0)
(-1.23866 -0.00387277 0)
(-1.25297 -0.00726989 0)
(-1.23918 0.00110903 0)
(-1.23284 -0.00141062 0)
(-1.23872 -0.004875 0)
(-1.25297 -0.00750423 0)
(-1.23921 0.00112206 0)
(-1.2329 -0.00181862 0)
(-1.23876 -0.00507888 0)
(-1.25297 -0.00731742 0)
(-1.23925 0.00119083 0)
(-1.23295 -0.00199245 0)
(-1.23881 -0.00499554 0)
(-1.25297 -0.00685809 0)
(-1.23929 0.0012096 0)
(-1.233 -0.00210988 0)
(-1.23885 -0.00488902 0)
(-1.25298 -0.00637194 0)
(-1.23933 0.00118299 0)
(-1.23305 -0.0022487 0)
(-1.23888 -0.00475063 0)
(-1.25298 -0.00583639 0)
(-1.23936 0.00116224 0)
(-1.2331 -0.00238908 0)
(-1.23891 -0.00462858 0)
(-1.25298 -0.00532866 0)
(-1.2394 0.00114287 0)
(-1.23315 -0.00253652 0)
(-1.23893 -0.00454468 0)
(-1.25299 -0.00490223 0)
(-1.23943 0.00113424 0)
(-1.23319 -0.00268264 0)
(-1.23894 -0.00445945 0)
(-1.25299 -0.00448053 0)
(-1.23947 0.00113107 0)
(-1.23324 -0.00282312 0)
(-1.23896 -0.00435925 0)
(-1.253 -0.00405387 0)
(-1.2395 0.00113396 0)
(-1.23328 -0.00294573 0)
(-1.23897 -0.0042189 0)
(-1.253 -0.00360507 0)
(-1.23953 0.00131397 0)
(-1.23333 -0.00281465 0)
(-1.23897 -0.00393778 0)
(-1.25301 -0.0029918 0)
(-1.23956 0.00160409 0)
(-1.23337 -0.00215719 0)
(-1.23897 -0.00345681 0)
(-1.25301 -0.00247369 0)
(-1.2396 0.00164446 0)
(-1.23341 -0.00115883 0)
(-1.23897 -0.00289716 0)
(-1.25302 -0.00259945 0)
(-1.23963 0.00144139 0)
(-1.23345 -7.99495e-05 0)
(-1.23899 -0.00230907 0)
(-1.25301 -0.0032098 0)
(-1.23965 0.00108355 0)
(-1.23348 0.000783324 0)
(-1.23903 -0.00187742 0)
(-1.25301 -0.00401004 0)
(-1.23967 0.00060798 0)
(-1.2335 0.00113417 0)
(-1.23907 -0.0016355 0)
(-1.253 -0.00469952 0)
(-1.23969 0.000385902 0)
(-1.23351 0.00112139 0)
(-1.23912 -0.00150262 0)
(-1.25299 -0.00473536 0)
(-1.2397 0.000382827 0)
(-1.23353 0.00103082 0)
(-1.23917 -0.00135393 0)
(-1.25298 -0.00431201 0)
(-1.23971 0.000371065 0)
(-1.23354 0.000932966 0)
(-1.23921 -0.00120657 0)
(-1.25298 -0.00387815 0)
(-1.23973 0.000350156 0)
(-1.23355 0.000820689 0)
(-1.23925 -0.00108904 0)
(-1.25297 -0.00344466 0)
(-1.23974 0.000318993 0)
(-1.23357 0.000715205 0)
(-1.23928 -0.00096186 0)
(-1.25297 -0.00301456 0)
(-1.23975 0.000295394 0)
(-1.23358 0.000619118 0)
(-1.23931 -0.000860206 0)
(-1.25296 -0.00261392 0)
(-1.23975 0.000263027 0)
(-1.23358 0.000522632 0)
(-1.23934 -0.000741002 0)
(-1.25296 -0.00221567 0)
(-1.23976 0.000231139 0)
(-1.23359 0.000427301 0)
(-1.23936 -0.000622689 0)
(-1.25296 -0.00181671 0)
(-1.23976 0.000186613 0)
(-1.2336 0.000331527 0)
(-1.23937 -0.000487796 0)
(-1.25295 -0.00141592 0)
(-1.23977 0.000140891 0)
(-1.2336 0.000236028 0)
(-1.23939 -0.000350496 0)
(-1.25295 -0.00102034 0)
(-1.23977 8.81949e-05 0)
(-1.23361 0.000148155 0)
(-1.2394 -0.000208948 0)
(-1.25295 -0.000663896 0)
(-1.23977 3.20638e-05 0)
(-1.23361 5.31906e-05 0)
(-1.2394 -7.21319e-05 0)
(-1.25295 -0.000250497 0)
)
;

boundaryField
{
    topWall
    {
        type            extrapolatedCalculated;
        value           nonuniform List<vector> 8((-1.2616 -4.72409e-06 0) (-1.26481 8.65012e-05 0) (-1.25923 1.93698e-05 0) (-1.24864 0.000130273 0) (-1.23977 3.20638e-05 0) (-1.23361 5.31906e-05 0) (-1.2394 -7.21319e-05 0) (-1.25295 -0.000250497 0));
    }
    botWall
    {
        type            extrapolatedCalculated;
        value           nonuniform List<vector> 8((-1.25778 -9.65132 0) (-1.50505 -0.649337 0) (-1.27609 -0.0401125 0) (-1.25386 -0.0130321 0) (-1.24871 -0.0484169 0) (-1.22881 0.00210346 0) (-1.21742 -0.0506275 0) (-1.01228 -0.0127906 0));
    }
    inlet
    {
        type            cyclic;
    }
    outlet
    {
        type            cyclic;
    }
    fixWall
    {
        type            empty;
    }
}


// ************************************************************************* //
