/*--------------------------------*- C++ -*----------------------------------*\
  =========                 |
  \\      /  F ield         | OpenFOAM: The Open Source CFD Toolbox
   \\    /   O peration     | Website:  https://openfoam.org
    \\  /    A nd           | Version:  dev
     \\/     M anipulation  |

   OpenFOAM for Windows 20.09 (v1)
   Built by CFD Support, www.cfdsupport.com (based on Symscape).
\*---------------------------------------------------------------------------*/
FoamFile
{
    version     2.0;
    format      ascii;
    class       volScalarField;
    location    "6";
    object      k;
}
// * * * * * * * * * * * * * * * * * * * * * * * * * * * * * * * * * * * * * //

dimensions      [0 2 -2 0 0 0 0];

internalField   nonuniform List<scalar> 
960
(
2.22045e-16
2.22045e-16
2.22045e-16
2.22045e-16
2.22045e-16
2.22045e-16
2.22045e-16
2.22045e-16
2.22045e-16
2.22045e-16
2.22045e-16
2.22045e-16
2.22045e-16
2.22045e-16
2.22045e-16
2.22045e-16
2.22045e-16
2.22045e-16
2.22045e-16
2.22045e-16
2.22045e-16
2.22045e-16
2.22045e-16
2.22045e-16
2.22045e-16
2.22045e-16
2.22045e-16
2.22045e-16
2.22045e-16
2.22045e-16
2.22045e-16
2.22045e-16
2.22045e-16
2.22045e-16
2.22045e-16
2.22045e-16
2.22045e-16
2.22045e-16
2.22045e-16
2.22045e-16
2.22045e-16
2.22045e-16
2.22045e-16
2.22045e-16
2.22045e-16
2.22045e-16
2.22045e-16
2.22045e-16
2.22045e-16
2.22045e-16
2.22045e-16
2.22045e-16
2.22045e-16
2.22045e-16
2.22045e-16
2.22045e-16
2.22045e-16
2.22045e-16
2.22045e-16
2.22045e-16
2.22045e-16
2.22045e-16
2.22045e-16
2.22045e-16
2.22045e-16
2.22045e-16
2.22045e-16
2.22045e-16
2.22045e-16
2.22045e-16
2.22045e-16
2.22045e-16
2.22045e-16
2.22045e-16
2.22045e-16
2.22045e-16
2.22045e-16
2.22045e-16
2.22045e-16
2.22045e-16
2.22045e-16
2.22045e-16
2.22045e-16
2.22045e-16
2.22045e-16
2.22045e-16
2.22045e-16
2.22045e-16
2.22045e-16
2.22045e-16
2.22045e-16
2.22045e-16
2.22045e-16
2.22045e-16
2.22045e-16
2.22045e-16
2.22045e-16
2.22045e-16
2.22045e-16
2.22045e-16
2.22045e-16
2.22045e-16
2.22045e-16
2.22045e-16
2.22045e-16
2.22045e-16
2.22045e-16
2.22045e-16
2.22045e-16
2.22045e-16
2.22045e-16
2.22045e-16
2.22045e-16
2.22045e-16
2.22045e-16
2.22045e-16
2.22045e-16
2.22045e-16
2.22045e-16
2.22045e-16
2.22045e-16
2.22045e-16
2.22045e-16
2.22045e-16
2.22045e-16
2.22045e-16
2.22045e-16
2.22045e-16
2.22045e-16
2.22045e-16
2.22045e-16
2.22045e-16
2.22045e-16
2.22045e-16
2.22045e-16
2.22045e-16
2.22045e-16
2.22045e-16
2.22045e-16
2.22045e-16
2.22045e-16
2.22045e-16
2.22045e-16
2.22045e-16
2.22045e-16
2.22045e-16
2.22045e-16
2.22045e-16
2.22045e-16
2.22045e-16
2.22045e-16
2.22045e-16
2.22045e-16
2.22045e-16
2.22045e-16
2.22045e-16
2.25838e-16
2.25737e-16
2.2586e-16
2.26095e-16
2.36012e-16
2.35891e-16
2.36036e-16
2.36316e-16
2.47842e-16
2.477e-16
2.47867e-16
2.48195e-16
2.61431e-16
2.61265e-16
2.61455e-16
2.61833e-16
2.76897e-16
2.76706e-16
2.76918e-16
2.77351e-16
2.94377e-16
2.94158e-16
2.94393e-16
2.94886e-16
3.1403e-16
3.13781e-16
3.14038e-16
3.14596e-16
3.36029e-16
3.35747e-16
3.36025e-16
3.36655e-16
3.60569e-16
3.60251e-16
3.60549e-16
3.61257e-16
3.87869e-16
3.87513e-16
3.87829e-16
3.88623e-16
4.18176e-16
4.17779e-16
4.18113e-16
4.19001e-16
4.51771e-16
4.51329e-16
4.51681e-16
4.52671e-16
4.88966e-16
4.88477e-16
4.88847e-16
4.89949e-16
5.30119e-16
5.29577e-16
5.29965e-16
5.31192e-16
5.75631e-16
5.75032e-16
5.7544e-16
5.76804e-16
6.25959e-16
6.25298e-16
6.25726e-16
6.27245e-16
6.81627e-16
6.80898e-16
6.81348e-16
6.83042e-16
7.4324e-16
7.42433e-16
7.4291e-16
7.44803e-16
8.11506e-16
8.10611e-16
8.11116e-16
8.13239e-16
8.87262e-16
8.86267e-16
8.86803e-16
8.89192e-16
9.71491e-16
9.70392e-16
9.70963e-16
9.73658e-16
2.22045e-16
2.22045e-16
2.22045e-16
2.22045e-16
2.22045e-16
2.22045e-16
2.22045e-16
2.22045e-16
2.22045e-16
2.22045e-16
2.22045e-16
2.22045e-16
2.22045e-16
2.22045e-16
2.22045e-16
2.22045e-16
2.22045e-16
2.22045e-16
2.22045e-16
2.22045e-16
2.22045e-16
2.22045e-16
2.22045e-16
2.22045e-16
2.22045e-16
2.22045e-16
2.22045e-16
2.22045e-16
2.22045e-16
2.22045e-16
2.22045e-16
2.22045e-16
2.22045e-16
2.22045e-16
2.22045e-16
2.22045e-16
2.22045e-16
2.22045e-16
2.22045e-16
2.22045e-16
2.22045e-16
2.22045e-16
2.22045e-16
2.22045e-16
2.22045e-16
2.22045e-16
2.22045e-16
2.22045e-16
2.22045e-16
2.22045e-16
2.22045e-16
2.22045e-16
2.22045e-16
2.22045e-16
2.22045e-16
2.22045e-16
2.22045e-16
2.22045e-16
2.22045e-16
2.22045e-16
2.22045e-16
2.22045e-16
2.22045e-16
2.22045e-16
2.22045e-16
2.22045e-16
2.22045e-16
2.22045e-16
2.22045e-16
2.22045e-16
2.22045e-16
2.22045e-16
2.22045e-16
2.22045e-16
2.22045e-16
2.22045e-16
2.22045e-16
2.22045e-16
2.22045e-16
2.22045e-16
2.22045e-16
2.22045e-16
2.22045e-16
2.22045e-16
2.22045e-16
2.22045e-16
2.22045e-16
2.22045e-16
2.22045e-16
2.22045e-16
2.22045e-16
2.22045e-16
2.22045e-16
2.22045e-16
2.22045e-16
2.22045e-16
2.22045e-16
2.22045e-16
2.22045e-16
2.22045e-16
2.22045e-16
2.22045e-16
2.22045e-16
2.22045e-16
2.22045e-16
2.22045e-16
2.22045e-16
2.22045e-16
2.22045e-16
2.22045e-16
2.22045e-16
2.22045e-16
2.22045e-16
2.22045e-16
2.22045e-16
2.22045e-16
2.22045e-16
2.22045e-16
2.22045e-16
2.22045e-16
2.22045e-16
2.22045e-16
2.22045e-16
2.22045e-16
2.22045e-16
2.22045e-16
2.22045e-16
2.22045e-16
2.22045e-16
2.22045e-16
2.22045e-16
2.22045e-16
2.22045e-16
2.22045e-16
2.22045e-16
2.22045e-16
2.22045e-16
2.22045e-16
2.22045e-16
2.22045e-16
2.22045e-16
2.22045e-16
2.22045e-16
2.22045e-16
2.22045e-16
2.22045e-16
2.22045e-16
2.22045e-16
2.22045e-16
2.22045e-16
2.22045e-16
2.22045e-16
2.22045e-16
2.22045e-16
2.22045e-16
2.22045e-16
2.2593e-16
2.25886e-16
2.25869e-16
2.25828e-16
2.36125e-16
2.36068e-16
2.36049e-16
2.36002e-16
2.47977e-16
2.47906e-16
2.47883e-16
2.47832e-16
2.61589e-16
2.61502e-16
2.61475e-16
2.6142e-16
2.77079e-16
2.76976e-16
2.76944e-16
2.76885e-16
2.94586e-16
2.94464e-16
2.94427e-16
2.94365e-16
3.14268e-16
3.14124e-16
3.14082e-16
3.14017e-16
3.36298e-16
3.3613e-16
3.36082e-16
3.36014e-16
3.60872e-16
3.60677e-16
3.60622e-16
3.60552e-16
3.88209e-16
3.87983e-16
3.87922e-16
3.8785e-16
4.18557e-16
4.18297e-16
4.1823e-16
4.18157e-16
4.52196e-16
4.51897e-16
4.51825e-16
4.51751e-16
4.89441e-16
4.89099e-16
4.89023e-16
4.88949e-16
5.30648e-16
5.30259e-16
5.3018e-16
5.30106e-16
5.76221e-16
5.75779e-16
5.75698e-16
5.75626e-16
6.26619e-16
6.26118e-16
6.26037e-16
6.25967e-16
6.82366e-16
6.818e-16
6.8172e-16
6.81653e-16
7.44068e-16
7.43432e-16
7.43355e-16
7.4329e-16
8.12435e-16
8.11723e-16
8.11649e-16
8.11585e-16
8.88303e-16
8.87512e-16
8.8744e-16
8.87373e-16
9.72667e-16
9.71797e-16
9.71722e-16
9.71641e-16
1.06355e-15
1.06241e-15
1.06301e-15
1.06601e-15
1.14317e-15
1.14246e-15
1.1431e-15
1.14576e-15
1.19127e-15
1.19133e-15
1.19198e-15
1.19367e-15
1.21008e-15
1.2107e-15
1.2113e-15
1.21215e-15
1.20527e-15
1.20621e-15
1.20672e-15
1.20693e-15
1.1823e-15
1.18336e-15
1.18377e-15
1.18354e-15
1.14585e-15
1.14687e-15
1.14718e-15
1.1467e-15
1.0997e-15
1.10059e-15
1.10081e-15
1.1002e-15
1.04683e-15
1.04754e-15
1.04769e-15
1.04704e-15
9.89628e-16
9.90133e-16
9.90212e-16
9.89566e-16
9.29969e-16
9.30264e-16
9.30288e-16
9.29672e-16
8.69363e-16
8.69452e-16
8.69436e-16
8.68915e-16
8.08981e-16
8.08885e-16
8.08842e-16
8.08418e-16
7.49726e-16
7.49464e-16
7.49403e-16
7.49081e-16
6.92246e-16
6.91849e-16
6.91776e-16
6.91563e-16
6.37524e-16
6.37068e-16
6.36954e-16
6.36847e-16
5.86163e-16
5.85719e-16
5.85534e-16
5.85525e-16
5.38472e-16
5.38084e-16
5.37802e-16
5.37895e-16
4.94537e-16
4.9426e-16
4.93836e-16
4.94038e-16
4.54349e-16
4.54151e-16
4.53569e-16
4.53893e-16
4.17732e-16
4.17614e-16
4.16849e-16
4.17322e-16
3.84509e-16
3.84464e-16
3.83489e-16
3.84141e-16
3.54475e-16
3.54499e-16
3.53283e-16
3.54148e-16
3.2743e-16
3.2752e-16
3.26211e-16
3.2714e-16
3.0318e-16
3.03337e-16
3.02113e-16
3.02925e-16
2.81549e-16
2.81775e-16
2.80713e-16
2.81327e-16
2.62381e-16
2.62679e-16
2.61753e-16
2.62189e-16
2.45543e-16
2.4591e-16
2.45081e-16
2.45371e-16
2.30918e-16
2.31354e-16
2.30586e-16
2.30758e-16
2.22045e-16
2.22045e-16
2.22045e-16
2.22045e-16
2.22045e-16
2.22045e-16
2.22045e-16
2.22045e-16
2.22045e-16
2.22045e-16
2.22045e-16
2.22045e-16
2.22045e-16
2.22045e-16
2.22045e-16
2.22045e-16
2.22045e-16
2.22045e-16
2.22045e-16
2.22045e-16
2.22045e-16
2.22045e-16
2.22045e-16
2.22045e-16
2.22045e-16
2.22045e-16
2.22045e-16
2.22045e-16
2.22045e-16
2.22045e-16
2.22045e-16
2.22045e-16
2.22045e-16
2.22045e-16
2.22045e-16
2.22045e-16
2.22045e-16
2.22045e-16
2.22045e-16
2.22045e-16
2.22045e-16
2.22045e-16
2.22045e-16
2.22045e-16
2.22045e-16
2.22045e-16
2.22045e-16
2.22045e-16
2.22045e-16
2.22045e-16
2.22045e-16
2.22045e-16
2.22045e-16
2.22045e-16
2.22045e-16
2.22045e-16
2.22045e-16
2.22045e-16
2.22045e-16
2.22045e-16
2.22045e-16
2.22045e-16
2.22045e-16
2.22045e-16
2.22045e-16
2.22045e-16
2.22045e-16
2.22045e-16
2.22045e-16
2.22045e-16
2.22045e-16
2.22045e-16
2.22045e-16
2.22045e-16
2.22045e-16
2.22045e-16
2.22045e-16
2.22045e-16
2.22045e-16
2.22045e-16
2.22045e-16
2.22045e-16
2.22045e-16
2.22045e-16
2.22045e-16
2.22045e-16
2.22045e-16
2.22045e-16
2.22045e-16
2.22045e-16
2.22045e-16
2.22045e-16
2.22045e-16
2.22045e-16
2.22045e-16
2.22045e-16
2.22045e-16
2.22045e-16
2.22045e-16
2.22045e-16
2.22045e-16
2.22045e-16
2.22045e-16
2.22045e-16
2.22045e-16
2.22045e-16
2.22045e-16
2.22045e-16
2.22045e-16
2.22045e-16
2.22045e-16
2.22045e-16
2.22045e-16
2.22045e-16
2.22045e-16
2.22045e-16
2.22045e-16
2.22045e-16
2.22045e-16
2.22045e-16
2.22045e-16
2.22045e-16
2.22045e-16
2.22045e-16
1.06492e-15
1.06398e-15
1.06389e-15
1.06377e-15
1.14485e-15
1.14359e-15
1.14375e-15
1.14384e-15
1.19313e-15
1.19143e-15
1.19202e-15
1.19252e-15
1.21182e-15
1.20998e-15
1.21079e-15
1.21149e-15
1.20671e-15
1.20493e-15
1.2058e-15
1.20657e-15
1.18337e-15
1.18173e-15
1.18259e-15
1.18337e-15
1.14654e-15
1.1451e-15
1.1459e-15
1.14667e-15
1.10004e-15
1.0988e-15
1.09952e-15
1.10029e-15
1.04688e-15
1.04583e-15
1.04647e-15
1.04724e-15
9.89451e-16
9.88558e-16
9.89115e-16
9.89911e-16
9.29627e-16
9.28864e-16
9.29338e-16
9.30183e-16
8.6891e-16
8.68243e-16
8.68641e-16
8.69548e-16
8.08464e-16
8.07868e-16
8.08196e-16
8.09168e-16
7.4918e-16
7.48633e-16
7.48896e-16
7.49926e-16
6.91707e-16
6.91195e-16
6.91397e-16
6.92469e-16
6.37026e-16
6.36533e-16
6.36674e-16
6.37743e-16
5.85739e-16
5.85258e-16
5.85334e-16
5.86356e-16
5.38145e-16
5.37676e-16
5.37688e-16
5.38634e-16
4.94325e-16
4.93868e-16
4.93828e-16
4.94677e-16
4.54216e-16
4.53774e-16
4.53698e-16
4.54438e-16
4.17677e-16
4.1725e-16
4.17154e-16
4.17784e-16
3.84522e-16
3.8411e-16
3.84006e-16
3.84526e-16
3.5455e-16
3.5415e-16
3.54047e-16
3.54459e-16
3.27563e-16
3.27168e-16
3.27068e-16
3.27376e-16
3.03373e-16
3.02976e-16
3.02968e-16
3.03081e-16
2.81805e-16
2.81395e-16
2.81474e-16
2.81399e-16
2.62705e-16
2.62266e-16
2.62434e-16
2.62169e-16
2.45939e-16
2.4545e-16
2.45713e-16
2.45246e-16
2.31394e-16
2.30829e-16
2.312e-16
2.3051e-16
2.22045e-16
2.22045e-16
2.22045e-16
2.22045e-16
2.22045e-16
2.22045e-16
2.22045e-16
2.22045e-16
2.22045e-16
2.22045e-16
2.22045e-16
2.22045e-16
2.22045e-16
2.22045e-16
2.22045e-16
2.22045e-16
2.22045e-16
2.22045e-16
2.22045e-16
2.22045e-16
2.22045e-16
2.22045e-16
2.22045e-16
2.22045e-16
2.22045e-16
2.22045e-16
2.22045e-16
2.22045e-16
2.22045e-16
2.22045e-16
2.22045e-16
2.22045e-16
2.22045e-16
2.22045e-16
2.22045e-16
2.22045e-16
2.22045e-16
2.22045e-16
2.22045e-16
2.22045e-16
2.22045e-16
2.22045e-16
2.22045e-16
2.22045e-16
2.22045e-16
2.22045e-16
2.22045e-16
2.22045e-16
2.22045e-16
2.22045e-16
2.22045e-16
2.22045e-16
2.22045e-16
2.22045e-16
2.22045e-16
2.22045e-16
2.22045e-16
2.22045e-16
2.22045e-16
2.22045e-16
2.22045e-16
2.22045e-16
2.22045e-16
2.22045e-16
2.22045e-16
2.22045e-16
2.22045e-16
2.22045e-16
2.22045e-16
2.22045e-16
2.22045e-16
2.22045e-16
2.22045e-16
2.22045e-16
2.22045e-16
2.22045e-16
2.22045e-16
2.22045e-16
2.22045e-16
2.22045e-16
2.22045e-16
2.22045e-16
2.22045e-16
2.22045e-16
2.22045e-16
2.22045e-16
2.22045e-16
2.22045e-16
2.22045e-16
2.22045e-16
2.22045e-16
2.22045e-16
2.22045e-16
2.22045e-16
2.22045e-16
2.22045e-16
2.22045e-16
2.22045e-16
2.22045e-16
2.22045e-16
2.22045e-16
2.22045e-16
2.22045e-16
2.22045e-16
2.22045e-16
2.22045e-16
2.22045e-16
2.22045e-16
2.22045e-16
2.22045e-16
2.22045e-16
2.22045e-16
2.22045e-16
2.22045e-16
2.22045e-16
2.22045e-16
2.22045e-16
2.22045e-16
2.22045e-16
2.22045e-16
2.22045e-16
2.22045e-16
2.22045e-16
2.22045e-16
)
;

boundaryField
{
    topWall
    {
        type            kqRWallFunction;
        value           uniform 2.22045e-16;
    }
    botWall
    {
        type            kqRWallFunction;
        value           uniform 2.22045e-16;
    }
    inlet
    {
        type            cyclic;
    }
    outlet
    {
        type            cyclic;
    }
    fixWall
    {
        type            empty;
    }
}


// ************************************************************************* //
