/*--------------------------------*- C++ -*----------------------------------*\
  =========                 |
  \\      /  F ield         | OpenFOAM: The Open Source CFD Toolbox
   \\    /   O peration     | Website:  https://openfoam.org
    \\  /    A nd           | Version:  dev
     \\/     M anipulation  |

   OpenFOAM for Windows 20.09 (v1)
   Built by CFD Support, www.cfdsupport.com (based on Symscape).
\*---------------------------------------------------------------------------*/
FoamFile
{
    version     2.0;
    format      ascii;
    class       volScalarField;
    location    "6";
    object      nut;
}
// * * * * * * * * * * * * * * * * * * * * * * * * * * * * * * * * * * * * * //

dimensions      [0 2 -1 0 0 0 0];

internalField   nonuniform List<scalar> 
960
(
2.5539e-21
2.5539e-21
2.5539e-21
2.5539e-21
1.48091e-20
1.48091e-20
1.48091e-20
1.48091e-20
4.35171e-20
4.3517e-20
4.35171e-20
4.35171e-20
9.26008e-20
9.26003e-20
9.26007e-20
9.26007e-20
1.64175e-19
1.64174e-19
1.64175e-19
1.64175e-19
2.58171e-19
2.58169e-19
2.58171e-19
2.58171e-19
3.74631e-19
3.74626e-19
3.74631e-19
3.7463e-19
5.13585e-19
5.13576e-19
5.13586e-19
5.13582e-19
6.75045e-19
6.75032e-19
6.75048e-19
6.75039e-19
8.59005e-19
8.58989e-19
8.59012e-19
8.58992e-19
1.06544e-18
1.06542e-18
1.06545e-18
1.06542e-18
1.29429e-18
1.29427e-18
1.29431e-18
1.29425e-18
1.54547e-18
1.54546e-18
1.5455e-18
1.54541e-18
1.81884e-18
1.81884e-18
1.81888e-18
1.81875e-18
2.11416e-18
2.11421e-18
2.11422e-18
2.11404e-18
2.43123e-18
2.43131e-18
2.43131e-18
2.43108e-18
2.7696e-18
2.76972e-18
2.76971e-18
2.76942e-18
3.12871e-18
3.12887e-18
3.12885e-18
3.1285e-18
3.5078e-18
3.50803e-18
3.50798e-18
3.50756e-18
3.90595e-18
3.90625e-18
3.90617e-18
3.90568e-18
4.32194e-18
4.32233e-18
4.32223e-18
4.32165e-18
4.75434e-18
4.75483e-18
4.75468e-18
4.75402e-18
5.20135e-18
5.20196e-18
5.20177e-18
5.20103e-18
5.6609e-18
5.66164e-18
5.66139e-18
5.66058e-18
6.13055e-18
6.13143e-18
6.13113e-18
6.13025e-18
6.60752e-18
6.60856e-18
6.6082e-18
6.60725e-18
7.08872e-18
7.08992e-18
7.08951e-18
7.0885e-18
7.57073e-18
7.57211e-18
7.57164e-18
7.57058e-18
8.04988e-18
8.05146e-18
8.05092e-18
8.04982e-18
8.5223e-18
8.52409e-18
8.52348e-18
8.52234e-18
8.9966e-18
8.99858e-18
8.99799e-18
8.99682e-18
9.46497e-18
9.46712e-18
9.46664e-18
9.46543e-18
9.91835e-18
9.92069e-18
9.92033e-18
9.91908e-18
1.03527e-17
1.03553e-17
1.03551e-17
1.03538e-17
1.07641e-17
1.07669e-17
1.07668e-17
1.07655e-17
1.11487e-17
1.11517e-17
1.11519e-17
1.11505e-17
1.15028e-17
1.15061e-17
1.15064e-17
1.1505e-17
1.1823e-17
1.18264e-17
1.1827e-17
1.18256e-17
1.21061e-17
1.21097e-17
1.21106e-17
1.21091e-17
1.25603e-17
1.25586e-17
1.25665e-17
1.25781e-17
1.33396e-17
1.3337e-17
1.33467e-17
1.3361e-17
1.41829e-17
1.41792e-17
1.41907e-17
1.42079e-17
1.50904e-17
1.50855e-17
1.50989e-17
1.51192e-17
1.60614e-17
1.60551e-17
1.60706e-17
1.60942e-17
1.70944e-17
1.70864e-17
1.7104e-17
1.71312e-17
1.8231e-17
1.82207e-17
1.82404e-17
1.82714e-17
1.94561e-17
1.94429e-17
1.94648e-17
1.94999e-17
2.07351e-17
2.07185e-17
2.07426e-17
2.07819e-17
2.20572e-17
2.20367e-17
2.20628e-17
2.21065e-17
2.3409e-17
2.3384e-17
2.34121e-17
2.34598e-17
2.47744e-17
2.47445e-17
2.47741e-17
2.48256e-17
2.61348e-17
2.60996e-17
2.61303e-17
2.61852e-17
2.74696e-17
2.74287e-17
2.74599e-17
2.75173e-17
2.87561e-17
2.87097e-17
2.87405e-17
2.87993e-17
2.99708e-17
2.9919e-17
2.99486e-17
3.00074e-17
3.10897e-17
3.10335e-17
3.10608e-17
3.11178e-17
3.20898e-17
3.20304e-17
3.20545e-17
3.21077e-17
3.29498e-17
3.28894e-17
3.29094e-17
3.29566e-17
3.36519e-17
3.35929e-17
3.36084e-17
3.36473e-17
3.41818e-17
3.41273e-17
3.4139e-17
3.41671e-17
2.5539e-21
2.5539e-21
2.5539e-21
2.5539e-21
1.48091e-20
1.48091e-20
1.48091e-20
1.48091e-20
4.3517e-20
4.35171e-20
4.35171e-20
4.3517e-20
9.26003e-20
9.26006e-20
9.26006e-20
9.26004e-20
1.64174e-19
1.64175e-19
1.64175e-19
1.64174e-19
2.58168e-19
2.58171e-19
2.58171e-19
2.5817e-19
3.74623e-19
3.74631e-19
3.7463e-19
3.7463e-19
5.1357e-19
5.13585e-19
5.13585e-19
5.13585e-19
6.75018e-19
6.75046e-19
6.75047e-19
6.75047e-19
8.58962e-19
8.59007e-19
8.5901e-19
8.59011e-19
1.06537e-18
1.06544e-18
1.06545e-18
1.06545e-18
1.2942e-18
1.2943e-18
1.29431e-18
1.29431e-18
1.54535e-18
1.54548e-18
1.54551e-18
1.54551e-18
1.81867e-18
1.81885e-18
1.8189e-18
1.81889e-18
2.11396e-18
2.11419e-18
2.11427e-18
2.11424e-18
2.43099e-18
2.43128e-18
2.43139e-18
2.43133e-18
2.76931e-18
2.76967e-18
2.76981e-18
2.76972e-18
3.12835e-18
3.1288e-18
3.12897e-18
3.12884e-18
3.50739e-18
3.50792e-18
3.50813e-18
3.50794e-18
3.90547e-18
3.9061e-18
3.90635e-18
3.9061e-18
4.32142e-18
4.32215e-18
4.32243e-18
4.32211e-18
4.75377e-18
4.7546e-18
4.75492e-18
4.75451e-18
5.20075e-18
5.20168e-18
5.20204e-18
5.20153e-18
5.66028e-18
5.66131e-18
5.6617e-18
5.66109e-18
6.12993e-18
6.13105e-18
6.13147e-18
6.13076e-18
6.60693e-18
6.60813e-18
6.60857e-18
6.60776e-18
7.08818e-18
7.08945e-18
7.08989e-18
7.08899e-18
7.57028e-18
7.57159e-18
7.57204e-18
7.57106e-18
8.04956e-18
8.0509e-18
8.05134e-18
8.05028e-18
8.52215e-18
8.52349e-18
8.52392e-18
8.5228e-18
8.99663e-18
8.99799e-18
8.99841e-18
8.99722e-18
9.4652e-18
9.46659e-18
9.46698e-18
9.46575e-18
9.91881e-18
9.92022e-18
9.92058e-18
9.91931e-18
1.03535e-17
1.03549e-17
1.03552e-17
1.03539e-17
1.07652e-17
1.07666e-17
1.07669e-17
1.07656e-17
1.11502e-17
1.11515e-17
1.11517e-17
1.11505e-17
1.15047e-17
1.15059e-17
1.15061e-17
1.15049e-17
1.18253e-17
1.18264e-17
1.18265e-17
1.18254e-17
1.21089e-17
1.21098e-17
1.21099e-17
1.21088e-17
1.25688e-17
1.25671e-17
1.25661e-17
1.25629e-17
1.33501e-17
1.33475e-17
1.33462e-17
1.33427e-17
1.41954e-17
1.41918e-17
1.41902e-17
1.41866e-17
1.51051e-17
1.51003e-17
1.50983e-17
1.50946e-17
1.60785e-17
1.60724e-17
1.60699e-17
1.60662e-17
1.71139e-17
1.71064e-17
1.71034e-17
1.70998e-17
1.82527e-17
1.82438e-17
1.82399e-17
1.82367e-17
1.94799e-17
1.94695e-17
1.94646e-17
1.94619e-17
2.07608e-17
2.07488e-17
2.07428e-17
2.07408e-17
2.20844e-17
2.20709e-17
2.20635e-17
2.20625e-17
2.34371e-17
2.34222e-17
2.34132e-17
2.34135e-17
2.48026e-17
2.47865e-17
2.47758e-17
2.47775e-17
2.61621e-17
2.6145e-17
2.61325e-17
2.61359e-17
2.74945e-17
2.74769e-17
2.74624e-17
2.74676e-17
2.87772e-17
2.87595e-17
2.8743e-17
2.875e-17
2.99862e-17
2.9969e-17
2.99505e-17
2.99594e-17
3.1098e-17
3.10817e-17
3.10613e-17
3.10721e-17
3.20895e-17
3.20745e-17
3.20528e-17
3.2065e-17
3.29404e-17
3.29268e-17
3.29043e-17
3.29175e-17
3.36335e-17
3.36212e-17
3.35986e-17
3.36124e-17
3.41559e-17
3.41444e-17
3.4123e-17
3.41367e-17
1.65315e-17
1.68539e-17
1.6837e-17
1.64736e-17
1.11672e-17
1.12608e-17
1.12544e-17
1.11533e-17
1.24013e-17
1.23473e-17
1.23448e-17
1.24222e-17
1.38704e-17
1.38069e-17
1.38075e-17
1.38872e-17
1.51542e-17
1.50886e-17
1.50975e-17
1.51826e-17
1.64275e-17
1.63598e-17
1.63808e-17
1.64721e-17
1.78186e-17
1.77615e-17
1.77903e-17
1.78756e-17
1.93961e-17
1.93574e-17
1.93895e-17
1.94634e-17
2.11877e-17
2.11591e-17
2.11833e-17
2.12445e-17
2.3168e-17
2.31668e-17
2.31843e-17
2.32273e-17
2.5349e-17
2.53846e-17
2.53943e-17
2.54188e-17
2.77478e-17
2.78433e-17
2.7829e-17
2.78404e-17
3.04196e-17
3.05733e-17
3.05261e-17
3.05287e-17
3.33766e-17
3.36099e-17
3.35266e-17
3.35362e-17
3.3439e-17
3.34241e-17
3.34175e-17
3.34066e-17
3.17643e-17
3.17513e-17
3.17432e-17
3.17349e-17
2.98338e-17
2.98202e-17
2.98101e-17
2.9807e-17
2.7826e-17
2.78133e-17
2.78003e-17
2.78026e-17
2.57883e-17
2.57795e-17
2.57612e-17
2.57692e-17
2.37642e-17
2.37583e-17
2.37328e-17
2.37478e-17
2.17858e-17
2.17833e-17
2.17491e-17
2.17722e-17
1.98808e-17
1.98818e-17
1.98371e-17
1.98699e-17
1.80703e-17
1.80746e-17
1.8018e-17
1.80617e-17
1.63693e-17
1.63768e-17
1.63162e-17
1.63627e-17
1.47881e-17
1.47986e-17
1.4743e-17
1.47832e-17
1.33322e-17
1.33456e-17
1.32988e-17
1.33286e-17
1.20038e-17
1.202e-17
1.19804e-17
1.20011e-17
1.08021e-17
1.08207e-17
1.07864e-17
1.07999e-17
9.7237e-18
9.74434e-18
9.71361e-18
9.72156e-18
8.90925e-18
8.9114e-18
8.91254e-18
8.9132e-18
8.45946e-18
8.46136e-18
8.46199e-18
8.46272e-18
8e-18
8.00161e-18
8.00173e-18
8.00253e-18
7.53045e-18
7.53179e-18
7.53149e-18
7.53236e-18
7.05538e-18
7.05645e-18
7.05586e-18
7.05676e-18
6.57902e-18
6.57985e-18
6.57908e-18
6.57997e-18
6.10527e-18
6.10591e-18
6.10503e-18
6.1059e-18
5.63767e-18
5.63814e-18
5.63722e-18
5.63804e-18
5.17935e-18
5.17967e-18
5.17875e-18
5.17951e-18
4.73305e-18
4.73323e-18
4.73235e-18
4.73305e-18
4.3011e-18
4.30117e-18
4.30035e-18
4.30097e-18
3.88548e-18
3.88547e-18
3.88471e-18
3.88527e-18
3.48782e-18
3.48774e-18
3.48707e-18
3.48756e-18
3.10944e-18
3.10932e-18
3.10874e-18
3.10917e-18
2.75138e-18
2.75123e-18
2.75075e-18
2.75112e-18
2.41443e-18
2.41427e-18
2.41388e-18
2.41419e-18
2.09808e-18
2.09794e-18
2.09761e-18
2.09785e-18
1.80397e-18
1.80385e-18
1.80358e-18
1.80377e-18
1.53251e-18
1.53242e-18
1.5322e-18
1.53235e-18
1.28362e-18
1.28355e-18
1.28338e-18
1.28349e-18
1.05716e-18
1.05711e-18
1.05699e-18
1.05706e-18
8.53006e-19
8.52975e-19
8.52894e-19
8.52941e-19
6.71035e-19
6.71016e-19
6.70966e-19
6.70995e-19
5.11158e-19
5.11147e-19
5.11118e-19
5.11135e-19
3.73336e-19
3.7333e-19
3.73315e-19
3.73324e-19
2.57585e-19
2.57583e-19
2.57576e-19
2.5758e-19
1.63963e-19
1.63962e-19
1.63959e-19
1.63961e-19
9.25438e-20
9.25436e-20
9.25429e-20
9.25433e-20
4.35082e-20
4.35082e-20
4.3508e-20
4.35081e-20
1.48086e-20
1.48086e-20
1.48086e-20
1.48086e-20
2.5539e-21
2.5539e-21
2.5539e-21
2.5539e-21
1.66006e-17
1.6452e-17
1.66003e-17
1.66995e-17
1.1178e-17
1.11341e-17
1.11772e-17
1.12009e-17
1.23804e-17
1.24118e-17
1.2373e-17
1.23415e-17
1.38534e-17
1.38734e-17
1.38412e-17
1.38296e-17
1.51536e-17
1.51626e-17
1.51396e-17
1.51388e-17
1.64515e-17
1.64457e-17
1.64287e-17
1.64418e-17
1.78685e-17
1.78489e-17
1.78326e-17
1.78567e-17
1.94779e-17
1.94438e-17
1.94249e-17
1.9456e-17
2.12889e-17
2.12387e-17
2.12165e-17
2.12629e-17
2.3288e-17
2.32232e-17
2.32046e-17
2.32578e-17
2.5486e-17
2.54098e-17
2.53933e-17
2.54331e-17
2.79035e-17
2.78211e-17
2.78082e-17
2.78173e-17
3.05762e-17
3.04927e-17
3.04815e-17
3.044e-17
3.35495e-17
3.34718e-17
3.34564e-17
3.33365e-17
3.34196e-17
3.33961e-17
3.34107e-17
3.34442e-17
3.17479e-17
3.17261e-17
3.17394e-17
3.17744e-17
2.98205e-17
2.98e-17
2.98107e-17
2.98464e-17
2.78175e-17
2.77976e-17
2.78054e-17
2.7841e-17
2.57858e-17
2.57665e-17
2.57713e-17
2.58053e-17
2.3766e-17
2.37471e-17
2.37494e-17
2.37805e-17
2.1792e-17
2.17734e-17
2.17736e-17
2.18011e-17
1.98908e-17
1.98726e-17
1.98713e-17
1.98944e-17
1.80835e-17
1.80655e-17
1.80632e-17
1.80817e-17
1.63853e-17
1.63673e-17
1.63643e-17
1.6378e-17
1.48065e-17
1.47883e-17
1.47891e-17
1.47935e-17
1.33528e-17
1.33341e-17
1.33385e-17
1.33342e-17
1.20264e-17
1.20066e-17
1.20146e-17
1.20019e-17
1.08265e-17
1.08051e-17
1.08167e-17
1.07958e-17
9.74997e-18
9.72596e-18
9.74156e-18
9.71217e-18
8.91477e-18
8.91445e-18
8.91437e-18
8.91401e-18
8.46435e-18
8.4639e-18
8.46377e-18
8.46337e-18
8.0042e-18
8.00368e-18
8.00347e-18
8.00304e-18
7.534e-18
7.53345e-18
7.53318e-18
7.53272e-18
7.05833e-18
7.05777e-18
7.05747e-18
7.05698e-18
6.58144e-18
6.58089e-18
6.58057e-18
6.58006e-18
6.10723e-18
6.10671e-18
6.1064e-18
6.10588e-18
5.63922e-18
5.63874e-18
5.63845e-18
5.63793e-18
5.18053e-18
5.18011e-18
5.17985e-18
5.17936e-18
4.73391e-18
4.73354e-18
4.73331e-18
4.73287e-18
4.30168e-18
4.30137e-18
4.30117e-18
4.30079e-18
3.88583e-18
3.88558e-18
3.88541e-18
3.88509e-18
3.488e-18
3.48779e-18
3.48764e-18
3.48739e-18
3.10949e-18
3.10933e-18
3.1092e-18
3.109e-18
2.75135e-18
2.75123e-18
2.75111e-18
2.75095e-18
2.41435e-18
2.41425e-18
2.41415e-18
2.41404e-18
2.09796e-18
2.09791e-18
2.09781e-18
2.09773e-18
1.80385e-18
1.80381e-18
1.80374e-18
1.80367e-18
1.53241e-18
1.53237e-18
1.53232e-18
1.53227e-18
1.28353e-18
1.28351e-18
1.28347e-18
1.28344e-18
1.05709e-18
1.05708e-18
1.05705e-18
1.05703e-18
8.52962e-19
8.5295e-19
8.52938e-19
8.52923e-19
6.71008e-19
6.71001e-19
6.70995e-19
6.70985e-19
5.11142e-19
5.11139e-19
5.11136e-19
5.11131e-19
3.73327e-19
3.73326e-19
3.73326e-19
3.73323e-19
2.57581e-19
2.57581e-19
2.57581e-19
2.5758e-19
1.63961e-19
1.63961e-19
1.63961e-19
1.63961e-19
9.25434e-20
9.25435e-20
9.25436e-20
9.25435e-20
4.35081e-20
4.35081e-20
4.35082e-20
4.35082e-20
1.48086e-20
1.48086e-20
1.48086e-20
1.48086e-20
2.5539e-21
2.5539e-21
2.5539e-21
2.5539e-21
)
;

boundaryField
{
    topWall
    {
        type            nutkWallFunction;
        Cmu             0.09;
        kappa           0.41;
        E               9.8;
        value           uniform 0;
    }
    botWall
    {
        type            nutkWallFunction;
        Cmu             0.09;
        kappa           0.41;
        E               9.8;
        value           uniform 0;
    }
    inlet
    {
        type            cyclic;
    }
    outlet
    {
        type            cyclic;
    }
    fixWall
    {
        type            empty;
    }
}


// ************************************************************************* //
