/*--------------------------------*- C++ -*----------------------------------*\
  =========                 |
  \\      /  F ield         | OpenFOAM: The Open Source CFD Toolbox
   \\    /   O peration     | Website:  https://openfoam.org
    \\  /    A nd           | Version:  dev
     \\/     M anipulation  |

   OpenFOAM for Windows 20.09 (v1)
   Built by CFD Support, www.cfdsupport.com (based on Symscape).
\*---------------------------------------------------------------------------*/
FoamFile
{
    version     2.0;
    format      ascii;
    class       volScalarField;
    location    "6";
    object      omega;
}
// * * * * * * * * * * * * * * * * * * * * * * * * * * * * * * * * * * * * * //

dimensions      [0 0 -1 0 0 0 0];

internalField   nonuniform List<scalar> 
960
(
86943.4
86943.4
86943.4
86943.4
14993.8
14993.8
14993.8
14993.8
5102.46
5102.48
5102.47
5102.47
2397.87
2397.88
2397.87
2397.87
1352.48
1352.5
1352.49
1352.49
860.067
860.076
860.067
860.068
592.703
592.711
592.702
592.704
432.343
432.35
432.341
432.345
328.933
328.939
328.931
328.936
258.49
258.495
258.488
258.494
208.407
208.411
208.405
208.411
171.557
171.559
171.554
171.562
143.674
143.675
143.672
143.68
122.081
122.08
122.078
122.086
105.027
105.025
105.024
105.033
91.3302
91.327
91.3271
91.3359
80.172
80.1686
80.1688
80.1772
70.9701
70.9663
70.9669
70.9748
63.3002
63.2961
63.2969
63.3045
56.8479
56.8435
56.8445
56.8518
51.3761
51.3715
51.3727
51.3796
46.7036
46.6987
46.7002
46.7067
42.6898
42.6848
42.6864
42.6924
39.2243
39.2191
39.2208
39.2265
36.2194
36.2141
36.2159
36.2212
33.6048
33.5995
33.6014
33.6062
31.3236
31.3183
31.3202
31.3246
29.3293
29.324
29.3258
29.3299
27.5836
27.5782
27.58
27.5838
26.0546
26.0491
26.0509
26.0544
24.6809
24.6755
24.6771
24.6803
23.4596
23.4543
23.4555
23.4585
22.3873
22.382
22.3828
22.3856
21.448
21.4427
21.4431
21.4458
20.6282
20.6229
20.623
20.6256
19.9166
19.9112
19.911
19.9135
19.3035
19.2981
19.2975
19.2999
18.7808
18.7753
18.7744
18.7767
18.3416
18.336
18.3348
18.337
17.9803
17.9748
17.9732
17.9753
17.6926
17.687
17.685
17.687
17.4747
17.4692
17.4668
17.4687
17.3243
17.319
17.3161
17.3179
17.2398
17.2347
17.2314
17.233
17.2206
17.2159
17.212
17.2134
17.225
17.2211
17.2166
17.218
17.2711
17.2684
17.2632
17.2644
17.3893
17.3879
17.3821
17.3832
17.5847
17.5849
17.5784
17.5796
17.8639
17.866
17.8589
17.8604
18.2354
18.2396
18.232
18.234
18.7094
18.7159
18.708
18.7109
19.2984
19.3074
19.2996
19.3039
20.0177
20.0292
20.0219
20.0284
20.8857
20.8997
20.8933
20.903
21.9245
21.9408
21.936
21.9502
23.1613
23.179
23.1765
23.197
24.6285
24.6466
24.6469
24.6761
26.3659
26.3826
26.3864
26.4268
28.4213
28.4345
28.4414
28.497
86943.4
86943.4
86943.4
86943.4
14993.8
14993.8
14993.8
14993.8
5102.48
5102.47
5102.47
5102.48
2397.88
2397.87
2397.88
2397.88
1352.5
1352.49
1352.49
1352.49
860.079
860.068
860.069
860.071
592.715
592.702
592.703
592.704
432.355
432.342
432.343
432.343
328.946
328.932
328.932
328.932
258.503
258.49
258.489
258.489
208.42
208.406
208.404
208.404
171.569
171.556
171.554
171.554
143.686
143.673
143.67
143.671
122.092
122.079
122.076
122.077
105.037
105.026
105.022
105.023
91.3393
91.3285
91.3243
91.3264
80.1806
80.1701
80.1661
80.1686
70.9782
70.968
70.9642
70.9672
63.3077
63.298
63.2943
63.2976
56.8547
56.8455
56.842
56.8456
51.3823
51.3736
51.3703
51.3742
46.7092
46.701
46.6979
46.7019
42.6947
42.6871
42.6841
42.6883
39.2285
39.2214
39.2187
39.2229
36.223
36.2164
36.2139
36.2181
33.6078
33.6017
33.5995
33.6036
31.326
31.3204
31.3185
31.3225
29.3311
29.326
29.3243
29.3281
27.5847
27.5801
27.5786
27.5822
26.055
26.0509
26.0496
26.053
24.6809
24.6771
24.676
24.6792
23.4591
23.4556
23.4546
23.4577
22.3862
22.383
22.3822
22.3851
21.4464
21.4435
21.4428
21.4455
20.6261
20.6235
20.623
20.6254
19.914
19.9117
19.9113
19.9135
19.3004
19.2983
19.298
19.3001
18.7771
18.7753
18.7752
18.777
18.3373
18.3359
18.3359
18.3374
17.9755
17.9744
17.9745
17.9758
17.6872
17.6864
17.6866
17.6877
17.4688
17.4683
17.4687
17.4695
17.3179
17.3177
17.3182
17.3188
17.2329
17.233
17.2337
17.234
17.2132
17.2137
17.2145
17.2146
17.2176
17.2181
17.2194
17.219
17.2639
17.2645
17.2663
17.2653
17.3824
17.383
17.3854
17.3837
17.5784
17.5789
17.5821
17.5796
17.8587
17.859
17.863
17.8596
18.2318
18.2316
18.2366
18.2323
18.708
18.7072
18.7132
18.708
19.3001
19.2984
19.3057
19.2993
20.0236
20.0205
20.0292
20.0218
20.8969
20.8922
20.9024
20.8938
21.9425
21.9357
21.9475
21.9378
23.1873
23.1783
23.1916
23.1807
24.6638
24.6523
24.667
24.6551
26.4113
26.3974
26.413
26.4002
28.4773
28.4614
28.4771
28.4632
31.2186
31.2219
31.2303
31.3073
33.8608
33.8793
33.886
33.9521
35.0281
35.0946
35.0927
35.1008
35.0225
35.1126
35.1024
35.0736
34.2381
34.3321
34.3154
34.2679
32.9688
33.0541
33.0339
32.9809
31.4302
31.501
31.4809
31.4323
29.7786
29.8337
29.8163
29.7771
28.123
28.1641
28.151
28.1217
26.5374
26.567
26.5584
26.538
25.069
25.0895
25.0847
25.0714
23.7446
23.7577
23.7559
23.7478
22.5757
22.583
22.5832
22.5788
21.5634
21.5661
21.5664
21.5657
20.7018
20.6991
20.701
20.7014
20.0704
20.0643
20.0659
20.0677
19.6476
19.6417
19.6421
19.6439
19.3514
19.3463
19.3452
19.3469
19.1768
19.1726
19.1698
19.1716
19.1191
19.1155
19.1115
19.1131
19.1745
19.1713
19.1663
19.1676
19.3407
19.3374
19.3319
19.3328
19.6165
19.6131
19.6072
19.6077
20.0026
19.999
19.993
19.993
20.5016
20.4977
20.4919
20.4912
21.118
21.1137
21.1081
21.1071
21.8582
21.8535
21.8483
21.847
22.7311
22.726
22.7213
22.7198
23.748
23.7424
23.7384
23.7367
24.9229
24.9169
24.9137
24.9119
26.2481
26.2422
26.2402
26.238
27.7556
27.75
27.7496
27.7468
29.4862
29.481
29.4822
29.4788
31.4717
31.4669
31.4695
31.4655
33.7504
33.7461
33.7501
33.7455
36.3693
36.3655
36.3708
36.3656
39.3859
39.3826
39.389
39.3833
42.8711
42.8685
42.8761
42.8698
46.9136
46.9118
46.9205
46.9137
51.625
51.6242
51.6341
51.6266
57.1473
57.1474
57.1586
57.1504
63.6629
63.6643
63.6766
63.6676
71.4098
71.4127
71.4259
71.4161
80.7028
80.7073
80.7214
80.7108
91.9655
91.9717
91.9864
91.9749
105.832
105.839
105.856
105.844
123.087
123.095
123.113
123.1
144.889
144.898
144.919
144.905
172.983
172.993
173.015
173.001
210.039
210.048
210.072
210.058
260.308
260.318
260.343
260.328
330.898
330.908
330.933
330.919
434.395
434.404
434.429
434.415
594.758
594.767
594.791
594.778
862.024
862.032
862.054
862.042
1354.24
1354.25
1354.27
1354.25
2399.35
2399.35
2399.37
2399.36
5103.51
5103.51
5103.53
5103.52
14994.3
14994.3
14994.3
14994.3
86943.4
86943.4
86943.4
86943.4
31.28
31.2681
31.2774
31.2595
33.9295
33.9108
33.9251
33.9122
35.0955
35.0612
35.0937
35.0935
35.0749
35.0402
35.0768
35.0811
34.2685
34.242
34.2758
34.2833
32.9803
32.9623
32.991
32.9993
31.4291
31.4184
31.4411
31.4499
29.7693
29.7646
29.7826
29.7917
28.1108
28.1094
28.1242
28.1329
26.5253
26.528
26.5376
26.5461
25.0592
25.0636
25.0685
25.0779
23.7373
23.7417
23.7426
23.7536
22.5705
22.5732
22.5726
22.584
21.5593
21.5602
21.5584
21.5699
20.6976
20.6969
20.6939
20.7052
20.0652
20.0634
20.0594
20.0709
19.6422
19.6395
19.635
19.6458
19.3456
19.3425
19.3375
19.3468
19.1704
19.1671
19.1619
19.1696
19.112
19.1086
19.1036
19.1097
19.1665
19.1633
19.1587
19.1634
19.3316
19.3286
19.3247
19.3283
19.6063
19.6037
19.6005
19.6032
19.9913
19.9891
19.9867
19.9887
20.4892
20.4875
20.4859
20.4874
21.1046
21.1034
21.1024
21.1036
21.8441
21.8434
21.8429
21.8439
22.7164
22.7162
22.7162
22.7169
23.7328
23.7333
23.7333
23.7342
24.9075
24.9084
24.9086
24.9096
26.2329
26.2343
26.2347
26.2359
27.741
27.7428
27.7435
27.745
29.4723
29.4745
29.4755
29.4774
31.4585
31.461
31.4624
31.4646
33.738
33.7408
33.7424
33.7451
36.3577
36.3608
36.3626
36.3657
39.3751
39.3784
39.3804
39.384
42.8613
42.8648
42.867
42.8711
46.9051
46.9088
46.9111
46.9154
51.6181
51.6218
51.6242
51.6288
57.1421
57.1458
57.1483
57.153
63.6597
63.6634
63.6661
63.6708
71.4087
71.4124
71.4154
71.42
80.704
80.7075
80.711
80.7155
91.9689
91.9723
91.9762
91.9805
105.838
105.841
105.846
105.85
123.095
123.098
123.103
123.107
144.899
144.902
144.907
144.912
172.995
172.999
173.003
173.008
210.052
210.055
210.06
210.064
260.322
260.325
260.329
260.334
330.912
330.916
330.918
330.923
434.409
434.412
434.414
434.418
594.772
594.774
594.775
594.779
862.036
862.038
862.037
862.041
1354.25
1354.25
1354.25
1354.25
2399.36
2399.35
2399.35
2399.35
5103.52
5103.52
5103.51
5103.51
14994.3
14994.3
14994.3
14994.3
86943.4
86943.4
86943.4
86943.4
)
;

boundaryField
{
    topWall
    {
        type            omegaWallFunction;
        beta1           0.075;
        blended         0;
        value           uniform 86943.4;
    }
    botWall
    {
        type            omegaWallFunction;
        beta1           0.075;
        blended         0;
        value           uniform 86943.4;
    }
    inlet
    {
        type            cyclic;
    }
    outlet
    {
        type            cyclic;
    }
    fixWall
    {
        type            empty;
    }
}


// ************************************************************************* //
