/*--------------------------------*- C++ -*----------------------------------*\
  =========                 |
  \\      /  F ield         | OpenFOAM: The Open Source CFD Toolbox
   \\    /   O peration     | Website:  https://openfoam.org
    \\  /    A nd           | Version:  dev
     \\/     M anipulation  |

   OpenFOAM for Windows 20.09 (v1)
   Built by CFD Support, www.cfdsupport.com (based on Symscape).
\*---------------------------------------------------------------------------*/
FoamFile
{
    version     2.0;
    format      ascii;
    class       volScalarField;
    location    "6";
    object      p;
}
// * * * * * * * * * * * * * * * * * * * * * * * * * * * * * * * * * * * * * //

dimensions      [1 -1 -2 0 0 0 0];

internalField   nonuniform List<scalar> 
960
(
0
-0.0844726
-0.150491
-0.21208
-0.0978216
-0.167304
-0.232308
-0.293852
-0.179749
-0.249057
-0.314059
-0.375604
-0.261543
-0.330771
-0.395811
-0.457366
-0.343626
-0.412562
-0.477562
-0.539118
-0.425562
-0.494322
-0.559314
-0.62087
-0.507493
-0.576083
-0.641067
-0.702622
-0.589421
-0.657846
-0.72282
-0.784374
-0.671345
-0.739611
-0.804573
-0.866126
-0.753265
-0.821378
-0.886327
-0.947879
-0.835183
-0.903146
-0.968081
-1.02963
-0.917079
-0.984904
-1.04984
-1.11139
-0.99899
-1.06667
-1.13155
-1.19314
-1.08087
-1.1484
-1.21328
-1.27489
-1.16277
-1.23018
-1.29504
-1.35664
-1.24346
-1.31081
-1.37642
-1.43789
-1.32737
-1.39423
-1.45898
-1.52036
-1.40931
-1.47603
-1.54073
-1.60212
-1.49121
-1.55783
-1.62249
-1.68387
-1.57313
-1.63963
-1.70425
-1.76561
-1.65502
-1.72143
-1.786
-1.84735
-1.73692
-1.80322
-1.86776
-1.92908
-1.81881
-1.88502
-1.94951
-2.01082
-1.90069
-1.96681
-2.03128
-2.09256
-1.98258
-2.04861
-2.11304
-2.17431
-2.06447
-2.13041
-2.1948
-2.25605
-2.14636
-2.21221
-2.27656
-2.33776
-2.22824
-2.294
-2.35832
-2.41951
-2.31012
-2.37581
-2.44008
-2.50126
-2.38955
-2.45455
-2.51964
-2.58291
-2.4727
-2.53675
-2.60184
-2.6645
-2.55458
-2.61858
-2.6836
-2.74771
-2.63646
-2.70041
-2.76537
-2.82943
-2.71834
-2.78224
-2.84712
-2.91115
-2.80022
-2.86409
-2.92888
-2.99289
-2.8821
-2.94592
-3.01064
-3.07462
-2.96398
-3.02775
-3.0924
-3.15635
-3.04585
-3.10958
-3.17416
-3.23808
-3.12772
-3.19141
-3.25592
-3.31981
-3.20959
-3.27325
-3.33769
-3.40154
-3.29147
-3.35508
-3.41945
-3.48327
-3.37334
-3.43691
-3.50119
-3.56499
-3.45522
-3.51874
-3.58295
-3.64672
-3.53708
-3.60057
-3.66471
-3.72845
-3.61778
-3.68085
-3.74648
-3.81018
-3.70133
-3.76365
-3.82733
-3.89104
-3.78368
-3.8455
-3.91018
-3.97484
-3.86556
-3.92739
-3.99196
-4.05657
-3.94742
-4.0093
-4.07373
-4.13831
-4.02929
-4.09115
-4.15551
-4.22004
-4.11113
-4.17299
-4.23726
-4.30175
-4.19301
-4.25485
-4.31904
-4.38349
-4.27488
-4.33669
-4.40081
-4.46522
-4.35674
-4.41854
-4.48258
-4.54696
-4.43861
-4.50039
-4.56436
-4.62869
-4.52047
-4.58224
-4.64613
-4.71042
-4.60233
-4.66408
-4.7279
-4.79214
-4.68419
-4.74594
-4.80968
-4.87388
-4.76605
-4.82779
-4.89145
-4.95561
-4.84673
-4.90885
-4.97243
-5.03633
-0.275877
-0.336952
-0.398758
-0.458693
-0.357708
-0.418698
-0.480592
-0.540465
-0.439456
-0.500454
-0.562343
-0.62223
-0.521226
-0.582205
-0.64411
-0.703987
-0.603008
-0.663964
-0.725861
-0.785752
-0.684758
-0.745716
-0.807628
-0.86751
-0.766507
-0.827467
-0.889379
-0.949279
-0.848257
-0.909219
-0.971131
-1.03104
-0.930006
-0.990971
-1.05288
-1.1128
-1.01175
-1.07272
-1.13463
-1.19456
-1.0935
-1.15447
-1.21637
-1.27632
-1.17526
-1.23624
-1.29814
-1.35809
-1.25696
-1.31799
-1.37986
-1.43985
-1.33864
-1.39975
-1.46157
-1.52161
-1.41956
-1.4815
-1.54333
-1.60327
-1.50179
-1.56263
-1.62454
-1.68449
-1.58354
-1.645
-1.70711
-1.76669
-1.6653
-1.72675
-1.7889
-1.8485
-1.74705
-1.80851
-1.87068
-1.93031
-1.8288
-1.89026
-1.95245
-2.01212
-1.91055
-1.97201
-2.03422
-2.09393
-1.9923
-2.05376
-2.11599
-2.17574
-2.07406
-2.13551
-2.19776
-2.25755
-2.15581
-2.21727
-2.27954
-2.33936
-2.23756
-2.29902
-2.36131
-2.42118
-2.31931
-2.38078
-2.44308
-2.50299
-2.40104
-2.46252
-2.52485
-2.5848
-2.48281
-2.54427
-2.60663
-2.66661
-2.56456
-2.62604
-2.6884
-2.74842
-2.64519
-2.70779
-2.76854
-2.82879
-2.72783
-2.7891
-2.85101
-2.91175
-2.80957
-2.87225
-2.93279
-2.99357
-2.89131
-2.954
-3.01457
-3.07539
-2.97304
-3.03575
-3.09634
-3.1572
-3.05478
-3.11751
-3.17813
-3.23903
-3.13651
-3.19927
-3.25991
-3.32086
-3.21825
-3.28102
-3.34169
-3.40268
-3.29998
-3.36278
-3.42347
-3.4845
-3.38172
-3.44454
-3.50526
-3.56633
-3.46346
-3.52629
-3.58703
-3.64814
-3.5452
-3.60805
-3.66882
-3.72998
-3.62693
-3.6898
-3.7506
-3.8118
-3.70867
-3.77156
-3.83238
-3.89363
-3.79041
-3.85331
-3.91415
-3.97542
-3.87215
-3.93439
-3.99567
-4.05692
-3.95277
-4.01626
-4.07683
-4.13756
-4.03608
-4.09802
-4.15898
-4.22024
-4.11782
-4.17977
-4.24074
-4.30207
-4.19956
-4.26151
-4.32251
-4.38389
-4.28129
-4.34326
-4.40427
-4.46572
-4.36303
-4.425
-4.48604
-4.54755
-4.44477
-4.50675
-4.5678
-4.62938
-4.52652
-4.58849
-4.64957
-4.71121
-4.60826
-4.67024
-4.73133
-4.79304
-4.69
-4.75199
-4.8131
-4.87487
-4.77174
-4.83373
-4.89486
-4.9567
-4.85345
-4.91546
-4.9766
-5.0385
-4.93519
-4.9972
-5.05836
-5.1203
-5.01693
-5.07895
-5.14012
-5.20214
-5.09788
-5.15988
-5.22103
-5.28305
-4.89125
-4.95426
-5.01779
-5.0809
-4.90025
-4.9635
-5.02701
-5.08981
-4.90844
-4.97168
-5.03518
-5.09798
-4.91663
-4.97987
-5.04335
-5.10616
-4.92481
-4.98805
-5.05152
-5.11433
-4.933
-4.99624
-5.0597
-5.1225
-4.94119
-5.00442
-5.06787
-5.13067
-4.94938
-5.01261
-5.07604
-5.13884
-4.95756
-5.02079
-5.08422
-5.14701
-4.96575
-5.02898
-5.09239
-5.15518
-4.97394
-5.03716
-5.10057
-5.16336
-4.98212
-5.04534
-5.10874
-5.17153
-4.99031
-5.05352
-5.11691
-5.1797
-4.9985
-5.0617
-5.12509
-5.18787
-5.00668
-5.06988
-5.13326
-5.19604
-5.01487
-5.07806
-5.14144
-5.20422
-5.02305
-5.08625
-5.14962
-5.21239
-5.03123
-5.09443
-5.1578
-5.22057
-5.03941
-5.10262
-5.16598
-5.22874
-5.04759
-5.1108
-5.17416
-5.23691
-5.05577
-5.11898
-5.18234
-5.24508
-5.06395
-5.12716
-5.19052
-5.25326
-5.07213
-5.13534
-5.1987
-5.26143
-5.08031
-5.14353
-5.20688
-5.2696
-5.08849
-5.15171
-5.21506
-5.27778
-5.09667
-5.15989
-5.22324
-5.28595
-5.10485
-5.16807
-5.23142
-5.29412
-5.11303
-5.17625
-5.23959
-5.3023
-5.12121
-5.18443
-5.24777
-5.31047
-5.12939
-5.19261
-5.25595
-5.31865
-5.13757
-5.20079
-5.26413
-5.32682
-5.14575
-5.20897
-5.2723
-5.33499
-5.15393
-5.21715
-5.28048
-5.34316
-5.1621
-5.22533
-5.28865
-5.35134
-5.17028
-5.23351
-5.29683
-5.35951
-5.17846
-5.24169
-5.305
-5.36768
-5.18664
-5.24987
-5.31317
-5.37585
-5.19482
-5.25805
-5.32135
-5.38403
-5.203
-5.26623
-5.32952
-5.3922
-5.21118
-5.27441
-5.3377
-5.40037
-5.21936
-5.28259
-5.34587
-5.40855
-5.22754
-5.29076
-5.35405
-5.41672
-5.23572
-5.29894
-5.36222
-5.4249
-5.2439
-5.30712
-5.3704
-5.43307
-5.25207
-5.3153
-5.37857
-5.44124
-5.26025
-5.32348
-5.38674
-5.44942
-5.26843
-5.33165
-5.39492
-5.45759
-5.2766
-5.33983
-5.40309
-5.46576
-5.28478
-5.348
-5.41127
-5.47393
-5.29295
-5.35618
-5.41944
-5.48211
-5.30113
-5.36435
-5.42762
-5.49028
-5.3093
-5.37253
-5.43579
-5.49845
-5.31748
-5.3807
-5.44396
-5.50663
-5.32566
-5.38887
-5.45214
-5.5148
-5.33383
-5.39705
-5.46031
-5.52297
-5.34201
-5.40522
-5.46849
-5.53115
-5.35018
-5.4134
-5.47666
-5.53932
-5.35836
-5.42157
-5.48484
-5.5475
-5.36653
-5.42975
-5.49301
-5.55567
-5.37471
-5.43792
-5.50119
-5.56384
-5.14288
-5.20475
-5.26605
-5.32811
-5.15191
-5.21365
-5.2751
-5.33728
-5.16008
-5.22183
-5.28328
-5.34546
-5.16825
-5.23001
-5.29147
-5.35364
-5.17642
-5.23819
-5.29965
-5.36183
-5.1846
-5.24637
-5.30783
-5.37001
-5.19277
-5.25455
-5.31602
-5.37819
-5.20094
-5.26273
-5.3242
-5.38638
-5.20912
-5.2709
-5.33238
-5.39456
-5.21729
-5.27908
-5.34057
-5.40274
-5.22547
-5.28726
-5.34875
-5.41093
-5.23364
-5.29544
-5.35693
-5.41911
-5.24182
-5.30362
-5.36512
-5.4273
-5.25
-5.31179
-5.3733
-5.43549
-5.25818
-5.31997
-5.38148
-5.44368
-5.26636
-5.32815
-5.38966
-5.45187
-5.27453
-5.33632
-5.39784
-5.46005
-5.28271
-5.34449
-5.40601
-5.46823
-5.29088
-5.35267
-5.41418
-5.47641
-5.29906
-5.36084
-5.42236
-5.48459
-5.30723
-5.36901
-5.43053
-5.49277
-5.31541
-5.37718
-5.43871
-5.50096
-5.32359
-5.38535
-5.44688
-5.50914
-5.33176
-5.39352
-5.45505
-5.51732
-5.33994
-5.4017
-5.46323
-5.5255
-5.34812
-5.40987
-5.4714
-5.53369
-5.35629
-5.41804
-5.47957
-5.54187
-5.36447
-5.42621
-5.48775
-5.55005
-5.37265
-5.43438
-5.49592
-5.55823
-5.38082
-5.44256
-5.5041
-5.56641
-5.389
-5.45073
-5.51227
-5.57459
-5.39717
-5.4589
-5.52045
-5.58277
-5.40534
-5.46708
-5.52863
-5.59095
-5.41352
-5.47526
-5.53681
-5.59913
-5.42169
-5.48343
-5.54499
-5.60731
-5.42987
-5.49161
-5.55317
-5.61549
-5.43804
-5.49979
-5.56134
-5.62368
-5.44621
-5.50796
-5.56952
-5.63185
-5.45439
-5.51614
-5.5777
-5.64003
-5.46256
-5.52432
-5.58588
-5.64821
-5.47074
-5.5325
-5.59406
-5.65639
-5.47891
-5.54067
-5.60224
-5.66457
-5.48708
-5.54885
-5.61042
-5.67275
-5.49526
-5.55703
-5.61859
-5.68092
-5.50343
-5.5652
-5.62677
-5.6891
-5.51161
-5.57338
-5.63495
-5.69728
-5.51978
-5.58155
-5.64313
-5.70546
-5.52795
-5.58973
-5.6513
-5.71364
-5.53613
-5.5979
-5.65948
-5.72181
-5.5443
-5.60608
-5.66766
-5.72999
-5.55248
-5.61425
-5.67583
-5.73817
-5.56065
-5.62242
-5.68401
-5.74635
-5.56883
-5.6306
-5.69218
-5.75453
-5.577
-5.63877
-5.70036
-5.7627
-5.58518
-5.64695
-5.70853
-5.77088
-5.59335
-5.65512
-5.71671
-5.77906
-5.60153
-5.6633
-5.72489
-5.78724
-5.6097
-5.67147
-5.73306
-5.79541
-5.61788
-5.67965
-5.74124
-5.80359
-5.62605
-5.68782
-5.74941
-5.81176
)
;

boundaryField
{
    topWall
    {
        type            calculated;
        value           nonuniform List<scalar> 8(-5.37879 -5.44201 -5.50527 -5.56793 -5.63014 -5.69191 -5.7535 -5.81585);
    }
    botWall
    {
        type            calculated;
        value           nonuniform List<scalar> 8(0.040889 -0.0435967 -0.109616 -0.171205 -0.235002 -0.296077 -0.357883 -0.417818);
    }
    inlet
    {
        type            cyclic;
    }
    outlet
    {
        type            cyclic;
    }
    fixWall
    {
        type            empty;
    }
}


// ************************************************************************* //
