/*--------------------------------*- C++ -*----------------------------------*\
  =========                 |
  \\      /  F ield         | OpenFOAM: The Open Source CFD Toolbox
   \\    /   O peration     | Website:  https://openfoam.org
    \\  /    A nd           | Version:  dev
     \\/     M anipulation  |

   OpenFOAM for Windows 20.09 (v1)
   Built by CFD Support, www.cfdsupport.com (based on Symscape).
\*---------------------------------------------------------------------------*/
FoamFile
{
    version     2.0;
    format      ascii;
    class       volScalarField;
    location    "6";
    object      p_rgh;
}
// * * * * * * * * * * * * * * * * * * * * * * * * * * * * * * * * * * * * * //

dimensions      [1 -1 -2 0 0 0 0];

internalField   nonuniform List<scalar> 
960
(
0.040889
-0.0435967
-0.109616
-0.171205
0.0248034
-0.0446789
-0.109683
-0.171227
0.0246255
-0.0446817
-0.109684
-0.171229
0.0245813
-0.0446466
-0.109685
-0.171241
0.024248
-0.0446868
-0.109687
-0.171243
0.0240625
-0.0446967
-0.109689
-0.171245
0.0238816
-0.0447082
-0.109692
-0.171247
0.0237041
-0.0447213
-0.109695
-0.171249
0.0235299
-0.0447362
-0.109698
-0.171252
0.0233597
-0.0447527
-0.109702
-0.171255
0.0231921
-0.0447707
-0.109707
-0.171258
0.0230459
-0.0447781
-0.109711
-0.171261
0.0228846
-0.0447981
-0.109675
-0.171265
0.0227595
-0.0447787
-0.109658
-0.171268
0.0226117
-0.0447995
-0.109655
-0.171269
0.0236936
-0.043662
-0.109281
-0.170773
0.0215075
-0.0453548
-0.110102
-0.171489
0.0213139
-0.0454087
-0.110108
-0.171491
0.0211624
-0.0454515
-0.110115
-0.171492
0.0209991
-0.0455076
-0.110122
-0.171483
0.0208516
-0.0455521
-0.110129
-0.171473
0.0207065
-0.0455975
-0.110137
-0.171456
0.0205634
-0.0456437
-0.11014
-0.171448
0.0204292
-0.0456847
-0.110157
-0.17144
0.0202888
-0.0457346
-0.110166
-0.171431
0.0201517
-0.0457828
-0.110175
-0.171422
0.0200168
-0.0458306
-0.110184
-0.171387
0.0198832
-0.0458794
-0.110195
-0.171381
0.0197515
-0.0459302
-0.110205
-0.17138
0.0221389
-0.042843
-0.107958
-0.171251
0.0207046
-0.0433031
-0.108416
-0.171082
0.0205419
-0.0434546
-0.108479
-0.172582
0.0204122
-0.0435356
-0.108492
-0.172559
0.0202899
-0.0436179
-0.108498
-0.172527
0.020152
-0.0437105
-0.108507
-0.172518
0.0200256
-0.0437929
-0.108517
-0.172496
0.0199003
-0.0438754
-0.108527
-0.172472
0.0197761
-0.0439577
-0.108532
-0.172449
0.0196531
-0.0440378
-0.108548
-0.17243
0.0195379
-0.0441212
-0.10856
-0.17241
0.0194027
-0.0442051
-0.108572
-0.172391
0.0192821
-0.0442865
-0.108565
-0.172362
0.0191598
-0.0443665
-0.108577
-0.172347
0.0190378
-0.0444463
-0.108586
-0.172326
0.0200424
-0.0430345
-0.108593
-0.172262
0.0183152
-0.0440507
-0.107657
-0.171334
0.0176879
-0.0441271
-0.108809
-0.173464
0.0175677
-0.0442708
-0.108835
-0.173449
0.0174515
-0.0444321
-0.108862
-0.173434
0.0173367
-0.0445349
-0.108886
-0.173415
0.0172364
-0.0446238
-0.108889
-0.173383
0.0171078
-0.0447255
-0.10892
-0.173367
0.0169933
-0.0448243
-0.108942
-0.173352
0.016879
-0.0449213
-0.108962
-0.173334
0.0167648
-0.0450175
-0.108983
-0.173315
0.016651
-0.0451136
-0.109003
-0.173298
0.0165485
-0.045208
-0.109021
-0.173266
0.0164373
-0.0453187
-0.109056
-0.173258
0.0162856
-0.0455077
-0.109106
-0.173258
-0.120136
-0.135788
-0.200941
-0.292141
-0.235002
-0.296077
-0.357883
-0.417818
-0.235083
-0.296073
-0.357967
-0.41784
-0.235081
-0.296079
-0.357968
-0.417855
-0.2351
-0.29608
-0.357985
-0.417862
-0.235133
-0.296089
-0.357986
-0.417877
-0.235132
-0.29609
-0.358003
-0.417885
-0.235132
-0.296092
-0.358005
-0.417904
-0.235132
-0.296095
-0.358006
-0.417915
-0.235131
-0.296097
-0.358008
-0.417926
-0.23513
-0.296099
-0.35801
-0.417939
-0.235127
-0.296096
-0.357999
-0.417949
-0.235136
-0.296115
-0.358015
-0.417967
-0.235086
-0.296118
-0.357985
-0.417972
-0.235018
-0.296121
-0.357947
-0.41799
-0.234199
-0.296124
-0.357958
-0.417893
-0.234669
-0.295498
-0.357426
-0.417358
-0.234664
-0.296128
-0.358236
-0.417817
-0.234674
-0.29613
-0.358279
-0.417874
-0.234679
-0.296133
-0.358309
-0.417935
-0.234679
-0.296136
-0.358329
-0.417995
-0.234679
-0.296132
-0.35835
-0.418056
-0.234679
-0.296136
-0.35837
-0.418117
-0.234684
-0.29614
-0.35839
-0.418178
-0.234683
-0.296143
-0.358415
-0.418235
-0.234682
-0.296147
-0.358437
-0.418304
-0.234681
-0.296151
-0.358458
-0.418365
-0.234665
-0.296145
-0.35848
-0.418426
-0.234685
-0.29615
-0.358502
-0.418488
-0.234684
-0.296166
-0.358525
-0.418549
-0.233591
-0.296141
-0.356876
-0.41713
-0.234464
-0.29569
-0.357613
-0.418364
-0.234446
-0.297124
-0.357667
-0.418442
-0.234431
-0.297125
-0.357696
-0.418516
-0.234417
-0.297128
-0.357716
-0.418573
-0.234402
-0.297134
-0.357757
-0.418656
-0.234388
-0.29714
-0.357787
-0.41873
-0.234374
-0.297146
-0.357818
-0.418805
-0.234357
-0.297153
-0.357848
-0.418878
-0.234347
-0.297159
-0.357879
-0.418952
-0.234334
-0.297163
-0.357904
-0.419017
-0.234321
-0.297171
-0.357941
-0.4191
-0.234305
-0.297178
-0.357973
-0.419175
-0.234294
-0.297185
-0.358007
-0.419255
-0.234281
-0.297186
-0.358022
-0.419293
-0.234251
-0.296488
-0.357805
-0.419061
-0.233084
-0.296607
-0.357185
-0.417904
-0.234704
-0.296645
-0.357602
-0.41887
-0.234695
-0.296644
-0.357619
-0.418944
-0.234684
-0.296641
-0.357634
-0.41902
-0.234671
-0.296636
-0.357648
-0.419095
-0.23466
-0.296631
-0.357664
-0.419177
-0.234647
-0.296627
-0.35768
-0.419257
-0.234651
-0.296614
-0.357695
-0.419338
-0.23464
-0.29662
-0.35771
-0.419418
-0.23463
-0.296615
-0.357725
-0.4195
-0.234621
-0.296611
-0.35774
-0.419582
-0.234575
-0.296582
-0.357728
-0.419629
-0.234569
-0.296581
-0.357732
-0.419681
-0.234635
-0.29662
-0.357787
-0.419807
-0.327687
-0.393238
-0.460024
-0.526994
-4.29899
-4.33192
-4.39683
-4.49656
-4.39737
-4.46067
-4.52417
-4.58693
-4.3975
-4.46075
-4.52424
-4.58705
-4.39751
-4.46076
-4.52424
-4.58704
-4.39753
-4.46076
-4.52424
-4.58704
-4.39754
-4.46078
-4.52423
-4.58704
-4.39755
-4.46079
-4.52423
-4.58703
-4.39756
-4.46079
-4.52423
-4.58703
-4.39758
-4.4608
-4.52423
-4.58702
-4.39759
-4.46081
-4.52423
-4.58702
-4.3976
-4.46082
-4.52423
-4.58702
-4.39761
-4.46083
-4.52423
-4.58701
-4.39762
-4.46083
-4.52423
-4.58701
-4.39763
-4.46084
-4.52422
-4.58701
-4.39764
-4.46084
-4.52422
-4.587
-4.39765
-4.46085
-4.52423
-4.58701
-4.39766
-4.46086
-4.52423
-4.58701
-4.39767
-4.46087
-4.52424
-4.587
-4.39767
-4.46088
-4.52425
-4.587
-4.39768
-4.46089
-4.52425
-4.587
-4.39768
-4.46089
-4.52425
-4.587
-4.39769
-4.4609
-4.52426
-4.58699
-4.39769
-4.46091
-4.52426
-4.58699
-4.3977
-4.46091
-4.52427
-4.58699
-4.3977
-4.46092
-4.52427
-4.58699
-4.39771
-4.46093
-4.52427
-4.58699
-4.39771
-4.46093
-4.52428
-4.58699
-4.39772
-4.46094
-4.52428
-4.58699
-4.39772
-4.46095
-4.52429
-4.58698
-4.39772
-4.46095
-4.52429
-4.58698
-4.39773
-4.46096
-4.52429
-4.58698
-4.39773
-4.46096
-4.52429
-4.58698
-4.39774
-4.46097
-4.52429
-4.58698
-4.39774
-4.46097
-4.52429
-4.58697
-4.39775
-4.46097
-4.52429
-4.58697
-4.39775
-4.46098
-4.52429
-4.58697
-4.39776
-4.46098
-4.52429
-4.58697
-4.39776
-4.46099
-4.52429
-4.58697
-4.39776
-4.46099
-4.52429
-4.58696
-4.39777
-4.46099
-4.52428
-4.58696
-4.39777
-4.461
-4.52428
-4.58696
-4.39778
-4.461
-4.52428
-4.58696
-4.39778
-4.46101
-4.52428
-4.58696
-4.39778
-4.46101
-4.52428
-4.58696
-4.39779
-4.46101
-4.52428
-4.58696
-4.39779
-4.46102
-4.52428
-4.58695
-4.39779
-4.46102
-4.52428
-4.58695
-4.39779
-4.46102
-4.52428
-4.58695
-4.39779
-4.46102
-4.52428
-4.58695
-4.39779
-4.46101
-4.52428
-4.58694
-4.39779
-4.46101
-4.52428
-4.58694
-4.39779
-4.46101
-4.52428
-4.58694
-4.39779
-4.46101
-4.52428
-4.58694
-4.39779
-4.46101
-4.52428
-4.58694
-4.39779
-4.46101
-4.52428
-4.58694
-4.39779
-4.46101
-4.52428
-4.58693
-4.39779
-4.46101
-4.52427
-4.58693
-4.39779
-4.46101
-4.52427
-4.58693
-4.39779
-4.46101
-4.52427
-4.58693
-4.39779
-4.46101
-4.52427
-4.58693
-4.54469
-4.62284
-4.66706
-4.71569
-4.64905
-4.71078
-4.77229
-4.83448
-4.64914
-4.71089
-4.77235
-4.83452
-4.64914
-4.7109
-4.77235
-4.83453
-4.64914
-4.7109
-4.77236
-4.83454
-4.64913
-4.71091
-4.77237
-4.83455
-4.64913
-4.71091
-4.77238
-4.83456
-4.64913
-4.71091
-4.77239
-4.83457
-4.64913
-4.71092
-4.77239
-4.83457
-4.64913
-4.71092
-4.7724
-4.83458
-4.64913
-4.71092
-4.77241
-4.83459
-4.64913
-4.71093
-4.77242
-4.8346
-4.64913
-4.71093
-4.77243
-4.83461
-4.64913
-4.71093
-4.77244
-4.83463
-4.64914
-4.71093
-4.77244
-4.83464
-4.64914
-4.71094
-4.77245
-4.83465
-4.64914
-4.71093
-4.77245
-4.83466
-4.64914
-4.71093
-4.77245
-4.83466
-4.64914
-4.71093
-4.77245
-4.83467
-4.64914
-4.71092
-4.77244
-4.83467
-4.64915
-4.71092
-4.77244
-4.83468
-4.64915
-4.71092
-4.77244
-4.83469
-4.64915
-4.71091
-4.77244
-4.8347
-4.64915
-4.71091
-4.77244
-4.83471
-4.64915
-4.71091
-4.77244
-4.83472
-4.64915
-4.7109
-4.77244
-4.83472
-4.64916
-4.7109
-4.77244
-4.83473
-4.64916
-4.7109
-4.77244
-4.83474
-4.64916
-4.7109
-4.77243
-4.83474
-4.64916
-4.71089
-4.77243
-4.83475
-4.64916
-4.71089
-4.77243
-4.83475
-4.64916
-4.71089
-4.77244
-4.83476
-4.64916
-4.71089
-4.77244
-4.83476
-4.64916
-4.71089
-4.77244
-4.83477
-4.64915
-4.7109
-4.77245
-4.83478
-4.64915
-4.7109
-4.77245
-4.83478
-4.64915
-4.7109
-4.77246
-4.83479
-4.64915
-4.7109
-4.77246
-4.83479
-4.64915
-4.7109
-4.77246
-4.8348
-4.64915
-4.71091
-4.77247
-4.8348
-4.64915
-4.71091
-4.77247
-4.8348
-4.64915
-4.71091
-4.77248
-4.83481
-4.64915
-4.71091
-4.77248
-4.83481
-4.64915
-4.71092
-4.77248
-4.83481
-4.64914
-4.71092
-4.77249
-4.83481
-4.64914
-4.71092
-4.77249
-4.83482
-4.64914
-4.71092
-4.77249
-4.83482
-4.64914
-4.71092
-4.77249
-4.83482
-4.64914
-4.71091
-4.77249
-4.83483
-4.64914
-4.71091
-4.77249
-4.83483
-4.64914
-4.71091
-4.77249
-4.83483
-4.64914
-4.71091
-4.77249
-4.83484
-4.64914
-4.71091
-4.7725
-4.83484
-4.64914
-4.71091
-4.7725
-4.83484
-4.64914
-4.71091
-4.7725
-4.83484
-4.64914
-4.71091
-4.7725
-4.83485
-4.64914
-4.71091
-4.7725
-4.83485
-4.64914
-4.71091
-4.7725
-4.83485
-4.64914
-4.71091
-4.7725
-4.83485
-4.64914
-4.71091
-4.7725
-4.83485
)
;

boundaryField
{
    topWall
    {
        type            zeroGradient;
    }
    botWall
    {
        type            zeroGradient;
    }
    inlet
    {
        type            fixedJump;
        patchType       cyclic;
        jump            uniform -0.5;
        value           nonuniform List<scalar> 
120
(
-4.36592
-4.25734
-0.0735647
0.0482394
0.0483781
0.0484598
0.0485346
0.0486324
0.0487304
0.0488276
0.0489251
0.0490298
0.049121
0.0492156
0.0493118
0.049409
0.0502054
0.0504907
0.0498724
0.0499525
0.0500535
0.0501512
0.0502604
0.0503505
0.0504488
0.0505479
0.0506476
0.0507482
0.0508582
0.050948
0.05105
0.0511704
0.0525046
0.0506014
0.0506978
0.0507951
0.0508932
0.0509923
0.0510969
0.0511926
0.0512946
0.0513977
0.0515018
0.0516138
0.0517199
0.0518452
0.0531677
0.0523591
0.0523849
0.0524562
0.0525396
0.0526214
0.0527104
0.0528018
0.0528947
0.0529888
0.0530885
0.0531856
0.0533598
0.0533854
0.0534819
0.0615353
-4.36601
-4.36602
-4.36603
-4.36604
-4.36605
-4.36606
-4.36607
-4.36608
-4.36609
-4.36611
-4.36612
-4.36613
-4.36614
-4.36615
-4.36616
-4.36617
-4.36617
-4.36618
-4.36618
-4.36619
-4.3662
-4.3662
-4.36621
-4.36621
-4.36622
-4.36623
-4.36623
-4.36624
-4.36624
-4.36625
-4.36625
-4.36626
-4.36626
-4.36627
-4.36627
-4.36628
-4.36628
-4.36628
-4.36629
-4.36629
-4.36629
-4.3663
-4.3663
-4.3663
-4.3663
-4.36631
-4.36631
-4.36631
-4.36631
-4.36631
-4.36632
-4.36632
-4.36632
-4.36632
-4.36632
-4.36632
-4.36632
-4.36632
)
;
    }
    outlet
    {
        type            fixedJump;
        patchType       cyclic;
        value           nonuniform List<scalar> 
120
(
-4.86592
-4.75734
-0.573565
-0.451761
-0.451622
-0.45154
-0.451465
-0.451368
-0.45127
-0.451172
-0.451075
-0.45097
-0.450879
-0.450784
-0.450688
-0.450591
-0.449795
-0.449509
-0.450128
-0.450048
-0.449946
-0.449849
-0.44974
-0.449649
-0.449551
-0.449452
-0.449352
-0.449252
-0.449142
-0.449052
-0.44895
-0.44883
-0.447495
-0.449399
-0.449302
-0.449205
-0.449107
-0.449008
-0.448903
-0.448807
-0.448705
-0.448602
-0.448498
-0.448386
-0.44828
-0.448155
-0.446832
-0.447641
-0.447615
-0.447544
-0.44746
-0.447379
-0.44729
-0.447198
-0.447105
-0.447011
-0.446911
-0.446814
-0.44664
-0.446615
-0.446518
-0.438465
-4.86601
-4.86602
-4.86603
-4.86604
-4.86605
-4.86606
-4.86607
-4.86608
-4.86609
-4.86611
-4.86612
-4.86613
-4.86614
-4.86615
-4.86616
-4.86617
-4.86617
-4.86618
-4.86618
-4.86619
-4.8662
-4.8662
-4.86621
-4.86621
-4.86622
-4.86623
-4.86623
-4.86624
-4.86624
-4.86625
-4.86625
-4.86626
-4.86626
-4.86627
-4.86627
-4.86628
-4.86628
-4.86628
-4.86629
-4.86629
-4.86629
-4.8663
-4.8663
-4.8663
-4.8663
-4.86631
-4.86631
-4.86631
-4.86631
-4.86631
-4.86632
-4.86632
-4.86632
-4.86632
-4.86632
-4.86632
-4.86632
-4.86632
)
;
    }
    fixWall
    {
        type            empty;
    }
}


// ************************************************************************* //
