/*--------------------------------*- C++ -*----------------------------------*\
  =========                 |
  \\      /  F ield         | OpenFOAM: The Open Source CFD Toolbox
   \\    /   O peration     | Website:  https://openfoam.org
    \\  /    A nd           | Version:  dev
     \\/     M anipulation  |

   OpenFOAM for Windows 20.09 (v1)
   Built by CFD Support, www.cfdsupport.com (based on Symscape).
\*---------------------------------------------------------------------------*/
FoamFile
{
    version     2.0;
    format      ascii;
    class       surfaceScalarField;
    location    "6";
    object      phi;
}
// * * * * * * * * * * * * * * * * * * * * * * * * * * * * * * * * * * * * * //

dimensions      [0 3 -1 0 0 0 0];

internalField   nonuniform List<scalar> 
1792
(
1.76619e-09
1.9296e-11
1.78138e-09
-1.51901e-11
1.78329e-09
-1.91021e-12
-8.54841e-12
1.79183e-09
5.00452e-09
-3.90288e-14
4.98135e-09
7.97689e-12
4.99049e-09
-1.10473e-11
-2.41976e-11
5.00614e-09
7.87625e-09
-2.06034e-11
7.84594e-09
3.82933e-11
7.85748e-09
-2.25809e-11
-4.05909e-11
7.87387e-09
1.04286e-08
-4.23082e-11
1.03954e-08
7.15135e-11
1.04079e-08
-3.51202e-11
-5.46629e-11
1.0422e-08
1.26878e-08
-6.885e-11
1.26528e-08
1.0659e-10
1.26656e-08
-4.7922e-11
-6.52683e-11
1.26762e-08
1.46761e-08
-9.74825e-11
1.46413e-08
1.41387e-10
1.46543e-08
-6.09416e-11
-7.27802e-11
1.46618e-08
1.64174e-08
-1.27087e-10
1.63841e-08
1.7474e-10
1.63974e-08
-7.42385e-11
-7.78112e-11
1.64024e-08
1.79353e-08
-1.56746e-10
1.79039e-08
2.06086e-10
1.79178e-08
-8.8104e-11
-8.13382e-11
1.79213e-08
1.92515e-08
-1.86132e-10
1.92228e-08
2.34762e-10
1.92371e-08
-1.02347e-10
-8.4257e-11
1.924e-08
2.03867e-08
-2.14049e-10
2.0361e-08
2.60469e-10
2.03763e-08
-1.17638e-10
-8.77734e-11
2.03798e-08
2.1361e-08
-2.4056e-10
2.13383e-08
2.83122e-10
2.13542e-08
-1.33455e-10
-9.2911e-11
2.13593e-08
2.21919e-08
-2.6347e-10
2.21722e-08
3.02894e-10
2.21899e-08
-1.51203e-10
-1.007e-10
2.21977e-08
2.28972e-08
-2.82953e-10
2.28813e-08
3.18788e-10
2.28988e-08
-1.68726e-10
-1.12091e-10
2.29102e-08
2.3492e-08
-2.96891e-10
2.34775e-08
3.33338e-10
2.34982e-08
-1.8946e-10
-1.27738e-10
2.35139e-08
2.39917e-08
-3.04718e-10
2.3978e-08
3.46759e-10
2.4e-08
-2.11987e-10
-1.48409e-10
2.40203e-08
2.44061e-08
-2.9772e-10
2.43934e-08
3.59206e-10
2.44195e-08
-2.37512e-10
-1.74522e-10
2.44459e-08
2.47537e-08
-2.9135e-10
2.47428e-08
3.70078e-10
2.47671e-08
-2.61796e-10
-2.0576e-10
2.47983e-08
2.50391e-08
-2.80822e-10
2.50295e-08
3.79681e-10
2.50553e-08
-2.87597e-10
-2.42232e-10
2.50917e-08
2.52747e-08
-2.68353e-10
2.52656e-08
3.88712e-10
2.52917e-08
-3.13685e-10
-2.83506e-10
2.5333e-08
2.54668e-08
-2.52831e-10
2.54576e-08
3.98003e-10
2.54851e-08
-3.41207e-10
-3.29735e-10
2.55313e-08
2.56243e-08
-2.36092e-10
2.56142e-08
4.08118e-10
2.56422e-08
-3.69128e-10
-3.80466e-10
2.56929e-08
2.57517e-08
-2.17279e-10
2.574e-08
4.1984e-10
2.57689e-08
-3.98015e-10
-4.35432e-10
2.58238e-08
2.58558e-08
-1.97997e-10
2.58419e-08
4.33673e-10
2.58709e-08
-4.26941e-10
-4.94469e-10
2.59299e-08
2.59396e-08
-1.77718e-10
2.59232e-08
4.50066e-10
2.59522e-08
-4.55881e-10
-5.57095e-10
2.60148e-08
2.60083e-08
-1.579e-10
2.59891e-08
4.69273e-10
2.60174e-08
-4.84228e-10
-6.23152e-10
2.60835e-08
2.6064e-08
-1.38318e-10
2.60419e-08
4.91372e-10
2.60694e-08
-5.11789e-10
-6.92033e-10
2.61383e-08
2.61102e-08
-1.19836e-10
2.60857e-08
5.15888e-10
2.61126e-08
-5.38768e-10
-7.63805e-10
2.61844e-08
2.61485e-08
-1.0268e-10
2.61224e-08
5.42037e-10
2.61485e-08
-5.64856e-10
-8.37311e-10
2.6222e-08
2.61812e-08
-8.73056e-11
2.61557e-08
5.67507e-10
2.61828e-08
-5.91953e-10
-9.11817e-10
2.62573e-08
2.62102e-08
-7.32529e-11
2.61842e-08
5.94355e-10
2.62163e-08
-6.24755e-10
-9.85543e-10
2.62901e-08
2.62305e-08
-6.16362e-11
2.62211e-08
6.0397e-10
2.62499e-08
-6.53126e-10
-1.04771e-09
2.63125e-08
2.62566e-08
-5.4315e-11
2.62526e-08
6.07958e-10
2.62847e-08
-6.85248e-10
-1.10376e-09
2.63408e-08
2.62871e-08
-5.0896e-11
2.62866e-08
6.08452e-10
2.63191e-08
-7.17742e-10
-1.15866e-09
2.6374e-08
2.63228e-08
-5.11114e-11
2.63231e-08
6.08193e-10
2.63541e-08
-7.48774e-10
-1.21289e-09
2.64084e-08
2.63659e-08
-5.44776e-11
2.63654e-08
6.08715e-10
2.63952e-08
-7.78647e-10
-1.26738e-09
2.64497e-08
2.64177e-08
-6.06251e-11
2.64155e-08
6.10974e-10
2.64434e-08
-8.06513e-10
-1.32168e-09
2.64977e-08
2.64813e-08
-6.93301e-11
2.64768e-08
6.1545e-10
2.65026e-08
-8.32342e-10
-1.37609e-09
2.6557e-08
2.6559e-08
-8.04234e-11
2.65524e-08
6.22064e-10
2.65758e-08
-8.55769e-10
-1.42964e-09
2.66293e-08
2.66545e-08
-9.39314e-11
2.66462e-08
6.30372e-10
2.6667e-08
-8.76626e-10
-1.48195e-09
2.67193e-08
2.67717e-08
-1.09843e-10
2.67623e-08
6.39784e-10
2.67803e-08
-8.94587e-10
-1.53168e-09
2.683e-08
2.69152e-08
-1.28236e-10
2.69057e-08
6.49329e-10
2.69206e-08
-9.09502e-10
-1.57785e-09
2.69667e-08
2.70903e-08
-1.49127e-10
2.70817e-08
6.57988e-10
2.70934e-08
-9.21178e-10
-1.61838e-09
2.71339e-08
2.73031e-08
-1.72212e-10
2.72968e-08
6.6432e-10
2.7305e-08
-9.29451e-10
-1.65179e-09
2.73384e-08
2.75605e-08
-1.97072e-10
2.75576e-08
6.6716e-10
2.75626e-08
-9.34405e-10
-1.67551e-09
2.75863e-08
2.78706e-08
-2.2371e-10
2.78719e-08
6.6497e-10
2.78743e-08
-9.36396e-10
-1.68784e-09
2.78864e-08
2.82362e-08
-2.42285e-10
2.8251e-08
6.49806e-10
2.82519e-08
-9.3839e-10
-1.68006e-09
2.82432e-08
2.86755e-08
-2.59866e-10
2.86949e-08
6.30404e-10
2.8692e-08
-9.35485e-10
-1.66524e-09
2.86772e-08
2.91982e-08
-2.78775e-10
2.92197e-08
6.08874e-10
2.92143e-08
-9.29998e-10
-1.64294e-09
2.9192e-08
2.98153e-08
-2.99561e-10
2.98382e-08
5.85984e-10
2.98297e-08
-9.21501e-10
-1.61556e-09
2.98023e-08
3.0541e-08
-3.23283e-10
3.05638e-08
5.63216e-10
3.0552e-08
-9.09715e-10
-1.584e-09
3.05204e-08
3.13883e-08
-3.50006e-10
3.14111e-08
5.40351e-10
3.13955e-08
-8.94091e-10
-1.54951e-09
3.1361e-08
3.23739e-08
-3.80389e-10
3.23957e-08
5.18543e-10
3.23762e-08
-8.74504e-10
-1.51244e-09
3.23391e-08
3.35123e-08
-4.14461e-10
3.35349e-08
4.96024e-10
3.35102e-08
-8.49877e-10
-1.47312e-09
3.34709e-08
3.48242e-08
-4.53408e-10
3.48454e-08
4.74871e-10
3.48161e-08
-8.20645e-10
-1.43143e-09
3.47744e-08
3.63232e-08
-4.96809e-10
3.63471e-08
4.50989e-10
3.63117e-08
-7.85268e-10
-1.38696e-09
3.62672e-08
3.80338e-08
-5.45412e-10
3.80577e-08
4.27073e-10
3.80174e-08
-7.44938e-10
-1.33974e-09
3.79702e-08
3.99691e-08
-5.97782e-10
3.9999e-08
3.97206e-10
3.99521e-08
-6.98077e-10
-1.28925e-09
3.99016e-08
4.21566e-08
-6.52395e-10
4.21887e-08
3.65146e-10
4.21389e-08
-6.48344e-10
-1.23663e-09
4.20863e-08
4.46073e-08
-7.04676e-10
4.46478e-08
3.24627e-10
4.45958e-08
-5.96309e-10
-1.18316e-09
4.45423e-08
4.73867e-08
-7.51693e-10
4.74214e-08
2.89756e-10
4.73717e-08
-5.46148e-10
4.73183e-08
-1.13e-09
1.78244e-09
9.39403e-12
1.78645e-09
-4.01102e-12
1.78486e-09
1.59529e-12
-6.36561e-13
4.98676e-09
2.87817e-11
4.9949e-09
-1.21506e-11
4.997e-09
-5.03009e-13
1.11771e-11
7.84672e-09
5.59409e-11
7.85764e-09
-2.30729e-11
7.86263e-09
-5.48532e-12
1.81263e-11
1.03874e-08
9.05145e-11
1.04004e-08
-3.60203e-11
1.04075e-08
-1.25978e-11
1.8744e-11
1.26359e-08
1.30766e-10
1.26493e-08
-4.93475e-11
1.26581e-08
-2.14401e-11
1.55649e-11
1.46166e-08
1.75967e-10
1.46303e-08
-6.30045e-11
1.46407e-08
-3.18841e-11
8.84647e-12
1.63534e-08
2.24954e-10
1.6367e-08
-7.65844e-11
1.6379e-08
-4.38474e-11
-2.2714e-14
1.78697e-08
2.76627e-10
1.78832e-08
-9.01363e-11
1.78963e-08
-5.69679e-11
-9.34256e-12
1.91867e-08
3.29888e-10
1.92001e-08
-1.03524e-10
1.92138e-08
-7.06982e-11
-1.76515e-11
2.03259e-08
3.8376e-10
2.03393e-08
-1.16913e-10
2.03532e-08
-8.46159e-11
-2.32456e-11
2.13058e-08
4.37295e-10
2.13194e-08
-1.30593e-10
2.13325e-08
-9.76485e-11
-2.53009e-11
2.21456e-08
4.8942e-10
2.21588e-08
-1.43778e-10
2.21721e-08
-1.10998e-10
-2.22542e-11
2.28609e-08
5.38788e-10
2.28734e-08
-1.56366e-10
2.28867e-08
-1.24291e-10
-1.3265e-11
2.34683e-08
5.84308e-10
2.34808e-08
-1.68832e-10
2.34932e-08
-1.36721e-10
1.86657e-12
2.39803e-08
6.24144e-10
2.39926e-08
-1.82152e-10
2.4004e-08
-1.48056e-10
2.15079e-11
2.44123e-08
6.58514e-10
2.44231e-08
-1.92721e-10
2.44327e-08
-1.56353e-10
4.03389e-11
2.47695e-08
6.87288e-10
2.47819e-08
-2.05065e-10
2.47883e-08
-1.62771e-10
6.86059e-11
2.50669e-08
7.12123e-10
2.50799e-08
-2.18051e-10
2.50841e-08
-1.67006e-10
1.0313e-10
2.53115e-08
7.33632e-10
2.53246e-08
-2.31205e-10
2.53267e-08
-1.69047e-10
1.42674e-10
2.55125e-08
7.52462e-10
2.55261e-08
-2.44796e-10
2.55266e-08
-1.69608e-10
1.86931e-10
2.56762e-08
7.69111e-10
2.56896e-08
-2.58123e-10
2.56884e-08
-1.68403e-10
2.34202e-10
2.58091e-08
7.83807e-10
2.58227e-08
-2.71678e-10
2.58203e-08
-1.65976e-10
2.83951e-10
2.59165e-08
7.97148e-10
2.59296e-08
-2.84734e-10
2.59257e-08
-1.62074e-10
3.34612e-10
2.60028e-08
8.09149e-10
2.60157e-08
-2.97622e-10
2.60109e-08
-1.57238e-10
3.85557e-10
2.60725e-08
8.20134e-10
2.60843e-08
-3.09447e-10
2.60783e-08
-1.51206e-10
4.35744e-10
2.61281e-08
8.3032e-10
2.61391e-08
-3.20452e-10
2.61325e-08
-1.44555e-10
4.84672e-10
2.6174e-08
8.40701e-10
2.61829e-08
-3.29365e-10
2.61755e-08
-1.3708e-10
5.3148e-10
2.62113e-08
8.51379e-10
2.62181e-08
-3.36188e-10
2.62101e-08
-1.29029e-10
5.75863e-10
2.62441e-08
8.64581e-10
2.62469e-08
-3.3899e-10
2.62384e-08
-1.20477e-10
6.17667e-10
2.62706e-08
8.83578e-10
2.62704e-08
-3.38616e-10
2.62617e-08
-1.13099e-10
6.56145e-10
2.63064e-08
8.89668e-10
2.62941e-08
-3.26207e-10
2.62861e-08
-1.04696e-10
7.00714e-10
2.63345e-08
8.95949e-10
2.63172e-08
-3.08917e-10
2.63083e-08
-9.5744e-11
7.45069e-10
2.63661e-08
9.03841e-10
2.63452e-08
-2.88018e-10
2.63335e-08
-8.40529e-11
7.88078e-10
2.64004e-08
9.1177e-10
2.63776e-08
-2.65159e-10
2.63637e-08
-7.0127e-11
8.2912e-10
2.64419e-08
9.19576e-10
2.64173e-08
-2.40509e-10
2.64011e-08
-5.39585e-11
8.67725e-10
2.64906e-08
9.26673e-10
2.64654e-08
-2.15319e-10
2.64477e-08
-3.62377e-11
9.0379e-10
2.65511e-08
9.32587e-10
2.65255e-08
-1.89732e-10
2.6506e-08
-1.6715e-11
9.37238e-10
2.66248e-08
9.37109e-10
2.65997e-08
-1.64626e-10
2.65787e-08
4.25838e-12
9.68088e-10
2.67168e-08
9.39648e-10
2.66923e-08
-1.40125e-10
2.66694e-08
2.71123e-11
9.96551e-10
2.68295e-08
9.40146e-10
2.68063e-08
-1.16972e-10
2.67818e-08
5.16725e-11
1.02251e-09
2.69688e-08
9.38102e-10
2.69472e-08
-9.54027e-11
2.69207e-08
7.81433e-11
1.04644e-09
2.71385e-08
9.33493e-10
2.71192e-08
-7.61161e-11
2.7091e-08
1.06406e-10
1.06794e-09
2.73457e-08
9.26286e-10
2.73294e-08
-5.98213e-11
2.72997e-08
1.3611e-10
1.08758e-09
2.75956e-08
9.16998e-10
2.75826e-08
-4.68468e-11
2.75524e-08
1.66351e-10
1.10434e-09
2.78965e-08
9.06986e-10
2.78877e-08
-3.73943e-11
2.78586e-08
1.96054e-10
1.11865e-09
2.82592e-08
8.90611e-10
2.82544e-08
-3.22674e-11
2.82258e-08
2.23231e-10
1.12691e-09
2.86927e-08
8.75148e-10
2.86957e-08
-3.53211e-11
2.86639e-08
2.5508e-10
1.13284e-09
2.92106e-08
8.56493e-10
2.92169e-08
-4.16351e-11
2.91832e-08
2.88795e-10
1.13676e-09
2.98241e-08
8.34653e-10
2.9833e-08
-5.05106e-11
2.97977e-08
3.24122e-10
1.13995e-09
3.05452e-08
8.09918e-10
3.05558e-08
-6.1169e-11
3.0518e-08
3.61935e-10
1.14071e-09
3.13885e-08
7.824e-10
3.14009e-08
-7.3493e-11
3.13615e-08
4.01289e-10
1.14071e-09
3.23688e-08
7.52678e-10
3.23823e-08
-8.69649e-11
3.23407e-08
4.42871e-10
1.13789e-09
3.35029e-08
7.20678e-10
3.35178e-08
-1.01873e-10
3.34755e-08
4.85255e-10
1.13507e-09
3.48081e-08
6.86993e-10
3.48238e-08
-1.17519e-10
3.47795e-08
5.29501e-10
1.12933e-09
3.63026e-08
6.51675e-10
3.63201e-08
-1.35039e-10
3.6276e-08
5.73593e-10
1.12548e-09
3.8006e-08
6.15883e-10
3.80241e-08
-1.53234e-10
3.79794e-08
6.18301e-10
1.11969e-09
3.99377e-08
5.79692e-10
3.99582e-08
-1.73648e-10
3.99157e-08
6.60797e-10
1.11864e-09
4.21208e-08
5.45139e-10
4.21416e-08
-1.94411e-10
4.21017e-08
7.00706e-10
1.11835e-09
4.45744e-08
5.13068e-10
4.45967e-08
-2.16721e-10
4.4564e-08
7.33473e-10
1.12728e-09
4.73444e-08
4.87488e-10
4.73658e-08
-2.38359e-10
4.73427e-08
7.56993e-10
1.13026e-09
5.26654e-08
-7.75281e-10
5.2677e-08
2.78017e-10
5.26543e-08
-5.23367e-10
-1.08969e-09
5.26148e-08
7.74021e-08
-6.56899e-10
7.71616e-08
5.18693e-10
7.75213e-08
-8.8307e-10
-1.29128e-09
7.77228e-08
1.02077e-07
-5.02645e-10
1.01913e-07
6.82436e-10
1.02227e-07
-1.19759e-09
-1.47954e-09
1.02416e-07
1.24051e-07
-3.57255e-10
1.23961e-07
7.72734e-10
1.24222e-07
-1.45903e-09
-1.63339e-09
1.24376e-07
1.43525e-07
-2.40914e-10
1.43502e-07
7.95145e-10
1.43703e-07
-1.65957e-09
-1.74866e-09
1.43818e-07
1.60714e-07
-1.66484e-10
1.6073e-07
7.78806e-10
1.6087e-07
-1.79918e-09
-1.82142e-09
1.60943e-07
1.75794e-07
-1.39411e-10
1.75844e-07
7.28438e-10
1.75925e-07
-1.87961e-09
-1.85341e-09
1.75957e-07
1.8897e-07
-1.46811e-10
1.89028e-07
6.70821e-10
1.89069e-07
-1.92108e-09
-1.85189e-09
1.89067e-07
2.00414e-07
-1.86737e-10
2.00482e-07
6.03314e-10
2.00489e-07
-1.92793e-09
-1.81737e-09
2.00454e-07
2.10311e-07
-2.49574e-10
2.1038e-07
5.34533e-10
2.10373e-07
-1.92056e-09
-1.75367e-09
2.10309e-07
2.1882e-07
-3.27503e-10
2.18887e-07
4.68034e-10
2.18864e-07
-1.89774e-09
-1.6705e-09
2.18781e-07
2.261e-07
-4.06e-10
2.26157e-07
4.10665e-10
2.26134e-07
-1.87423e-09
-1.57232e-09
2.26036e-07
2.32288e-07
-4.76828e-10
2.32336e-07
3.63263e-10
2.32309e-07
-1.84744e-09
-1.4669e-09
2.32203e-07
2.37521e-07
-5.28322e-10
2.37558e-07
3.26721e-10
2.37539e-07
-1.82848e-09
-1.35651e-09
2.37428e-07
2.41925e-07
-5.57046e-10
2.41948e-07
3.04178e-10
2.41929e-07
-1.80901e-09
-1.24396e-09
2.41819e-07
2.45597e-07
-5.45031e-10
2.45608e-07
2.9294e-10
2.4561e-07
-1.80837e-09
-1.13742e-09
2.45503e-07
2.48666e-07
-4.96394e-10
2.48662e-07
2.96674e-10
2.48677e-07
-1.82301e-09
-1.03136e-09
2.48571e-07
2.51205e-07
-4.26012e-10
2.51195e-07
3.06971e-10
2.51224e-07
-1.85225e-09
-9.25274e-10
2.51118e-07
2.53303e-07
-3.38308e-10
2.53283e-07
3.2724e-10
2.53324e-07
-1.89382e-09
-8.16339e-10
2.53215e-07
2.55017e-07
-2.46263e-10
2.54991e-07
3.52756e-10
2.55043e-07
-1.94545e-09
-7.10493e-10
2.54937e-07
2.56408e-07
-1.58521e-10
2.5638e-07
3.80784e-10
2.56441e-07
-2.00601e-09
-6.0609e-10
2.56336e-07
2.57529e-07
-7.6112e-11
2.57498e-07
4.1157e-10
2.57563e-07
-2.07112e-09
-5.147e-10
2.57472e-07
2.58425e-07
1.87121e-12
2.58391e-07
4.45709e-10
2.58457e-07
-2.13755e-09
-4.37275e-10
2.5838e-07
2.59133e-07
7.67114e-11
2.59095e-07
4.84116e-10
2.59159e-07
-2.20153e-09
-3.7824e-10
2.591e-07
2.59685e-07
1.48261e-10
2.5964e-07
5.29322e-10
2.59698e-07
-2.25948e-09
-3.32851e-10
2.59653e-07
2.60107e-07
2.16892e-10
2.60056e-07
5.79912e-10
2.60106e-07
-2.30956e-09
-3.0452e-10
2.60078e-07
2.60419e-07
2.81185e-10
2.60362e-07
6.37087e-10
2.60402e-07
-2.34963e-09
-2.87452e-10
2.60385e-07
2.60636e-07
3.40927e-10
2.60576e-07
6.97557e-10
2.60602e-07
-2.37626e-09
-2.79732e-10
2.60595e-07
2.60772e-07
3.93488e-10
2.6071e-07
7.59298e-10
2.60716e-07
-2.38285e-09
-2.63611e-10
2.607e-07
2.60831e-07
4.38735e-10
2.60772e-07
8.1781e-10
2.60758e-07
-2.36927e-09
-2.46561e-10
2.60742e-07
2.6082e-07
4.70566e-10
2.60768e-07
8.69658e-10
2.60733e-07
-2.33519e-09
-2.26882e-10
2.60711e-07
2.60734e-07
4.89514e-10
2.60693e-07
9.10886e-10
2.60636e-07
-2.27833e-09
-2.04818e-10
2.60614e-07
2.60575e-07
4.88868e-10
2.60552e-07
9.3444e-10
2.60471e-07
-2.1972e-09
-1.75808e-10
2.60442e-07
2.60318e-07
4.76721e-10
2.60305e-07
9.47379e-10
2.60209e-07
-2.10146e-09
-1.55087e-10
2.60188e-07
2.59956e-07
4.5498e-10
2.5995e-07
9.53083e-10
2.59845e-07
-1.99587e-09
-1.39358e-10
2.59829e-07
2.59466e-07
4.2777e-10
2.5946e-07
9.58428e-10
2.59351e-07
-1.88689e-09
-1.34947e-10
2.59347e-07
2.58819e-07
3.977e-10
2.58827e-07
9.50323e-10
2.58718e-07
-1.77741e-09
-1.35655e-10
2.58718e-07
2.57977e-07
3.68781e-10
2.58008e-07
9.19825e-10
2.57906e-07
-1.67552e-09
-1.43347e-10
2.57913e-07
2.56939e-07
3.46197e-10
2.56986e-07
8.73231e-10
2.56888e-07
-1.5778e-09
-1.54589e-10
2.569e-07
2.55655e-07
3.28423e-10
2.55712e-07
8.16613e-10
2.55617e-07
-1.48287e-09
-1.69214e-10
2.55631e-07
2.54075e-07
3.24272e-10
2.54138e-07
7.54377e-10
2.54046e-07
-1.39105e-09
-1.84794e-10
2.54061e-07
2.52135e-07
3.26169e-10
2.522e-07
6.89505e-10
2.52109e-07
-1.30027e-09
-2.00424e-10
2.52125e-07
2.49767e-07
3.44141e-10
2.49832e-07
6.25091e-10
2.49744e-07
-1.21303e-09
-2.14715e-10
2.49759e-07
2.46887e-07
3.60771e-10
2.4695e-07
5.61959e-10
2.46863e-07
-1.12626e-09
-2.26475e-10
2.46875e-07
2.43406e-07
3.83532e-10
2.43465e-07
5.01644e-10
2.43382e-07
-1.04466e-09
-2.36018e-10
2.43391e-07
2.39217e-07
4.06791e-10
2.39273e-07
4.45455e-10
2.3919e-07
-9.6289e-10
-2.40213e-10
2.39194e-07
2.34208e-07
4.20709e-10
2.34259e-07
3.94328e-10
2.3418e-07
-8.84526e-10
-2.40198e-10
2.3418e-07
2.28247e-07
4.3432e-10
2.28294e-07
3.47546e-10
2.28215e-07
-8.05451e-10
-2.34276e-10
2.28209e-07
2.21194e-07
4.32099e-10
2.21237e-07
3.04671e-10
2.21161e-07
-7.29543e-10
-2.23707e-10
2.2115e-07
2.12893e-07
4.25844e-10
2.12932e-07
2.6617e-10
2.12854e-07
-6.51666e-10
-2.0687e-10
2.12837e-07
2.03173e-07
4.02289e-10
2.03209e-07
2.30255e-10
2.03132e-07
-5.75195e-10
-1.86413e-10
2.03112e-07
1.9185e-07
3.67026e-10
1.91886e-07
1.94587e-10
1.91806e-07
-4.95423e-10
-1.61297e-10
1.91781e-07
1.7873e-07
3.16402e-10
1.78765e-07
1.59815e-10
1.78685e-07
-4.15154e-10
-1.35804e-10
1.78659e-07
1.63608e-07
2.57192e-10
1.63642e-07
1.26574e-10
1.63559e-07
-3.32247e-10
-1.08896e-10
1.63532e-07
1.46262e-07
1.9487e-10
1.46292e-07
9.65442e-11
1.46212e-07
-2.52141e-10
-8.38606e-11
1.46187e-07
1.26463e-07
1.34465e-10
1.26491e-07
6.88471e-11
1.26415e-07
-1.76293e-10
-5.97907e-11
1.26391e-07
1.03971e-07
8.17049e-11
1.03996e-07
4.42744e-11
1.0393e-07
-1.10411e-10
-3.95205e-11
1.0391e-07
7.8541e-08
4.00206e-11
7.85627e-08
2.26381e-11
7.85094e-08
-5.71152e-11
-2.22612e-11
7.84921e-08
4.99244e-08
1.20714e-11
4.99405e-08
6.57625e-12
4.99022e-08
-1.88186e-11
-8.6542e-12
4.98886e-08
1.78615e-08
1.78681e-08
1.78492e-08
1.78406e-08
5.26227e-08
4.79323e-10
5.2645e-08
-2.60739e-10
5.26374e-08
7.65315e-10
1.12578e-09
7.77265e-08
4.75652e-10
7.77287e-08
-2.62885e-10
7.74825e-08
1.01136e-09
1.08791e-09
1.02396e-07
4.94921e-10
1.02391e-07
-2.57563e-10
1.02249e-07
1.15362e-09
1.10602e-09
1.24339e-07
5.32267e-10
1.24333e-07
-2.51275e-10
1.24253e-07
1.23333e-09
1.16233e-09
1.43773e-07
5.77771e-10
1.4377e-07
-2.48381e-10
1.4373e-07
1.27301e-09
1.2513e-09
1.60895e-07
6.2571e-10
1.60894e-07
-2.47276e-10
1.60875e-07
1.29109e-09
1.33837e-09
1.75911e-07
6.71372e-10
1.75921e-07
-2.57466e-10
1.75912e-07
1.2996e-09
1.42998e-09
1.8902e-07
7.18389e-10
1.89041e-07
-2.77833e-10
1.89038e-07
1.30219e-09
1.50557e-09
2.00405e-07
7.67349e-10
2.00443e-07
-3.16093e-10
2.00445e-07
1.30082e-09
1.57592e-09
2.10253e-07
8.23543e-10
2.10305e-07
-3.68633e-10
2.10305e-07
1.30091e-09
1.63269e-09
2.18724e-07
8.80026e-10
2.18792e-07
-4.36615e-10
2.18793e-07
1.30047e-09
1.68314e-09
2.25976e-07
9.40208e-10
2.26054e-07
-5.15357e-10
2.26058e-07
1.29651e-09
1.72007e-09
2.32146e-07
9.97217e-10
2.32235e-07
-6.043e-10
2.32247e-07
1.28489e-09
1.74974e-09
2.37371e-07
1.05455e-09
2.37466e-07
-6.99042e-10
2.37489e-07
1.26157e-09
1.76919e-09
2.41768e-07
1.10472e-09
2.41869e-07
-8.00791e-10
2.41909e-07
1.22316e-09
1.78244e-09
2.45452e-07
1.15865e-09
2.45554e-07
-9.04884e-10
2.45614e-07
1.16597e-09
1.78837e-09
2.48516e-07
1.21379e-09
2.48622e-07
-1.01066e-09
2.48709e-07
1.07849e-09
1.78272e-09
2.51057e-07
1.27495e-09
2.51154e-07
-1.10822e-09
2.51255e-07
9.77757e-10
1.76233e-09
2.53144e-07
1.34651e-09
2.53226e-07
-1.19095e-09
2.53342e-07
8.61654e-10
1.71424e-09
2.5486e-07
1.42369e-09
2.54916e-07
-1.24739e-09
2.55032e-07
7.45853e-10
1.63768e-09
2.56248e-07
1.51183e-09
2.56274e-07
-1.2727e-09
2.56387e-07
6.32348e-10
1.52894e-09
2.57384e-07
1.59946e-09
2.57371e-07
-1.2593e-09
2.57474e-07
5.29305e-10
1.39165e-09
2.58297e-07
1.68264e-09
2.58255e-07
-1.21716e-09
2.58347e-07
4.36403e-10
1.23619e-09
2.59033e-07
1.74911e-09
2.58967e-07
-1.15115e-09
2.59043e-07
3.60819e-10
1.07094e-09
2.59592e-07
1.80942e-09
2.59513e-07
-1.07157e-09
2.59585e-07
2.88571e-10
8.98925e-10
2.60036e-07
1.8514e-09
2.59944e-07
-9.79508e-10
2.60003e-07
2.29642e-10
7.26076e-10
2.60346e-07
1.88961e-09
2.60249e-07
-8.82355e-10
2.6031e-07
1.68781e-10
5.52817e-10
2.60574e-07
1.91055e-09
2.60475e-07
-7.83582e-10
2.60527e-07
1.16314e-10
3.84038e-10
2.60681e-07
1.92966e-09
2.60595e-07
-6.97009e-10
2.60658e-07
5.28558e-11
2.1783e-10
2.60742e-07
1.92935e-09
2.60659e-07
-6.13813e-10
2.60716e-07
-4.98635e-12
5.84616e-11
2.60716e-07
1.924e-09
2.60637e-07
-5.34375e-10
2.60697e-07
-6.5595e-11
-9.63108e-11
2.60642e-07
1.89655e-09
2.6056e-07
-4.52341e-10
2.60607e-07
-1.12424e-10
-2.43175e-10
2.6048e-07
1.85794e-09
2.60396e-07
-3.67834e-10
2.60436e-07
-1.52792e-10
-3.81729e-10
2.60252e-07
1.79399e-09
2.6016e-07
-2.75828e-10
2.60179e-07
-1.7105e-10
-5.08766e-10
2.59904e-07
1.71878e-09
2.59813e-07
-1.84617e-10
2.5982e-07
-1.78458e-10
-6.22632e-10
2.59436e-07
1.62918e-09
2.59348e-07
-9.62269e-11
2.59339e-07
-1.69597e-10
-7.21807e-10
2.58815e-07
1.53259e-09
2.58734e-07
-1.55429e-11
2.58716e-07
-1.51527e-10
-7.94562e-10
2.5802e-07
1.42614e-09
2.57947e-07
5.70789e-11
2.57913e-07
-1.17325e-10
-8.29715e-10
2.57011e-07
1.31517e-09
2.5695e-07
1.17802e-10
2.56913e-07
-8.09213e-11
-8.3317e-10
2.55747e-07
1.19928e-09
2.55697e-07
1.67746e-10
2.55658e-07
-4.17655e-11
-8.12285e-10
2.54178e-07
1.08274e-09
2.54144e-07
2.02057e-10
2.54115e-07
-1.26237e-11
-7.69032e-10
2.52241e-07
9.6643e-10
2.52219e-07
2.24005e-10
2.52196e-07
1.11109e-11
-7.10565e-10
2.49873e-07
8.51757e-10
2.49869e-07
2.28771e-10
2.49859e-07
2.04991e-11
-6.36534e-10
2.46984e-07
7.42197e-10
2.46986e-07
2.27545e-10
2.4698e-07
2.64431e-11
-5.60196e-10
2.435e-07
6.34557e-10
2.43509e-07
2.17341e-10
2.43505e-07
3.00076e-11
-4.82684e-10
2.39293e-07
5.35592e-10
2.39312e-07
1.98216e-10
2.39319e-07
2.09714e-11
-4.03915e-10
2.34282e-07
4.34036e-10
2.34303e-07
1.76985e-10
2.34294e-07
2.99066e-11
-3.31235e-10
2.28292e-07
3.51424e-10
2.28316e-07
1.52233e-10
2.28327e-07
1.96323e-11
-2.65422e-10
2.21234e-07
2.68031e-10
2.21256e-07
1.30345e-10
2.21246e-07
2.91277e-11
-2.11018e-10
2.12898e-07
2.06668e-10
2.1292e-07
1.08725e-10
2.1293e-07
1.87865e-11
-1.67649e-10
2.03173e-07
1.45449e-10
2.03192e-07
8.98612e-11
2.03183e-07
2.69936e-11
-1.3323e-10
1.91822e-07
1.03831e-10
1.91839e-07
7.27843e-11
1.91842e-07
2.41069e-11
-1.05603e-10
1.78701e-07
6.22629e-11
1.78717e-07
5.62603e-11
1.78706e-07
3.59932e-11
-7.97612e-11
1.6356e-07
3.44365e-11
1.63576e-07
4.0105e-11
1.63572e-07
4.01171e-11
-5.72655e-11
1.46212e-07
1.01941e-11
1.46225e-07
2.62118e-11
1.46219e-07
4.66017e-11
-3.84027e-11
1.26404e-07
-2.95158e-12
1.26416e-07
1.39817e-11
1.26419e-07
4.43543e-11
-2.25976e-11
1.03917e-07
-1.06185e-11
1.03925e-07
5.89382e-12
1.03931e-07
3.89984e-11
-1.03086e-11
7.8492e-08
-1.05645e-11
7.84978e-08
1.24827e-13
7.85094e-08
2.74426e-11
-2.7556e-13
4.9884e-08
-6.01667e-12
4.98853e-08
-1.16513e-12
4.99001e-08
1.26638e-11
3.34779e-12
1.78346e-08
1.78334e-08
1.78461e-08
)
;

boundaryField
{
    topWall
    {
        type            calculated;
        value           uniform 0;
    }
    botWall
    {
        type            calculated;
        value           uniform 0;
    }
    inlet
    {
        type            cyclic;
        value           nonuniform List<scalar> 
120
(
-7.75203e-08
-5.26418e-08
-4.73397e-08
-4.4555e-08
-4.2102e-08
-3.99167e-08
-3.79852e-08
-3.62798e-08
-3.47853e-08
-3.34783e-08
-3.23435e-08
-3.13615e-08
-3.05173e-08
-2.97945e-08
-2.91793e-08
-2.8658e-08
-2.82178e-08
-2.7844e-08
-2.75356e-08
-2.728e-08
-2.70695e-08
-2.68968e-08
-2.67558e-08
-2.6641e-08
-2.65479e-08
-2.64726e-08
-2.64116e-08
-2.63625e-08
-2.63226e-08
-2.62905e-08
-2.62639e-08
-2.62418e-08
-2.62239e-08
-2.61966e-08
-2.61657e-08
-2.61287e-08
-2.60835e-08
-2.60281e-08
-2.59599e-08
-2.5875e-08
-2.57705e-08
-2.56411e-08
-2.54824e-08
-2.52871e-08
-2.50496e-08
-2.476e-08
-2.44133e-08
-2.39839e-08
-2.34781e-08
-2.28777e-08
-2.2169e-08
-2.13345e-08
-2.03588e-08
-1.92221e-08
-1.79056e-08
-1.63878e-08
-1.46474e-08
-1.26613e-08
-1.04069e-08
-7.85569e-09
-4.98519e-09
-1.78549e-09
-1.02231e-07
-1.24197e-07
-1.43641e-07
-1.60788e-07
-1.75821e-07
-1.88963e-07
-2.00374e-07
-2.10248e-07
-2.18742e-07
-2.26021e-07
-2.32217e-07
-2.3747e-07
-2.41896e-07
-2.45608e-07
-2.48715e-07
-2.51275e-07
-2.53391e-07
-2.55109e-07
-2.56496e-07
-2.57611e-07
-2.58503e-07
-2.59208e-07
-2.59757e-07
-2.60176e-07
-2.60483e-07
-2.60696e-07
-2.60824e-07
-2.60875e-07
-2.60852e-07
-2.60753e-07
-2.60575e-07
-2.60306e-07
-2.59934e-07
-2.59438e-07
-2.58789e-07
-2.57948e-07
-2.56917e-07
-2.55637e-07
-2.54071e-07
-2.52137e-07
-2.49785e-07
-2.46903e-07
-2.43427e-07
-2.3924e-07
-2.34222e-07
-2.28261e-07
-2.21192e-07
-2.12887e-07
-2.03149e-07
-1.91815e-07
-1.7868e-07
-1.63549e-07
-1.462e-07
-1.26403e-07
-1.03918e-07
-7.84993e-08
-4.98965e-08
-1.78494e-08
)
;
    }
    outlet
    {
        type            cyclic;
        value           nonuniform List<scalar> 
120
(
7.75203e-08
5.26418e-08
4.73397e-08
4.4555e-08
4.2102e-08
3.99167e-08
3.79852e-08
3.62798e-08
3.47853e-08
3.34783e-08
3.23435e-08
3.13615e-08
3.05173e-08
2.97945e-08
2.91793e-08
2.8658e-08
2.82178e-08
2.7844e-08
2.75356e-08
2.728e-08
2.70695e-08
2.68968e-08
2.67558e-08
2.6641e-08
2.65479e-08
2.64726e-08
2.64116e-08
2.63625e-08
2.63226e-08
2.62905e-08
2.62639e-08
2.62418e-08
2.62239e-08
2.61966e-08
2.61657e-08
2.61287e-08
2.60835e-08
2.60281e-08
2.59599e-08
2.5875e-08
2.57705e-08
2.56411e-08
2.54824e-08
2.52871e-08
2.50496e-08
2.476e-08
2.44133e-08
2.39839e-08
2.34781e-08
2.28777e-08
2.2169e-08
2.13345e-08
2.03588e-08
1.92221e-08
1.79056e-08
1.63878e-08
1.46474e-08
1.26613e-08
1.04069e-08
7.85569e-09
4.98519e-09
1.78549e-09
1.02231e-07
1.24197e-07
1.43641e-07
1.60788e-07
1.75821e-07
1.88963e-07
2.00374e-07
2.10248e-07
2.18742e-07
2.26021e-07
2.32217e-07
2.3747e-07
2.41896e-07
2.45608e-07
2.48715e-07
2.51275e-07
2.53391e-07
2.55109e-07
2.56496e-07
2.57611e-07
2.58503e-07
2.59208e-07
2.59757e-07
2.60176e-07
2.60483e-07
2.60696e-07
2.60824e-07
2.60875e-07
2.60852e-07
2.60753e-07
2.60575e-07
2.60306e-07
2.59934e-07
2.59438e-07
2.58789e-07
2.57948e-07
2.56917e-07
2.55637e-07
2.54071e-07
2.52137e-07
2.49785e-07
2.46903e-07
2.43427e-07
2.3924e-07
2.34222e-07
2.28261e-07
2.21192e-07
2.12887e-07
2.03149e-07
1.91815e-07
1.7868e-07
1.63549e-07
1.462e-07
1.26403e-07
1.03918e-07
7.84993e-08
4.98965e-08
1.78494e-08
)
;
    }
    fixWall
    {
        type            empty;
        value           nonuniform List<scalar> 0();
    }
}


// ************************************************************************* //
