/*--------------------------------*- C++ -*----------------------------------*\
  =========                 |
  \\      /  F ield         | OpenFOAM: The Open Source CFD Toolbox
   \\    /   O peration     | Website:  https://openfoam.org
    \\  /    A nd           | Version:  dev
     \\/     M anipulation  |

   OpenFOAM for Windows 20.09 (v1)
   Built by CFD Support, www.cfdsupport.com (based on Symscape).
\*---------------------------------------------------------------------------*/
FoamFile
{
    version     2.0;
    format      ascii;
    class       volSymmTensorField;
    location    "6";
    object      R;
}
// * * * * * * * * * * * * * * * * * * * * * * * * * * * * * * * * * * * * * //

dimensions      [0 2 -2 0 0 0 0];

internalField   nonuniform List<symmTensor> 
960
(
(1.4803e-16 -1.24607e-20 0 1.4803e-16 0 1.4803e-16)
(1.4803e-16 -1.24229e-20 0 1.4803e-16 0 1.4803e-16)
(1.4803e-16 -1.24287e-20 0 1.4803e-16 0 1.4803e-16)
(1.4803e-16 -1.2508e-20 0 1.4803e-16 0 1.4803e-16)
(1.4803e-16 -6.50165e-20 0 1.4803e-16 0 1.4803e-16)
(1.4803e-16 -6.48514e-20 0 1.4803e-16 0 1.4803e-16)
(1.4803e-16 -6.46184e-20 0 1.4803e-16 0 1.4803e-16)
(1.4803e-16 -6.49566e-20 0 1.4803e-16 0 1.4803e-16)
(1.4803e-16 -1.70174e-19 0 1.4803e-16 0 1.4803e-16)
(1.4803e-16 -1.69819e-19 0 1.4803e-16 0 1.4803e-16)
(1.4803e-16 -1.69426e-19 0 1.4803e-16 0 1.4803e-16)
(1.4803e-16 -1.70055e-19 0 1.4803e-16 0 1.4803e-16)
(1.4803e-16 -3.20998e-19 0 1.4803e-16 0 1.4803e-16)
(1.4803e-16 -3.20706e-19 0 1.4803e-16 0 1.4803e-16)
(1.4803e-16 -3.20222e-19 0 1.4803e-16 0 1.4803e-16)
(1.4803e-16 -3.20906e-19 0 1.4803e-16 0 1.4803e-16)
(1.4803e-16 -5.02098e-19 0 1.4803e-16 0 1.4803e-16)
(1.4803e-16 -5.02062e-19 0 1.48029e-16 0 1.4803e-16)
(1.4803e-16 -5.01672e-19 0 1.4803e-16 0 1.4803e-16)
(1.4803e-16 -5.02216e-19 0 1.4803e-16 0 1.4803e-16)
(1.4803e-16 -6.93279e-19 0 1.4803e-16 0 1.4803e-16)
(1.4803e-16 -6.93561e-19 0 1.48029e-16 0 1.4803e-16)
(1.4803e-16 -6.93515e-19 0 1.4803e-16 0 1.4803e-16)
(1.4803e-16 -6.9384e-19 0 1.4803e-16 0 1.4803e-16)
(1.48029e-16 -8.78919e-19 0 1.4803e-16 0 1.4803e-16)
(1.4803e-16 -8.79748e-19 0 1.48029e-16 0 1.4803e-16)
(1.48029e-16 -8.80215e-19 0 1.4803e-16 0 1.4803e-16)
(1.4803e-16 -8.80343e-19 0 1.4803e-16 0 1.4803e-16)
(1.48029e-16 -1.04734e-18 0 1.4803e-16 0 1.4803e-16)
(1.4803e-16 -1.04919e-18 0 1.48029e-16 0 1.4803e-16)
(1.48029e-16 -1.05007e-18 0 1.4803e-16 0 1.4803e-16)
(1.4803e-16 -1.05006e-18 0 1.4803e-16 0 1.4803e-16)
(1.48029e-16 -1.19027e-18 0 1.4803e-16 0 1.4803e-16)
(1.4803e-16 -1.19332e-18 0 1.48029e-16 0 1.4803e-16)
(1.48029e-16 -1.19482e-18 0 1.4803e-16 0 1.4803e-16)
(1.4803e-16 -1.19494e-18 0 1.4803e-16 0 1.4803e-16)
(1.48029e-16 -1.3028e-18 0 1.48031e-16 0 1.48029e-16)
(1.48031e-16 -1.30736e-18 0 1.48029e-16 0 1.4803e-16)
(1.48029e-16 -1.30919e-18 0 1.4803e-16 0 1.4803e-16)
(1.4803e-16 -1.30959e-18 0 1.4803e-16 0 1.4803e-16)
(1.48029e-16 -1.38253e-18 0 1.48031e-16 0 1.4803e-16)
(1.48031e-16 -1.38806e-18 0 1.48029e-16 0 1.4803e-16)
(1.48029e-16 -1.39068e-18 0 1.48031e-16 0 1.4803e-16)
(1.4803e-16 -1.39176e-18 0 1.4803e-16 0 1.4803e-16)
(1.48029e-16 -1.42927e-18 0 1.48031e-16 0 1.48029e-16)
(1.48031e-16 -1.43571e-18 0 1.48029e-16 0 1.4803e-16)
(1.48028e-16 -1.43892e-18 0 1.48031e-16 0 1.4803e-16)
(1.4803e-16 -1.44031e-18 0 1.4803e-16 0 1.48029e-16)
(1.48029e-16 -1.44493e-18 0 1.4803e-16 0 1.4803e-16)
(1.48031e-16 -1.44998e-18 0 1.48029e-16 0 1.4803e-16)
(1.48028e-16 -1.45427e-18 0 1.48031e-16 0 1.4803e-16)
(1.48029e-16 -1.45709e-18 0 1.4803e-16 0 1.48029e-16)
(1.48029e-16 -1.43364e-18 0 1.48031e-16 0 1.48029e-16)
(1.48031e-16 -1.4342e-18 0 1.48029e-16 0 1.4803e-16)
(1.48028e-16 -1.43894e-18 0 1.48032e-16 0 1.4803e-16)
(1.48029e-16 -1.44366e-18 0 1.48031e-16 0 1.4803e-16)
(1.4803e-16 -1.39921e-18 0 1.4803e-16 0 1.48029e-16)
(1.4803e-16 -1.39236e-18 0 1.48029e-16 0 1.4803e-16)
(1.48027e-16 -1.39762e-18 0 1.48032e-16 0 1.4803e-16)
(1.48028e-16 -1.40531e-18 0 1.48032e-16 0 1.4803e-16)
(1.48031e-16 -1.33696e-18 0 1.48029e-16 0 1.48029e-16)
(1.48031e-16 -1.33659e-18 0 1.48029e-16 0 1.4803e-16)
(1.48026e-16 -1.33923e-18 0 1.48033e-16 0 1.4803e-16)
(1.48027e-16 -1.34647e-18 0 1.48032e-16 0 1.4803e-16)
(1.48032e-16 -1.25561e-18 0 1.48028e-16 0 1.48029e-16)
(1.48031e-16 -1.26703e-18 0 1.48029e-16 0 1.4803e-16)
(1.48026e-16 -1.26525e-18 0 1.48033e-16 0 1.4803e-16)
(1.48026e-16 -1.27209e-18 0 1.48034e-16 0 1.48029e-16)
(1.48032e-16 -1.17007e-18 0 1.48028e-16 0 1.48029e-16)
(1.48031e-16 -1.17976e-18 0 1.48028e-16 0 1.4803e-16)
(1.48025e-16 -1.17532e-18 0 1.48034e-16 0 1.4803e-16)
(1.48025e-16 -1.1884e-18 0 1.48035e-16 0 1.48029e-16)
(1.48033e-16 -1.0778e-18 0 1.48027e-16 0 1.48029e-16)
(1.48031e-16 -1.08519e-18 0 1.48028e-16 0 1.4803e-16)
(1.48025e-16 -1.07657e-18 0 1.48034e-16 0 1.4803e-16)
(1.48023e-16 -1.09471e-18 0 1.48037e-16 0 1.48029e-16)
(1.48034e-16 -9.82935e-19 0 1.48026e-16 0 1.48029e-16)
(1.48031e-16 -9.86169e-19 0 1.48028e-16 0 1.4803e-16)
(1.48024e-16 -9.73774e-19 0 1.48035e-16 0 1.4803e-16)
(1.48022e-16 -9.97564e-19 0 1.48038e-16 0 1.48029e-16)
(1.48034e-16 -8.88137e-19 0 1.48026e-16 0 1.48029e-16)
(1.48031e-16 -8.87239e-19 0 1.48028e-16 0 1.4803e-16)
(1.48023e-16 -8.69516e-19 0 1.48036e-16 0 1.4803e-16)
(1.4802e-16 -8.96929e-19 0 1.4804e-16 0 1.48029e-16)
(1.48035e-16 -7.96537e-19 0 1.48025e-16 0 1.48029e-16)
(1.48032e-16 -7.90266e-19 0 1.48027e-16 0 1.4803e-16)
(1.48022e-16 -7.67532e-19 0 1.48037e-16 0 1.4803e-16)
(1.48018e-16 -7.98549e-19 0 1.48042e-16 0 1.48029e-16)
(1.48036e-16 -7.09869e-19 0 1.48024e-16 0 1.48029e-16)
(1.48033e-16 -7.0037e-19 0 1.48027e-16 0 1.4803e-16)
(1.48022e-16 -6.70787e-19 0 1.48037e-16 0 1.4803e-16)
(1.48016e-16 -7.02844e-19 0 1.48044e-16 0 1.48029e-16)
(1.48036e-16 -6.29565e-19 0 1.48024e-16 0 1.48029e-16)
(1.48034e-16 -6.16567e-19 0 1.48026e-16 0 1.4803e-16)
(1.48021e-16 -5.81113e-19 0 1.48038e-16 0 1.4803e-16)
(1.48014e-16 -6.14474e-19 0 1.48046e-16 0 1.48029e-16)
(1.48037e-16 -5.56695e-19 0 1.48023e-16 0 1.48029e-16)
(1.48035e-16 -5.43341e-19 0 1.48025e-16 0 1.4803e-16)
(1.4802e-16 -5.01699e-19 0 1.48039e-16 0 1.4803e-16)
(1.48012e-16 -5.3389e-19 0 1.48048e-16 0 1.48029e-16)
(1.48037e-16 -4.92478e-19 0 1.48023e-16 0 1.48029e-16)
(1.48036e-16 -4.795e-19 0 1.48023e-16 0 1.4803e-16)
(1.4802e-16 -4.36848e-19 0 1.48039e-16 0 1.4803e-16)
(1.48009e-16 -4.698e-19 0 1.48051e-16 0 1.48029e-16)
(1.48038e-16 -4.36591e-19 0 1.48023e-16 0 1.48029e-16)
(1.48038e-16 -4.29401e-19 0 1.4802e-16 0 1.48031e-16)
(1.48019e-16 -3.89895e-19 0 1.4804e-16 0 1.4803e-16)
(1.48006e-16 -4.17864e-19 0 1.48054e-16 0 1.48028e-16)
(1.48038e-16 -3.86815e-19 0 1.48023e-16 0 1.48029e-16)
(1.48039e-16 -3.90248e-19 0 1.48019e-16 0 1.48031e-16)
(1.48019e-16 -3.70969e-19 0 1.4804e-16 0 1.4803e-16)
(1.48004e-16 -3.94518e-19 0 1.48056e-16 0 1.48029e-16)
(1.48037e-16 -3.4343e-19 0 1.48023e-16 0 1.48029e-16)
(1.48038e-16 -3.64341e-19 0 1.48021e-16 0 1.4803e-16)
(1.48018e-16 -3.80821e-19 0 1.48041e-16 0 1.4803e-16)
(1.48003e-16 -3.88208e-19 0 1.48057e-16 0 1.48029e-16)
(1.48037e-16 -2.7767e-19 0 1.48023e-16 0 1.48029e-16)
(1.48037e-16 -3.57028e-19 0 1.48023e-16 0 1.48029e-16)
(1.48016e-16 -4.23398e-19 0 1.48043e-16 0 1.4803e-16)
(1.48003e-16 -3.66543e-19 0 1.48057e-16 0 1.4803e-16)
(1.48036e-16 -2.64217e-19 0 1.48024e-16 0 1.48029e-16)
(1.48034e-16 -3.78763e-19 0 1.48026e-16 0 1.48029e-16)
(1.48016e-16 -4.65854e-19 0 1.48042e-16 0 1.48031e-16)
(1.48003e-16 -3.75019e-19 0 1.48056e-16 0 1.4803e-16)
(1.48034e-16 -3.45008e-19 0 1.48026e-16 0 1.48029e-16)
(1.48031e-16 -4.27276e-19 0 1.48029e-16 0 1.48029e-16)
(1.48015e-16 -4.79795e-19 0 1.48044e-16 0 1.4803e-16)
(1.48003e-16 -4.31512e-19 0 1.48056e-16 0 1.4803e-16)
(1.48033e-16 -4.46106e-19 0 1.48027e-16 0 1.48029e-16)
(1.48031e-16 -4.99368e-19 0 1.48028e-16 0 1.48031e-16)
(1.48014e-16 -5.04301e-19 0 1.48045e-16 0 1.4803e-16)
(1.48002e-16 -4.86622e-19 0 1.48057e-16 0 1.4803e-16)
(1.48031e-16 -5.73293e-19 0 1.48029e-16 0 1.48029e-16)
(1.48031e-16 -6.01079e-19 0 1.48028e-16 0 1.48031e-16)
(1.48014e-16 -5.69745e-19 0 1.48045e-16 0 1.4803e-16)
(1.48001e-16 -5.64735e-19 0 1.48058e-16 0 1.4803e-16)
(1.48029e-16 -7.31821e-19 0 1.48031e-16 0 1.48029e-16)
(1.4803e-16 -7.39367e-19 0 1.48029e-16 0 1.4803e-16)
(1.48014e-16 -6.89182e-19 0 1.48046e-16 0 1.4803e-16)
(1.48e-16 -6.93332e-19 0 1.48059e-16 0 1.4803e-16)
(1.48028e-16 -9.28868e-19 0 1.48032e-16 0 1.48029e-16)
(1.48031e-16 -9.23338e-19 0 1.48029e-16 0 1.4803e-16)
(1.48015e-16 -8.62083e-19 0 1.48044e-16 0 1.4803e-16)
(1.48e-16 -8.62252e-19 0 1.48059e-16 0 1.4803e-16)
(1.48026e-16 -1.17586e-18 0 1.48035e-16 0 1.48029e-16)
(1.48032e-16 -1.16289e-18 0 1.48028e-16 0 1.4803e-16)
(1.48015e-16 -1.10053e-18 0 1.48045e-16 0 1.48029e-16)
(1.47998e-16 -1.09328e-18 0 1.48061e-16 0 1.4803e-16)
(1.48025e-16 -1.48042e-18 0 1.48034e-16 0 1.4803e-16)
(1.48034e-16 -1.46808e-18 0 1.48025e-16 0 1.4803e-16)
(1.48017e-16 -1.41156e-18 0 1.48042e-16 0 1.4803e-16)
(1.47999e-16 -1.38737e-18 0 1.4806e-16 0 1.48031e-16)
(1.48022e-16 -1.85878e-18 0 1.48039e-16 0 1.48028e-16)
(1.48034e-16 -1.84976e-18 0 1.48025e-16 0 1.48029e-16)
(1.48017e-16 -1.80587e-18 0 1.48044e-16 0 1.48029e-16)
(1.47997e-16 -1.75894e-18 0 1.48062e-16 0 1.4803e-16)
(1.50551e-16 -2.35855e-18 0 1.50567e-16 0 1.50559e-16)
(1.50496e-16 -2.35553e-18 0 1.50488e-16 0 1.5049e-16)
(1.50562e-16 -2.33318e-18 0 1.50584e-16 0 1.50573e-16)
(1.50698e-16 -2.25633e-18 0 1.50763e-16 0 1.5073e-16)
(1.57332e-16 -3.05702e-18 0 1.57351e-16 0 1.57342e-16)
(1.57269e-16 -3.06108e-18 0 1.57251e-16 0 1.57263e-16)
(1.5735e-16 -3.06962e-18 0 1.57363e-16 0 1.57359e-16)
(1.57518e-16 -2.9498e-18 0 1.57565e-16 0 1.57549e-16)
(1.65213e-16 -3.95254e-18 0 1.65246e-16 0 1.65226e-16)
(1.6514e-16 -3.96638e-18 0 1.65126e-16 0 1.65134e-16)
(1.65236e-16 -4.01664e-18 0 1.65254e-16 0 1.65244e-16)
(1.65429e-16 -3.84225e-18 0 1.65501e-16 0 1.65459e-16)
(1.74273e-16 -5.09911e-18 0 1.743e-16 0 1.74288e-16)
(1.74182e-16 -5.11426e-18 0 1.74171e-16 0 1.74178e-16)
(1.74299e-16 -5.22252e-18 0 1.74307e-16 0 1.74305e-16)
(1.74532e-16 -4.98427e-18 0 1.74577e-16 0 1.74558e-16)
(1.84579e-16 -6.54576e-18 0 1.84618e-16 0 1.84597e-16)
(1.84474e-16 -6.5629e-18 0 1.84466e-16 0 1.84472e-16)
(1.84609e-16 -6.74622e-18 0 1.84614e-16 0 1.84613e-16)
(1.84885e-16 -6.43322e-18 0 1.84913e-16 0 1.84905e-16)
(1.96229e-16 -8.35908e-18 0 1.96276e-16 0 1.96249e-16)
(1.96098e-16 -8.36697e-18 0 1.96118e-16 0 1.961e-16)
(1.96256e-16 -8.65845e-18 0 1.96274e-16 0 1.96257e-16)
(1.96569e-16 -8.25929e-18 0 1.96623e-16 0 1.96581e-16)
(2.09337e-16 -1.06257e-17 0 2.09365e-16 0 2.09358e-16)
(2.09175e-16 -1.06208e-17 0 2.09203e-16 0 2.09183e-16)
(2.09359e-16 -1.09217e-17 0 2.09358e-16 0 2.09359e-16)
(2.09742e-16 -1.05359e-17 0 2.09709e-16 0 2.09742e-16)
(2.23998e-16 -1.34784e-17 0 2.2404e-16 0 2.2402e-16)
(2.23818e-16 -1.3464e-17 0 2.23845e-16 0 2.23831e-16)
(2.2402e-16 -1.36644e-17 0 2.24012e-16 0 2.24017e-16)
(2.24447e-16 -1.337e-17 0 2.24425e-16 0 2.24438e-16)
(2.40356e-16 -1.70061e-17 0 2.40401e-16 0 2.40381e-16)
(2.40149e-16 -1.70031e-17 0 2.40188e-16 0 2.40165e-16)
(2.4037e-16 -1.71229e-17 0 2.40364e-16 0 2.40364e-16)
(2.40851e-16 -1.68862e-17 0 2.40828e-16 0 2.40835e-16)
(2.58554e-16 -2.13109e-17 0 2.586e-16 0 2.58583e-16)
(2.58325e-16 -2.13098e-17 0 2.58358e-16 0 2.58343e-16)
(2.58566e-16 -2.13622e-17 0 2.58535e-16 0 2.58556e-16)
(2.59116e-16 -2.11772e-17 0 2.59036e-16 0 2.59093e-16)
(2.78751e-16 -2.6483e-17 0 2.78816e-16 0 2.78785e-16)
(2.78499e-16 -2.65012e-17 0 2.7854e-16 0 2.78519e-16)
(2.78756e-16 -2.64919e-17 0 2.78729e-16 0 2.78742e-16)
(2.79358e-16 -2.63476e-17 0 2.79314e-16 0 2.79329e-16)
(3.01143e-16 -3.26645e-17 0 3.01216e-16 0 3.01182e-16)
(3.0086e-16 -3.26804e-17 0 3.00916e-16 0 3.00882e-16)
(3.01138e-16 -3.26275e-17 0 3.01106e-16 0 3.01118e-16)
(3.01818e-16 -3.25147e-17 0 3.01741e-16 0 3.01783e-16)
(3.25936e-16 -3.99094e-17 0 3.26015e-16 0 3.25982e-16)
(3.25628e-16 -3.99735e-17 0 3.25675e-16 0 3.2565e-16)
(3.25925e-16 -3.98787e-17 0 3.25869e-16 0 3.25899e-16)
(3.26676e-16 -3.97772e-17 0 3.26585e-16 0 3.26637e-16)
(3.53362e-16 -4.83854e-17 0 3.53462e-16 0 3.53415e-16)
(3.53026e-16 -4.84595e-17 0 3.53079e-16 0 3.5305e-16)
(3.53343e-16 -4.83406e-17 0 3.53278e-16 0 3.53309e-16)
(3.54174e-16 -4.82408e-17 0 3.5408e-16 0 3.5413e-16)
(3.83694e-16 -5.80644e-17 0 3.83812e-16 0 3.83756e-16)
(3.8333e-16 -5.82289e-17 0 3.83381e-16 0 3.83353e-16)
(3.83668e-16 -5.80885e-17 0 3.83585e-16 0 3.83626e-16)
(3.84591e-16 -5.79706e-17 0 3.84478e-16 0 3.8454e-16)
(4.17239e-16 -6.90984e-17 0 4.17369e-16 0 4.1731e-16)
(4.1685e-16 -6.92958e-17 0 4.1687e-16 0 4.16877e-16)
(4.17211e-16 -6.91656e-17 0 4.17083e-16 0 4.17158e-16)
(4.18224e-16 -6.90258e-17 0 4.181e-16 0 4.18167e-16)
(4.54333e-16 -8.13856e-17 0 4.54505e-16 0 4.54415e-16)
(4.53874e-16 -8.16876e-17 0 4.54017e-16 0 4.53903e-16)
(4.54279e-16 -8.15699e-17 0 4.54201e-16 0 4.54217e-16)
(4.55424e-16 -8.14019e-17 0 4.55299e-16 0 4.55361e-16)
(4.95416e-16 -9.50048e-17 0 4.95557e-16 0 4.95507e-16)
(4.94894e-16 -9.53216e-17 0 4.95039e-16 0 4.94933e-16)
(4.95329e-16 -9.52794e-17 0 4.95236e-16 0 4.95255e-16)
(4.96589e-16 -9.51207e-17 0 4.96499e-16 0 4.96519e-16)
(5.40884e-16 -1.09771e-16 0 5.41148e-16 0 5.4098e-16)
(5.40401e-16 -1.10089e-16 0 5.40375e-16 0 5.40445e-16)
(5.4086e-16 -1.10149e-16 0 5.40592e-16 0 5.4078e-16)
(5.42273e-16 -1.10069e-16 0 5.42008e-16 0 5.42198e-16)
(5.91377e-16 -1.26668e-16 0 5.91675e-16 0 5.91472e-16)
(5.90714e-16 -1.26545e-16 0 5.91048e-16 0 5.90772e-16)
(5.9127e-16 -1.26635e-16 0 5.91152e-16 0 5.91183e-16)
(5.92878e-16 -1.26749e-16 0 5.92707e-16 0 5.928e-16)
(6.47592e-16 -1.99056e-16 0 6.47712e-16 0 6.47679e-16)
(6.46883e-16 -1.97174e-16 0 6.46969e-16 0 6.46933e-16)
(6.47375e-16 -1.97416e-16 0 6.47259e-16 0 6.47291e-16)
(6.4916e-16 -1.98945e-16 0 6.49075e-16 0 6.49081e-16)
(1.4803e-16 -1.24677e-20 0 1.4803e-16 0 1.4803e-16)
(1.4803e-16 -1.24445e-20 0 1.4803e-16 0 1.4803e-16)
(1.4803e-16 -1.24808e-20 0 1.4803e-16 0 1.4803e-16)
(1.4803e-16 -1.24653e-20 0 1.4803e-16 0 1.4803e-16)
(1.4803e-16 -6.47124e-20 0 1.4803e-16 0 1.4803e-16)
(1.4803e-16 -6.46299e-20 0 1.4803e-16 0 1.4803e-16)
(1.4803e-16 -6.4826e-20 0 1.4803e-16 0 1.4803e-16)
(1.4803e-16 -6.474e-20 0 1.4803e-16 0 1.4803e-16)
(1.4803e-16 -1.69314e-19 0 1.4803e-16 0 1.4803e-16)
(1.4803e-16 -1.69139e-19 0 1.4803e-16 0 1.4803e-16)
(1.4803e-16 -1.69586e-19 0 1.4803e-16 0 1.4803e-16)
(1.4803e-16 -1.69484e-19 0 1.4803e-16 0 1.4803e-16)
(1.4803e-16 -3.19468e-19 0 1.4803e-16 0 1.4803e-16)
(1.4803e-16 -3.19144e-19 0 1.4803e-16 0 1.4803e-16)
(1.4803e-16 -3.19783e-19 0 1.4803e-16 0 1.4803e-16)
(1.4803e-16 -3.19706e-19 0 1.4803e-16 0 1.4803e-16)
(1.4803e-16 -5.0016e-19 0 1.48029e-16 0 1.4803e-16)
(1.4803e-16 -4.99607e-19 0 1.4803e-16 0 1.4803e-16)
(1.4803e-16 -5.00383e-19 0 1.4803e-16 0 1.4803e-16)
(1.4803e-16 -5.00414e-19 0 1.4803e-16 0 1.4803e-16)
(1.4803e-16 -6.91453e-19 0 1.48029e-16 0 1.4803e-16)
(1.4803e-16 -6.9057e-19 0 1.4803e-16 0 1.4803e-16)
(1.4803e-16 -6.91558e-19 0 1.4803e-16 0 1.4803e-16)
(1.4803e-16 -6.91812e-19 0 1.4803e-16 0 1.4803e-16)
(1.48031e-16 -8.78081e-19 0 1.48029e-16 0 1.4803e-16)
(1.4803e-16 -8.76801e-19 0 1.4803e-16 0 1.4803e-16)
(1.48029e-16 -8.78069e-19 0 1.4803e-16 0 1.4803e-16)
(1.48029e-16 -8.78361e-19 0 1.4803e-16 0 1.4803e-16)
(1.48031e-16 -1.04853e-18 0 1.48029e-16 0 1.4803e-16)
(1.48029e-16 -1.04682e-18 0 1.4803e-16 0 1.4803e-16)
(1.48029e-16 -1.04845e-18 0 1.4803e-16 0 1.4803e-16)
(1.48029e-16 -1.04828e-18 0 1.4803e-16 0 1.4803e-16)
(1.48031e-16 -1.19483e-18 0 1.48028e-16 0 1.4803e-16)
(1.48029e-16 -1.19268e-18 0 1.4803e-16 0 1.4803e-16)
(1.48029e-16 -1.19476e-18 0 1.4803e-16 0 1.4803e-16)
(1.48029e-16 -1.19368e-18 0 1.4803e-16 0 1.4803e-16)
(1.48032e-16 -1.31186e-18 0 1.48028e-16 0 1.4803e-16)
(1.48029e-16 -1.30932e-18 0 1.4803e-16 0 1.4803e-16)
(1.48029e-16 -1.31184e-18 0 1.4803e-16 0 1.4803e-16)
(1.48029e-16 -1.30934e-18 0 1.4803e-16 0 1.4803e-16)
(1.48032e-16 -1.39736e-18 0 1.48027e-16 0 1.4803e-16)
(1.48029e-16 -1.3942e-18 0 1.4803e-16 0 1.4803e-16)
(1.48029e-16 -1.39729e-18 0 1.48031e-16 0 1.4803e-16)
(1.48029e-16 -1.39374e-18 0 1.4803e-16 0 1.4803e-16)
(1.48033e-16 -1.45048e-18 0 1.48027e-16 0 1.4803e-16)
(1.48029e-16 -1.447e-18 0 1.48031e-16 0 1.4803e-16)
(1.48029e-16 -1.45041e-18 0 1.48031e-16 0 1.4803e-16)
(1.4803e-16 -1.44593e-18 0 1.48029e-16 0 1.4803e-16)
(1.48033e-16 -1.47275e-18 0 1.48026e-16 0 1.4803e-16)
(1.48029e-16 -1.46997e-18 0 1.48031e-16 0 1.4803e-16)
(1.48029e-16 -1.4727e-18 0 1.48031e-16 0 1.4803e-16)
(1.4803e-16 -1.46749e-18 0 1.48029e-16 0 1.4803e-16)
(1.48033e-16 -1.46571e-18 0 1.48026e-16 0 1.4803e-16)
(1.48029e-16 -1.46481e-18 0 1.48031e-16 0 1.4803e-16)
(1.48028e-16 -1.466e-18 0 1.48031e-16 0 1.4803e-16)
(1.48031e-16 -1.46161e-18 0 1.48029e-16 0 1.4803e-16)
(1.48033e-16 -1.43466e-18 0 1.48026e-16 0 1.4803e-16)
(1.48029e-16 -1.4352e-18 0 1.48031e-16 0 1.4803e-16)
(1.48028e-16 -1.43425e-18 0 1.48031e-16 0 1.4803e-16)
(1.48031e-16 -1.43301e-18 0 1.48029e-16 0 1.48029e-16)
(1.48033e-16 -1.37936e-18 0 1.48026e-16 0 1.4803e-16)
(1.48029e-16 -1.38135e-18 0 1.48031e-16 0 1.4803e-16)
(1.48028e-16 -1.38018e-18 0 1.48031e-16 0 1.4803e-16)
(1.48032e-16 -1.37162e-18 0 1.48028e-16 0 1.4803e-16)
(1.48033e-16 -1.30474e-18 0 1.48026e-16 0 1.4803e-16)
(1.48028e-16 -1.30707e-18 0 1.48031e-16 0 1.4803e-16)
(1.48028e-16 -1.30871e-18 0 1.48031e-16 0 1.4803e-16)
(1.48033e-16 -1.28867e-18 0 1.48027e-16 0 1.48029e-16)
(1.48033e-16 -1.2208e-18 0 1.48026e-16 0 1.4803e-16)
(1.48028e-16 -1.22057e-18 0 1.48032e-16 0 1.48029e-16)
(1.48029e-16 -1.22416e-18 0 1.4803e-16 0 1.4803e-16)
(1.48035e-16 -1.20245e-18 0 1.48024e-16 0 1.4803e-16)
(1.48033e-16 -1.1259e-18 0 1.48026e-16 0 1.4803e-16)
(1.48028e-16 -1.12427e-18 0 1.48032e-16 0 1.4803e-16)
(1.48029e-16 -1.12928e-18 0 1.4803e-16 0 1.4803e-16)
(1.48037e-16 -1.10649e-18 0 1.48022e-16 0 1.4803e-16)
(1.48033e-16 -1.02711e-18 0 1.48026e-16 0 1.4803e-16)
(1.48028e-16 -1.02381e-18 0 1.48032e-16 0 1.48029e-16)
(1.48029e-16 -1.02868e-18 0 1.4803e-16 0 1.4803e-16)
(1.48038e-16 -1.00613e-18 0 1.48021e-16 0 1.4803e-16)
(1.48032e-16 -9.24635e-19 0 1.48027e-16 0 1.4803e-16)
(1.48028e-16 -9.20949e-19 0 1.48032e-16 0 1.48029e-16)
(1.48029e-16 -9.25003e-19 0 1.4803e-16 0 1.4803e-16)
(1.48039e-16 -9.03241e-19 0 1.4802e-16 0 1.4803e-16)
(1.48032e-16 -8.24588e-19 0 1.48027e-16 0 1.4803e-16)
(1.48027e-16 -8.20353e-19 0 1.48032e-16 0 1.48029e-16)
(1.48029e-16 -8.22672e-19 0 1.4803e-16 0 1.4803e-16)
(1.48041e-16 -8.03029e-19 0 1.48018e-16 0 1.4803e-16)
(1.48032e-16 -7.27715e-19 0 1.48027e-16 0 1.4803e-16)
(1.48027e-16 -7.22576e-19 0 1.48033e-16 0 1.48029e-16)
(1.4803e-16 -7.22645e-19 0 1.48029e-16 0 1.4803e-16)
(1.48042e-16 -7.0585e-19 0 1.48017e-16 0 1.4803e-16)
(1.48032e-16 -6.38794e-19 0 1.48027e-16 0 1.4803e-16)
(1.48027e-16 -6.31955e-19 0 1.48033e-16 0 1.48029e-16)
(1.4803e-16 -6.29147e-19 0 1.48029e-16 0 1.4803e-16)
(1.48044e-16 -6.15852e-19 0 1.48016e-16 0 1.4803e-16)
(1.48032e-16 -5.57855e-19 0 1.48027e-16 0 1.4803e-16)
(1.48027e-16 -5.47805e-19 0 1.48033e-16 0 1.48029e-16)
(1.48031e-16 -5.41771e-19 0 1.48028e-16 0 1.4803e-16)
(1.48045e-16 -5.3279e-19 0 1.48015e-16 0 1.4803e-16)
(1.48032e-16 -4.91631e-19 0 1.48027e-16 0 1.4803e-16)
(1.48027e-16 -4.73932e-19 0 1.48033e-16 0 1.48029e-16)
(1.48031e-16 -4.64307e-19 0 1.48028e-16 0 1.4803e-16)
(1.48045e-16 -4.61382e-19 0 1.48014e-16 0 1.48029e-16)
(1.48032e-16 -4.3768e-19 0 1.48027e-16 0 1.4803e-16)
(1.48028e-16 -4.11442e-19 0 1.48032e-16 0 1.48029e-16)
(1.48031e-16 -3.94712e-19 0 1.48028e-16 0 1.4803e-16)
(1.48046e-16 -3.99104e-19 0 1.48013e-16 0 1.4803e-16)
(1.48032e-16 -4.02982e-19 0 1.48027e-16 0 1.4803e-16)
(1.48028e-16 -3.60885e-19 0 1.48032e-16 0 1.48029e-16)
(1.48032e-16 -3.37001e-19 0 1.48027e-16 0 1.48031e-16)
(1.48046e-16 -3.50774e-19 0 1.48013e-16 0 1.4803e-16)
(1.48034e-16 -3.82106e-19 0 1.48024e-16 0 1.48031e-16)
(1.4803e-16 -3.2567e-19 0 1.4803e-16 0 1.48029e-16)
(1.48031e-16 -2.88314e-19 0 1.48028e-16 0 1.4803e-16)
(1.48046e-16 -3.15009e-19 0 1.48014e-16 0 1.48029e-16)
(1.48035e-16 -3.71399e-19 0 1.48024e-16 0 1.48031e-16)
(1.48032e-16 -3.40681e-19 0 1.48028e-16 0 1.48029e-16)
(1.48032e-16 -2.75892e-19 0 1.48027e-16 0 1.4803e-16)
(1.48046e-16 -2.826e-19 0 1.48013e-16 0 1.4803e-16)
(1.48034e-16 -3.80538e-19 0 1.48025e-16 0 1.4803e-16)
(1.48034e-16 -3.66989e-19 0 1.48025e-16 0 1.4803e-16)
(1.48033e-16 -2.869e-19 0 1.48027e-16 0 1.48029e-16)
(1.48048e-16 -2.75195e-19 0 1.48013e-16 0 1.48029e-16)
(1.48034e-16 -4.20154e-19 0 1.48026e-16 0 1.48029e-16)
(1.48036e-16 -3.9083e-19 0 1.48023e-16 0 1.4803e-16)
(1.48034e-16 -3.2239e-19 0 1.48026e-16 0 1.48029e-16)
(1.48049e-16 -3.16194e-19 0 1.48011e-16 0 1.4803e-16)
(1.48035e-16 -4.82192e-19 0 1.48026e-16 0 1.48029e-16)
(1.48038e-16 -4.58973e-19 0 1.4802e-16 0 1.4803e-16)
(1.48036e-16 -4.03362e-19 0 1.48024e-16 0 1.4803e-16)
(1.4805e-16 -3.89544e-19 0 1.48009e-16 0 1.4803e-16)
(1.48035e-16 -5.69005e-19 0 1.48026e-16 0 1.48028e-16)
(1.4804e-16 -5.61376e-19 0 1.48019e-16 0 1.4803e-16)
(1.48037e-16 -5.13326e-19 0 1.48022e-16 0 1.4803e-16)
(1.4805e-16 -4.96884e-19 0 1.48009e-16 0 1.4803e-16)
(1.48035e-16 -6.96366e-19 0 1.48025e-16 0 1.48029e-16)
(1.48041e-16 -7.00689e-19 0 1.48017e-16 0 1.48031e-16)
(1.48039e-16 -6.60909e-19 0 1.48021e-16 0 1.48029e-16)
(1.48049e-16 -6.43944e-19 0 1.48009e-16 0 1.4803e-16)
(1.48035e-16 -8.66111e-19 0 1.48025e-16 0 1.48029e-16)
(1.48042e-16 -8.87501e-19 0 1.48017e-16 0 1.4803e-16)
(1.4804e-16 -8.51653e-19 0 1.4802e-16 0 1.48029e-16)
(1.48048e-16 -8.35083e-19 0 1.48011e-16 0 1.4803e-16)
(1.48034e-16 -1.09379e-18 0 1.48026e-16 0 1.48029e-16)
(1.48042e-16 -1.13094e-18 0 1.48016e-16 0 1.4803e-16)
(1.48041e-16 -1.09534e-18 0 1.48018e-16 0 1.48029e-16)
(1.48047e-16 -1.0785e-18 0 1.48012e-16 0 1.4803e-16)
(1.48034e-16 -1.38297e-18 0 1.48025e-16 0 1.48029e-16)
(1.48043e-16 -1.43876e-18 0 1.48016e-16 0 1.48031e-16)
(1.48042e-16 -1.40189e-18 0 1.48018e-16 0 1.48029e-16)
(1.48047e-16 -1.38333e-18 0 1.48011e-16 0 1.48031e-16)
(1.48032e-16 -1.74675e-18 0 1.48029e-16 0 1.48028e-16)
(1.48042e-16 -1.82289e-18 0 1.48017e-16 0 1.4803e-16)
(1.48044e-16 -1.7808e-18 0 1.48016e-16 0 1.48029e-16)
(1.48045e-16 -1.76204e-18 0 1.48016e-16 0 1.48029e-16)
(1.50622e-16 -2.23071e-18 0 1.50619e-16 0 1.50619e-16)
(1.50603e-16 -2.33083e-18 0 1.50578e-16 0 1.50591e-16)
(1.50595e-16 -2.28347e-18 0 1.50564e-16 0 1.50579e-16)
(1.50568e-16 -2.26553e-18 0 1.50534e-16 0 1.50553e-16)
(1.5742e-16 -2.90428e-18 0 1.57411e-16 0 1.57419e-16)
(1.57393e-16 -3.03658e-18 0 1.57363e-16 0 1.57382e-16)
(1.57384e-16 -2.9788e-18 0 1.57347e-16 0 1.57366e-16)
(1.57351e-16 -2.96506e-18 0 1.57316e-16 0 1.57336e-16)
(1.65313e-16 -3.76849e-18 0 1.65329e-16 0 1.65313e-16)
(1.6528e-16 -3.93613e-18 0 1.65263e-16 0 1.6527e-16)
(1.65273e-16 -3.87355e-18 0 1.6524e-16 0 1.65253e-16)
(1.6523e-16 -3.87011e-18 0 1.65217e-16 0 1.65216e-16)
(1.74392e-16 -4.86913e-18 0 1.74392e-16 0 1.74394e-16)
(1.74345e-16 -5.07391e-18 0 1.74324e-16 0 1.74336e-16)
(1.74339e-16 -5.00416e-18 0 1.74295e-16 0 1.74316e-16)
(1.74297e-16 -5.02623e-18 0 1.74259e-16 0 1.74284e-16)
(1.84716e-16 -6.26176e-18 0 1.84723e-16 0 1.8472e-16)
(1.8466e-16 -6.49851e-18 0 1.84638e-16 0 1.84653e-16)
(1.84654e-16 -6.43282e-18 0 1.84605e-16 0 1.84629e-16)
(1.84601e-16 -6.49725e-18 0 1.84581e-16 0 1.84589e-16)
(1.96376e-16 -8.02294e-18 0 1.96415e-16 0 1.96381e-16)
(1.9631e-16 -8.31517e-18 0 1.9631e-16 0 1.96307e-16)
(1.96309e-16 -8.24894e-18 0 1.96262e-16 0 1.96283e-16)
(1.96249e-16 -8.3521e-18 0 1.96242e-16 0 1.96238e-16)
(2.09513e-16 -1.03109e-17 0 2.09502e-16 0 2.0952e-16)
(2.09421e-16 -1.06332e-17 0 2.09404e-16 0 2.09422e-16)
(2.09419e-16 -1.05603e-17 0 2.09351e-16 0 2.09392e-16)
(2.09365e-16 -1.06369e-17 0 2.09312e-16 0 2.09356e-16)
(2.24183e-16 -1.32163e-17 0 2.2422e-16 0 2.24194e-16)
(2.24083e-16 -1.35144e-17 0 2.2409e-16 0 2.24088e-16)
(2.24083e-16 -1.34244e-17 0 2.24028e-16 0 2.24053e-16)
(2.24013e-16 -1.34389e-17 0 2.24011e-16 0 2.24004e-16)
(2.40563e-16 -1.67784e-17 0 2.40603e-16 0 2.40578e-16)
(2.40441e-16 -1.70419e-17 0 2.40463e-16 0 2.4045e-16)
(2.40447e-16 -1.69373e-17 0 2.40384e-16 0 2.40414e-16)
(2.40372e-16 -1.69272e-17 0 2.40368e-16 0 2.40364e-16)
(2.58792e-16 -2.11042e-17 0 2.58815e-16 0 2.5881e-16)
(2.58647e-16 -2.13284e-17 0 2.58661e-16 0 2.58659e-16)
(2.58653e-16 -2.12216e-17 0 2.58576e-16 0 2.58616e-16)
(2.58579e-16 -2.11861e-17 0 2.5855e-16 0 2.58571e-16)
(2.79007e-16 -2.6297e-17 0 2.79077e-16 0 2.7903e-16)
(2.78848e-16 -2.64897e-17 0 2.78883e-16 0 2.78862e-16)
(2.78859e-16 -2.63853e-17 0 2.78784e-16 0 2.78817e-16)
(2.78766e-16 -2.634e-17 0 2.78787e-16 0 2.78761e-16)
(3.01436e-16 -3.2483e-17 0 3.01491e-16 0 3.01464e-16)
(3.01249e-16 -3.26375e-17 0 3.01279e-16 0 3.01266e-16)
(3.01265e-16 -3.25446e-17 0 3.01166e-16 0 3.01219e-16)
(3.01174e-16 -3.24849e-17 0 3.0116e-16 0 3.01169e-16)
(3.26261e-16 -3.97558e-17 0 3.26327e-16 0 3.26293e-16)
(3.26048e-16 -3.98829e-17 0 3.26083e-16 0 3.26067e-16)
(3.26067e-16 -3.98068e-17 0 3.25964e-16 0 3.26015e-16)
(3.25968e-16 -3.9744e-17 0 3.25965e-16 0 3.25966e-16)
(3.53726e-16 -4.82323e-17 0 3.53807e-16 0 3.53763e-16)
(3.53484e-16 -4.83201e-17 0 3.53527e-16 0 3.53507e-16)
(3.53509e-16 -4.82637e-17 0 3.53397e-16 0 3.53453e-16)
(3.53403e-16 -4.81873e-17 0 3.53408e-16 0 3.53402e-16)
(3.84105e-16 -5.79647e-17 0 3.84192e-16 0 3.84146e-16)
(3.83829e-16 -5.80202e-17 0 3.83875e-16 0 3.83854e-16)
(3.8386e-16 -5.80037e-17 0 3.83738e-16 0 3.83799e-16)
(3.83747e-16 -5.79213e-17 0 3.83756e-16 0 3.83749e-16)
(4.17692e-16 -6.90285e-17 0 4.17808e-16 0 4.17737e-16)
(4.17384e-16 -6.90229e-17 0 4.17438e-16 0 4.17413e-16)
(4.17413e-16 -6.90563e-17 0 4.17311e-16 0 4.17349e-16)
(4.17287e-16 -6.89682e-17 0 4.1736e-16 0 4.17287e-16)
(4.54871e-16 -8.14138e-17 0 4.54941e-16 0 4.54919e-16)
(4.54503e-16 -8.13385e-17 0 4.54562e-16 0 4.54534e-16)
(4.54563e-16 -8.14485e-17 0 4.54382e-16 0 4.54496e-16)
(4.54469e-16 -8.13744e-17 0 4.54365e-16 0 4.54472e-16)
(4.95998e-16 -9.51497e-17 0 4.96092e-16 0 4.96048e-16)
(4.95588e-16 -9.49559e-17 0 4.95653e-16 0 4.95623e-16)
(4.9565e-16 -9.51659e-17 0 4.95477e-16 0 4.95584e-16)
(4.95551e-16 -9.51354e-17 0 4.95483e-16 0 4.95546e-16)
(5.41553e-16 -1.1013e-16 0 5.41716e-16 0 5.41601e-16)
(5.41116e-16 -1.09769e-16 0 5.41176e-16 0 5.41153e-16)
(5.41129e-16 -1.10105e-16 0 5.41104e-16 0 5.41066e-16)
(5.40976e-16 -1.10181e-16 0 5.41224e-16 0 5.4097e-16)
(5.92185e-16 -1.26715e-16 0 5.92191e-16 0 5.92231e-16)
(5.9163e-16 -1.26228e-16 0 5.91726e-16 0 5.9167e-16)
(5.91676e-16 -1.26642e-16 0 5.91581e-16 0 5.91623e-16)
(5.91616e-16 -1.26974e-16 0 5.91534e-16 0 5.91596e-16)
(6.48405e-16 -1.98158e-16 0 6.48488e-16 0 6.48441e-16)
(6.47825e-16 -1.97636e-16 0 6.47905e-16 0 6.47865e-16)
(6.47852e-16 -1.98056e-16 0 6.47779e-16 0 6.47813e-16)
(6.47764e-16 -1.98726e-16 0 6.47766e-16 0 6.47752e-16)
(7.09059e-16 -3.60845e-16 0 7.08956e-16 0 7.09081e-16)
(7.08406e-16 -3.60503e-16 0 7.07997e-16 0 7.08413e-16)
(7.08738e-16 -3.60775e-16 0 7.08565e-16 0 7.0872e-16)
(7.10738e-16 -3.62279e-16 0 7.10571e-16 0 7.1071e-16)
(7.62198e-16 -3.98967e-16 0 7.62015e-16 0 7.62136e-16)
(7.61669e-16 -3.98896e-16 0 7.61705e-16 0 7.61536e-16)
(7.61834e-16 -3.99179e-16 0 7.62326e-16 0 7.62032e-16)
(7.63683e-16 -4.00611e-16 0 7.64044e-16 0 7.63792e-16)
(7.94218e-16 -4.1531e-16 0 7.94189e-16 0 7.94129e-16)
(7.9431e-16 -4.15915e-16 0 7.94139e-16 0 7.94208e-16)
(7.9446e-16 -4.1609e-16 0 7.94845e-16 0 7.9465e-16)
(7.95686e-16 -4.16689e-16 0 7.95852e-16 0 7.958e-16)
(8.06823e-16 -4.12552e-16 0 8.06603e-16 0 8.06729e-16)
(8.07292e-16 -4.13406e-16 0 8.06884e-16 0 8.07228e-16)
(8.07406e-16 -4.13489e-16 0 8.07605e-16 0 8.07584e-16)
(8.08038e-16 -4.13531e-16 0 8.08122e-16 0 8.08143e-16)
(8.0361e-16 -3.98761e-16 0 8.03402e-16 0 8.03528e-16)
(8.0407e-16 -3.9955e-16 0 8.04306e-16 0 8.04049e-16)
(8.04271e-16 -3.99587e-16 0 8.04754e-16 0 8.04421e-16)
(8.04478e-16 -3.99384e-16 0 8.04827e-16 0 8.04564e-16)
(7.88235e-16 -3.80576e-16 0 7.88189e-16 0 7.88179e-16)
(7.88926e-16 -3.81181e-16 0 7.88856e-16 0 7.88934e-16)
(7.89088e-16 -3.81214e-16 0 7.8924e-16 0 7.89202e-16)
(7.89007e-16 -3.80955e-16 0 7.89011e-16 0 7.89067e-16)
(7.63944e-16 -3.61702e-16 0 7.63837e-16 0 7.63924e-16)
(7.64553e-16 -3.6214e-16 0 7.64595e-16 0 7.64591e-16)
(7.64721e-16 -3.62185e-16 0 7.6484e-16 0 7.64795e-16)
(7.64428e-16 -3.61943e-16 0 7.64519e-16 0 7.64458e-16)
(7.33113e-16 -3.43322e-16 0 7.33168e-16 0 7.33124e-16)
(7.3366e-16 -3.43637e-16 0 7.33807e-16 0 7.33708e-16)
(7.3382e-16 -3.43685e-16 0 7.33928e-16 0 7.33865e-16)
(7.33474e-16 -3.43464e-16 0 7.33459e-16 0 7.33476e-16)
(6.97842e-16 -3.25222e-16 0 6.97939e-16 0 6.97887e-16)
(6.98304e-16 -3.25453e-16 0 6.98418e-16 0 6.98366e-16)
(6.98447e-16 -3.25492e-16 0 6.9847e-16 0 6.9846e-16)
(6.9805e-16 -3.25282e-16 0 6.98011e-16 0 6.98018e-16)
(6.59686e-16 -3.0694e-16 0 6.59808e-16 0 6.59761e-16)
(6.59995e-16 -3.07099e-16 0 6.60207e-16 0 6.60064e-16)
(6.6013e-16 -3.07122e-16 0 6.60165e-16 0 6.60128e-16)
(6.59761e-16 -3.06921e-16 0 6.59679e-16 0 6.59693e-16)
(6.19896e-16 -2.88316e-16 0 6.20047e-16 0 6.19996e-16)
(6.20138e-16 -2.88408e-16 0 6.20177e-16 0 6.20212e-16)
(6.20257e-16 -2.88415e-16 0 6.20083e-16 0 6.20236e-16)
(6.19962e-16 -2.88224e-16 0 6.19518e-16 0 6.19864e-16)
(5.79431e-16 -2.69506e-16 0 5.79754e-16 0 5.79541e-16)
(5.79556e-16 -2.69533e-16 0 5.79722e-16 0 5.79625e-16)
(5.79627e-16 -2.69528e-16 0 5.79643e-16 0 5.79603e-16)
(5.79317e-16 -2.69367e-16 0 5.79324e-16 0 5.79189e-16)
(5.39236e-16 -2.50784e-16 0 5.3938e-16 0 5.39346e-16)
(5.39188e-16 -2.50755e-16 0 5.39333e-16 0 5.39249e-16)
(5.39275e-16 -2.50741e-16 0 5.39163e-16 0 5.39245e-16)
(5.39135e-16 -2.5061e-16 0 5.38716e-16 0 5.38985e-16)
(4.9972e-16 -2.32415e-16 0 4.99922e-16 0 4.99809e-16)
(4.99637e-16 -2.32334e-16 0 4.99603e-16 0 4.99687e-16)
(4.99661e-16 -2.32315e-16 0 4.99506e-16 0 4.9964e-16)
(4.99627e-16 -2.32215e-16 0 4.99081e-16 0 4.99454e-16)
(4.61425e-16 -1.95475e-16 0 4.6159e-16 0 4.61478e-16)
(4.61121e-16 -1.93288e-16 0 4.61429e-16 0 4.61149e-16)
(4.61102e-16 -1.9413e-16 0 4.6137e-16 0 4.6108e-16)
(4.61008e-16 -1.942e-16 0 4.61283e-16 0 4.60835e-16)