/*--------------------------------*- C++ -*----------------------------------*\
  =========                 |
  \\      /  F ield         | OpenFOAM: The Open Source CFD Toolbox
   \\    /   O peration     | Website:  https://openfoam.org
    \\  /    A nd           | Version:  dev
     \\/     M anipulation  |

   OpenFOAM for Windows 20.09 (v1)
   Built by CFD Support, www.cfdsupport.com (based on Symscape).
\*---------------------------------------------------------------------------*/
FoamFile
{
    version     2.0;
    format      ascii;
    class       volVectorField;
    location    "6";
    object      U;
}
// * * * * * * * * * * * * * * * * * * * * * * * * * * * * * * * * * * * * * //

dimensions      [0 1 -1 0 0 0 0];

internalField   nonuniform List<vector> 
960
(
(0.00213282 -6.55934e-06 0)
(0.00212521 -2.0973e-07 0)
(0.00213561 3.65521e-08 0)
(0.00215023 -7.20928e-08 0)
(0.00599897 1.42634e-06 0)
(0.00598185 -9.62637e-08 0)
(0.00597531 -1.24647e-07 0)
(0.00601247 -3.1677e-07 0)
(0.00945002 -3.22638e-06 0)
(0.00942386 3.96565e-07 0)
(0.00940801 -3.14631e-07 0)
(0.00946068 -6.4623e-07 0)
(0.0125165 -1.04177e-06 0)
(0.0124857 1.06992e-06 0)
(0.0124642 -5.90506e-07 0)
(0.0125254 -9.69709e-07 0)
(0.0152274 -1.697e-07 0)
(0.0151961 1.78834e-06 0)
(0.0151715 -8.06438e-07 0)
(0.0152364 -1.21321e-06 0)
(0.0176136 -2.52902e-06 0)
(0.0175826 2.46304e-06 0)
(0.0175571 -1.11367e-06 0)
(0.0176237 -1.39804e-06 0)
(0.019703 -1.25345e-06 0)
(0.0196735 3.18274e-06 0)
(0.0196487 -1.31882e-06 0)
(0.0197156 -1.51273e-06 0)
(0.0215237 -3.84551e-06 0)
(0.0214965 3.79628e-06 0)
(0.0214731 -1.65599e-06 0)
(0.0215402 -1.59901e-06 0)
(0.0231017 -2.47315e-06 0)
(0.0230783 4.4376e-06 0)
(0.0230564 -1.85976e-06 0)
(0.0231231 -1.65575e-06 0)
(0.0244624 -4.84253e-06 0)
(0.0244428 4.94237e-06 0)
(0.0244232 -2.2436e-06 0)
(0.0244903 -1.71155e-06 0)
(0.0256293 -3.84161e-06 0)
(0.0256149 5.42569e-06 0)
(0.0255966 -2.44762e-06 0)
(0.0256639 -1.80302e-06 0)
(0.026625 -5.63133e-06 0)
(0.0266142 5.90438e-06 0)
(0.0265987 -2.91083e-06 0)
(0.0266673 -1.90794e-06 0)
(0.0274697 -4.97612e-06 0)
(0.0274636 6.29532e-06 0)
(0.0274496 -3.13089e-06 0)
(0.0275184 -2.27505e-06 0)
(0.0281831 -6.14641e-06 0)
(0.0281778 6.66898e-06 0)
(0.0281672 -3.64427e-06 0)
(0.0282385 -2.4243e-06 0)
(0.0287833 -5.75655e-06 0)
(0.0287778 6.85174e-06 0)
(0.0287683 -3.95601e-06 0)
(0.0288411 -2.73608e-06 0)
(0.0292861 -6.28909e-06 0)
(0.0292754 6.98289e-06 0)
(0.0292691 -4.5015e-06 0)
(0.0293462 -3.21693e-06 0)
(0.0296997 -5.75132e-06 0)
(0.029694 7.22373e-06 0)
(0.0296865 -4.99202e-06 0)
(0.0297639 -3.58938e-06 0)
(0.0300415 -5.95549e-06 0)
(0.0300378 7.38296e-06 0)
(0.0300306 -5.44449e-06 0)
(0.0301114 -4.44732e-06 0)
(0.0303229 -5.33112e-06 0)
(0.0303224 7.64902e-06 0)
(0.0303128 -6.06301e-06 0)
(0.0303967 -5.17272e-06 0)
(0.0305536 -5.36436e-06 0)
(0.0305534 7.92171e-06 0)
(0.0305423 -6.49191e-06 0)
(0.0306312 -6.17066e-06 0)
(0.0307423 -4.75998e-06 0)
(0.0307432 8.02439e-06 0)
(0.0307285 -7.14541e-06 0)
(0.030822 -7.02794e-06 0)
(0.030896 -4.6543e-06 0)
(0.0308956 8.29043e-06 0)
(0.0308779 -7.63126e-06 0)
(0.0309768 -8.18341e-06 0)
(0.0310214 -4.05116e-06 0)
(0.0310202 8.49975e-06 0)
(0.0309978 -8.28001e-06 0)
(0.0311016 -9.24385e-06 0)
(0.0311234 -3.83749e-06 0)
(0.03112 8.83935e-06 0)
(0.0310931 -8.8059e-06 0)
(0.0312016 -1.05296e-05 0)
(0.0312068 -3.2852e-06 0)
(0.0312018 9.16296e-06 0)
(0.0311692 -9.41819e-06 0)
(0.0312821 -1.17632e-05 0)
(0.0312747 -2.98215e-06 0)
(0.0312678 9.56708e-06 0)
(0.0312298 -9.97472e-06 0)
(0.0313463 -1.31251e-05 0)
(0.031331 -2.56911e-06 0)
(0.0313229 1.00785e-05 0)
(0.0312798 -1.04644e-05 0)
(0.0314002 -1.45573e-05 0)
(0.0313774 -2.21504e-06 0)
(0.0313689 1.07905e-05 0)
(0.0313219 -1.11252e-05 0)
(0.0314441 -1.61568e-05 0)
(0.0314161 -1.84448e-06 0)
(0.0314089 1.13273e-05 0)
(0.0313619 -1.15261e-05 0)
(0.0314866 -1.75884e-05 0)
(0.0314485 -1.61627e-06 0)
(0.0314445 1.16924e-05 0)
(0.0314012 -1.21848e-05 0)
(0.031524 -1.90666e-05 0)
(0.0314705 -1.2829e-06 0)
(0.0314789 1.19498e-05 0)
(0.0314452 -1.28176e-05 0)
(0.0315578 -2.02701e-05 0)
(0.0314975 -1.16035e-06 0)
(0.0315148 1.19428e-05 0)
(0.031488 -1.32649e-05 0)
(0.031593 -2.14317e-05 0)
(0.0315313 -1.06207e-06 0)
(0.0315543 1.19539e-05 0)
(0.0315302 -1.41121e-05 0)
(0.0316332 -2.24944e-05 0)
(0.0315725 -9.92115e-07 0)
(0.031599 1.21554e-05 0)
(0.0315733 -1.45713e-05 0)
(0.0316742 -2.37372e-05 0)
(0.0316236 -1.06331e-06 0)
(0.0316513 1.21775e-05 0)
(0.0316225 -1.53479e-05 0)
(0.0317236 -2.47896e-05 0)
(0.0316859 -1.11838e-06 0)
(0.0317136 1.21975e-05 0)
(0.0316806 -1.58234e-05 0)
(0.031781 -2.59322e-05 0)
(0.0317626 -1.28411e-06 0)
(0.0317895 1.22541e-05 0)
(0.031752 -1.64056e-05 0)
(0.0318519 -2.69298e-05 0)
(0.0318564 -1.52912e-06 0)
(0.0318823 1.23378e-05 0)
(0.0318407 -1.69375e-05 0)
(0.0319388 -2.81359e-05 0)
(0.0319714 -1.60358e-06 0)
(0.0319967 1.25715e-05 0)
(0.0319516 -1.72137e-05 0)
(0.0320468 -2.89909e-05 0)
(0.0321124 -2.26503e-06 0)
(0.0321372 1.26106e-05 0)
(0.0320899 -1.79575e-05 0)
(0.0321803 -3.03848e-05 0)
(0.0322845 -2.13041e-06 0)
(0.0323096 1.27459e-05 0)
(0.0322617 -1.79821e-05 0)
(0.0323452 -3.11713e-05 0)
(0.0324945 -2.78668e-06 0)
(0.03252 1.33131e-05 0)
(0.0324739 -1.82202e-05 0)
(0.0325476 -3.13739e-05 0)
(0.0327491 -3.3309e-06 0)
(0.032776 1.32487e-05 0)
(0.0327342 -1.85928e-05 0)
(0.0327953 -3.36164e-05 0)
(0.0330578 -3.44097e-06 0)
(0.0330853 1.36886e-05 0)
(0.0330512 -1.834e-05 0)
(0.0330965 -3.24162e-05 0)
(0.0334285 -4.43061e-06 0)
(0.0334576 1.35636e-05 0)
(0.0334346 -1.86376e-05 0)
(0.0334609 -3.40138e-05 0)
(0.0338729 -4.79522e-06 0)
(0.0339016 1.28541e-05 0)
(0.0338957 -1.91459e-05 0)
(0.0338994 -3.44858e-05 0)
(0.0344 -4.74271e-06 0)
(0.0344293 1.26725e-05 0)
(0.0344334 -1.85904e-05 0)
(0.0344213 -3.24851e-05 0)
(0.0350277 -5.63136e-06 0)
(0.035056 1.22405e-05 0)
(0.0350665 -1.89153e-05 0)
(0.0350415 -3.39343e-05 0)
(0.0357671 -5.56217e-06 0)
(0.0357973 1.17697e-05 0)
(0.03581 -1.85886e-05 0)
(0.035775 -3.22285e-05 0)
(0.0366381 -6.25979e-06 0)
(0.0366679 1.17069e-05 0)
(0.0366809 -1.81257e-05 0)
(0.0366375 -3.18e-05 0)
(0.0376528 -6.68925e-06 0)
(0.0376864 1.10156e-05 0)
(0.0376966 -1.81441e-05 0)
(0.0376462 -3.17123e-05 0)
(0.0388358 -7.41347e-06 0)
(0.0388693 1.05579e-05 0)
(0.0388767 -1.77251e-05 0)
(0.0388198 -3.03789e-05 0)
(0.0401981 -7.7237e-06 0)
(0.0402392 1.02013e-05 0)
(0.0402409 -1.72067e-05 0)
(0.0401774 -3.0074e-05 0)
(0.0417717 -8.83553e-06 0)
(0.041814 9.67073e-06 0)
(0.0418113 -1.67823e-05 0)
(0.0417411 -2.88739e-05 0)
(0.0435637 -9.33245e-06 0)
(0.0436196 9.38289e-06 0)
(0.0436101 -1.5993e-05 0)
(0.0435318 -2.82566e-05 0)
(0.0456144 -1.0487e-05 0)
(0.0456743 9.88779e-06 0)
(0.0456611 -1.46936e-05 0)
(0.0455745 -2.70065e-05 0)
(0.0479268 -1.17605e-05 0)
(0.0480068 6.31869e-06 0)
(0.0479876 -1.55682e-05 0)
(0.0478912 -2.66021e-05 0)
(0.0505491 -1.18091e-05 0)
(0.0506344 7.12218e-06 0)
(0.0506157 -1.42165e-05 0)
(0.0505116 -2.64688e-05 0)
(0.0534795 -1.60098e-05 0)
(0.0535856 8.07331e-06 0)
(0.0535666 -1.08074e-05 0)
(0.0534572 -2.17876e-05 0)
(0.0568227 -1.68329e-05 0)
(0.0569126 2.82545e-07 0)
(0.0568961 -1.3439e-05 0)
(0.0567895 -2.4161e-05 0)
(0.00214369 5.79264e-08 0)
(0.00213891 -2.73038e-08 0)
(0.0021447 3.17811e-08 0)
(0.00214313 -6.12492e-08 0)
(0.00599269 3.55353e-07 0)
(0.00598234 -1.47439e-07 0)
(0.00600022 2.61765e-08 0)
(0.00599178 1.47747e-07 0)
(0.00942666 7.90581e-07 0)
(0.0094126 -3.32801e-07 0)
(0.00944045 -5.18699e-08 0)
(0.00942919 3.05756e-07 0)
(0.0124773 1.45031e-06 0)
(0.0124602 -5.95526e-07 0)
(0.0124952 -1.63135e-07 0)
(0.0124829 3.7691e-07 0)
(0.0151766 2.15986e-06 0)
(0.0151567 -8.36694e-07 0)
(0.015196 -3.40448e-07 0)
(0.0151834 3.74531e-07 0)
(0.0175548 3.0753e-06 0)
(0.0175322 -1.14098e-06 0)
(0.017575 -5.13579e-07 0)
(0.017563 2.31647e-07 0)
(0.0196405 3.95941e-06 0)
(0.0196149 -1.37623e-06 0)
(0.0196605 -7.61852e-07 0)
(0.0196496 1.09903e-07 0)
(0.0214613 5.04189e-06 0)
(0.021433 -1.68946e-06 0)
(0.0214813 -9.94903e-07 0)
(0.0214707 -1.20864e-07 0)
(0.0230432 6.02101e-06 0)
(0.0230121 -1.91268e-06 0)
(0.0230628 -1.27537e-06 0)
(0.0230515 -2.66583e-07 0)
(0.0244114 7.17013e-06 0)
(0.0243778 -2.2285e-06 0)
(0.0244311 -1.56462e-06 0)
(0.0244179 -4.49368e-07 0)
(0.0255886 8.18703e-06 0)
(0.0255526 -2.45815e-06 0)
(0.0256081 -1.77965e-06 0)
(0.0255919 -5.17411e-07 0)
(0.0265975 9.28424e-06 0)
(0.0265589 -2.7433e-06 0)
(0.0266169 -2.15712e-06 0)
(0.0265981 -4.86724e-07 0)
(0.0274566 1.02937e-05 0)
(0.0274161 -3.04987e-06 0)
(0.0274757 -2.19123e-06 0)
(0.0274539 -1.93922e-07 0)
(0.0281859 1.128e-05 0)
(0.0281444 -3.23687e-06 0)
(0.028205 -2.55357e-06 0)
(0.0281807 2.36303e-07 0)
(0.0287998 1.21404e-05 0)
(0.0287586 -3.53054e-06 0)
(0.028819 -2.85762e-06 0)
(0.0287932 2.40651e-07 0)
(0.029317 1.28538e-05 0)
(0.029276 -3.75488e-06 0)
(0.0293355 -3.00145e-06 0)
(0.0293104 5.41421e-07 0)
(0.0297455 1.34704e-05 0)
(0.0297058 -3.92394e-06 0)
(0.029765 -3.36878e-06 0)
(0.0297335 8.62531e-07 0)
(0.0301022 1.39978e-05 0)
(0.0300628 -4.2432e-06 0)
(0.0301229 -3.3485e-06 0)
(0.0300859 1.33455e-06 0)
(0.0303959 1.44399e-05 0)
(0.0303562 -4.47566e-06 0)
(0.0304169 -3.42608e-06 0)
(0.0303741 2.36985e-06 0)
(0.0306372 1.48735e-05 0)
(0.0305973 -4.7595e-06 0)
(0.0306593 -3.3595e-06 0)
(0.0306116 3.35101e-06 0)
(0.0308342 1.52532e-05 0)
(0.0307934 -5.03713e-06 0)
(0.0308557 -3.41458e-06 0)
(0.0308034 4.13716e-06 0)
(0.0309938 1.54992e-05 0)
(0.0309527 -5.29362e-06 0)
(0.0310158 -3.33262e-06 0)
(0.0309599 5.21507e-06 0)
(0.0311232 1.58645e-05 0)
(0.0310812 -5.57356e-06 0)
(0.0311439 -3.30469e-06 0)
(0.0310849 6.14869e-06 0)
(0.031227 1.60156e-05 0)
(0.0311846 -5.81594e-06 0)
(0.0312471 -3.17428e-06 0)
(0.0311861 7.22431e-06 0)
(0.0313112 1.63581e-05 0)
(0.0312676 -6.09242e-06 0)
(0.0313289 -3.12777e-06 0)
(0.0312663 8.20827e-06 0)
(0.0313785 1.64779e-05 0)
(0.0313338 -6.26446e-06 0)
(0.0313942 -2.90408e-06 0)
(0.031331 9.22863e-06 0)
(0.0314351 1.67093e-05 0)
(0.0313875 -6.57338e-06 0)
(0.0314457 -2.88708e-06 0)
(0.0313826 1.01067e-05 0)
(0.0314813 1.68005e-05 0)
(0.0314309 -6.61362e-06 0)
(0.0314867 -2.57107e-06 0)
(0.0314248 1.12218e-05 0)
(0.0315237 1.70797e-05 0)
(0.0314672 -6.85528e-06 0)
(0.0315196 -2.47155e-06 0)
(0.0314598 1.1989e-05 0)
(0.0315603 1.7471e-05 0)
(0.0314986 -6.75365e-06 0)
(0.0315461 -2.33498e-06 0)
(0.03149 1.27872e-05 0)
(0.0315961 1.77747e-05 0)
(0.0315342 -6.69807e-06 0)
(0.0315732 -2.15454e-06 0)
(0.0315151 1.36161e-05 0)
(0.0316305 1.79982e-05 0)
(0.0315669 -6.34514e-06 0)
(0.0315989 -2.08799e-06 0)
(0.031541 1.43067e-05 0)
(0.0316699 1.80266e-05 0)
(0.0316033 -6.01153e-06 0)
(0.0316296 -1.81582e-06 0)
(0.0315708 1.52832e-05 0)
(0.0317113 1.82341e-05 0)
(0.0316443 -5.49918e-06 0)
(0.0316663 -1.60408e-06 0)
(0.0316064 1.61326e-05 0)
(0.0317612 1.82081e-05 0)
(0.031694 -5.13021e-06 0)
(0.0317119 -1.2095e-06 0)
(0.0316507 1.69744e-05 0)
(0.0318188 1.85594e-05 0)
(0.0317531 -4.48293e-06 0)
(0.0317682 -9.40798e-07 0)
(0.0317061 1.77617e-05 0)
(0.0318903 1.85217e-05 0)
(0.031827 -4.13103e-06 0)
(0.0318388 -5.20352e-07 0)
(0.0317756 1.84049e-05 0)
(0.0319768 1.87531e-05 0)
(0.0319173 -3.47228e-06 0)
(0.0319265 -1.40648e-07 0)
(0.0318623 1.90451e-05 0)
(0.0320848 1.87915e-05 0)
(0.03203 -3.08489e-06 0)
(0.032036 3.09762e-07 0)
(0.0319705 1.97648e-05 0)
(0.0322168 1.87056e-05 0)
(0.0321685 -2.56029e-06 0)
(0.0321712 7.72929e-07 0)
(0.0321049 1.99556e-05 0)
(0.0323801 1.88078e-05 0)
(0.0323395 -2.22074e-06 0)
(0.0323384 1.327e-06 0)
(0.0322712 2.10886e-05 0)
(0.0325789 1.91646e-05 0)
(0.0325479 -1.37877e-06 0)
(0.0325428 1.93523e-06 0)
(0.0324753 2.12228e-05 0)
(0.0328221 1.78615e-05 0)
(0.032802 -1.85017e-06 0)
(0.032793 2.06318e-06 0)
(0.0327259 2.10286e-05 0)
(0.0331156 1.92739e-05 0)
(0.0331082 -6.74952e-07 0)
(0.0330948 3.14211e-06 0)
(0.0330304 2.26229e-05 0)
(0.0334706 1.77088e-05 0)
(0.0334762 -1.07774e-06 0)
(0.0334598 3.34275e-06 0)
(0.0334 2.14154e-05 0)
(0.0338964 1.76303e-05 0)
(0.0339186 -8.4065e-07 0)
(0.0338983 4.15983e-06 0)
(0.0338446 2.2441e-05 0)
(0.0344115 1.8553e-05 0)
(0.0344478 -2.71799e-07 0)
(0.0344244 5.21788e-06 0)
(0.0343723 2.34017e-05 0)
(0.0350266 1.65084e-05 0)
(0.0350757 -9.24795e-07 0)
(0.0350473 5.24267e-06 0)
(0.0349956 2.21105e-05 0)
(0.035758 1.75308e-05 0)
(0.0358169 -7.87066e-07 0)
(0.0357849 6.40552e-06 0)
(0.0357327 2.32382e-05 0)
(0.0366188 1.63253e-05 0)
(0.0366865 -9.96689e-07 0)
(0.03665 6.73849e-06 0)
(0.0365963 2.28993e-05 0)
(0.0376275 1.58304e-05 0)
(0.037702 -1.52962e-06 0)
(0.0376627 7.55899e-06 0)
(0.0376079 2.23154e-05 0)
(0.0388011 1.53926e-05 0)
(0.0388812 -1.43485e-06 0)
(0.0388389 8.50159e-06 0)
(0.0387816 2.32039e-05 0)
(0.0401597 1.47497e-05 0)
(0.0402445 -2.03164e-06 0)
(0.0402011 9.19778e-06 0)
(0.0401426 2.23594e-05 0)
(0.0417244 1.40748e-05 0)
(0.0418123 -2.03581e-06 0)
(0.0417676 1.02125e-05 0)
(0.0417058 2.30119e-05 0)
(0.0435163 1.34223e-05 0)
(0.043607 -2.64064e-06 0)
(0.043564 1.09525e-05 0)
(0.0435007 2.21659e-05 0)
(0.0455606 1.21246e-05 0)
(0.0456509 -2.74317e-06 0)
(0.04561 1.12727e-05 0)
(0.0455429 2.09688e-05 0)
(0.0478792 1.28247e-05 0)
(0.0479685 -3.38249e-06 0)
(0.0479339 1.40019e-05 0)
(0.0478659 2.50402e-05 0)
(0.0505021 1.09812e-05 0)
(0.050585 -3.51061e-06 0)
(0.0505579 1.40547e-05 0)
(0.0504882 2.26162e-05 0)
(0.053451 9.90863e-06 0)
(0.0535247 -3.95642e-06 0)
(0.0535105 1.30375e-05 0)
(0.0534449 1.85996e-05 0)
(0.056781 1.19765e-05 0)
(0.0568423 -4.89723e-06 0)
(0.0568396 1.50833e-05 0)
(0.0567847 2.41501e-05 0)
(0.0631857 -1.68017e-05 0)
(0.0632149 7.20219e-06 0)
(0.0632049 -1.00136e-05 0)
(0.0631613 -2.16444e-05 0)
(0.0932025 -1.0535e-05 0)
(0.0925623 2.08445e-05 0)
(0.0926091 -5.80508e-06 0)
(0.0934417 -1.71216e-05 0)
(0.12273 -7.75416e-06 0)
(0.122254 -5.34446e-06 0)
(0.12232 -3.17614e-05 0)
(0.123025 -4.04684e-05 0)
(0.149019 -1.459e-05 0)
(0.148704 2.55284e-05 0)
(0.148786 -1.89561e-05 0)
(0.149348 -2.06625e-05 0)
(0.172302 -1.83721e-07 0)
(0.172157 1.53764e-05 0)
(0.172232 -3.29951e-05 0)
(0.172655 -3.91796e-05 0)
(0.192875 -7.63578e-06 0)
(0.192838 1.13757e-05 0)
(0.192899 -3.73015e-05 0)
(0.193189 -3.5143e-05 0)
(0.210914 -6.94393e-07 0)
(0.210991 1.93278e-05 0)
(0.211019 -3.49237e-05 0)
(0.211199 -3.6342e-05 0)
(0.226707 -3.54637e-06 0)
(0.226821 1.11811e-05 0)
(0.22683 -3.94127e-05 0)
(0.226935 -3.7957e-05 0)
(0.240415 -2.58081e-06 0)
(0.240579 1.50441e-05 0)
(0.240563 -3.76427e-05 0)
(0.240609 -3.56229e-05 0)
(0.25229 -5.61409e-06 0)
(0.252457 9.1312e-06 0)
(0.25244 -3.97751e-05 0)
(0.252453 -3.76798e-05 0)
(0.262496 -4.27275e-06 0)
(0.262672 9.92132e-06 0)
(0.262642 -3.89645e-05 0)
(0.262631 -3.51233e-05 0)
(0.271247 -7.27747e-06 0)
(0.271393 1.02715e-05 0)
(0.27137 -3.47482e-05 0)
(0.27135 -2.63445e-05 0)
(0.278684 -1.06639e-05 0)
(0.278807 7.01144e-06 0)
(0.278784 -4.01448e-05 0)
(0.278756 -3.9137e-05 0)
(0.284987 -8.18998e-06 0)
(0.285063 7.96211e-06 0)
(0.285061 -3.25263e-05 0)
(0.285031 -1.90034e-05 0)
(0.290291 -1.34818e-05 0)
(0.290328 9.08627e-06 0)
(0.290333 -3.68119e-05 0)
(0.290296 -2.98853e-05 0)
(0.29473 -1.09711e-05 0)
(0.294702 9.8674e-07 0)
(0.294744 -3.97637e-05 0)
(0.294719 -3.01826e-05 0)
(0.298444 -9.52338e-06 0)
(0.298354 8.05078e-06 0)
(0.298422 -3.36661e-05 0)
(0.298403 -1.17324e-05 0)
(0.301513 -8.87136e-06 0)
(0.301378 4.12496e-06 0)
(0.301475 -3.92145e-05 0)
(0.301462 -2.8444e-05 0)
(0.304055 -8.19005e-06 0)
(0.303871 6.1768e-06 0)
(0.303994 -3.72495e-05 0)
(0.303984 -1.19504e-05 0)
(0.306128 -4.28539e-06 0)
(0.30591 8.14414e-06 0)
(0.306054 -3.62846e-05 0)
(0.306048 -1.51782e-05 0)
(0.30781 -5.75338e-06 0)
(0.307568 7.26817e-06 0)
(0.30773 -4.09939e-05 0)
(0.307728 -1.50364e-05 0)
(0.309163 -1.46671e-06 0)
(0.308905 7.86526e-06 0)
(0.309077 -3.99113e-05 0)
(0.309076 -9.93848e-06 0)
(0.310243 -9.89587e-07 0)
(0.309975 8.6612e-06 0)
(0.310149 -4.2495e-05 0)
(0.310149 -1.02096e-05 0)
(0.311096 7.76126e-07 0)
(0.310822 9.16904e-06 0)
(0.310992 -4.32413e-05 0)
(0.310991 -7.54656e-06 0)
(0.311758 2.41237e-06 0)
(0.311485 1.01886e-05 0)
(0.311638 -4.47321e-05 0)
(0.311639 -7.47874e-06 0)
(0.312262 3.5323e-06 0)
(0.311992 1.09629e-05 0)
(0.312129 -4.56873e-05 0)
(0.312128 -5.83911e-06 0)
(0.312631 5.0872e-06 0)
(0.312372 1.20888e-05 0)
(0.312483 -4.68594e-05 0)
(0.312483 -6.56074e-06 0)
(0.312886 6.10902e-06 0)
(0.312639 1.33757e-05 0)
(0.312729 -4.74369e-05 0)
(0.312718 -5.17049e-06 0)
(0.313037 7.44464e-06 0)
(0.312812 1.39902e-05 0)
(0.312878 -4.83847e-05 0)
(0.312844 -6.23466e-06 0)
(0.313096 8.44962e-06 0)
(0.312896 1.61311e-05 0)
(0.312943 -4.73412e-05 0)
(0.312879 -4.44736e-06 0)
(0.313064 9.1335e-06 0)
(0.3129 1.68379e-05 0)
(0.312928 -4.70894e-05 0)
(0.312833 -4.855e-06 0)
(0.312942 9.83467e-06 0)
(0.312818 1.7759e-05 0)
(0.312833 -4.61077e-05 0)
(0.312697 -4.39146e-06 0)
(0.312723 9.66446e-06 0)
(0.312655 1.91283e-05 0)
(0.312656 -4.41547e-05 0)
(0.312476 -3.30749e-06 0)
(0.312397 9.84571e-06 0)
(0.312363 1.86416e-05 0)
(0.312356 -4.34228e-05 0)
(0.312149 -3.74579e-06 0)
(0.311947 9.14976e-06 0)
(0.311944 1.91964e-05 0)
(0.311924 -4.08773e-05 0)
(0.311706 -2.68142e-06 0)
(0.311351 9.07853e-06 0)
(0.311363 1.91188e-05 0)
(0.311329 -3.87723e-05 0)
(0.311117 -2.68268e-06 0)
(0.310558 8.08988e-06 0)
(0.310604 1.9232e-05 0)
(0.310568 -3.66681e-05 0)
(0.310356 -2.70563e-06 0)
(0.309529 7.79514e-06 0)
(0.309613 1.86906e-05 0)
(0.309593 -3.44574e-05 0)
(0.309383 -2.72218e-06 0)
(0.308269 6.95435e-06 0)
(0.308383 1.80461e-05 0)
(0.308372 -3.25708e-05 0)
(0.308163 -3.01471e-06 0)
(0.306717 6.83654e-06 0)
(0.306851 1.69183e-05 0)
(0.306844 -3.05394e-05 0)
(0.306638 -3.19265e-06 0)
(0.304817 6.37905e-06 0)
(0.30496 1.5761e-05 0)
(0.304958 -2.87451e-05 0)
(0.304754 -3.54255e-06 0)
(0.302485 6.51873e-06 0)
(0.302636 1.44507e-05 0)
(0.302632 -2.68956e-05 0)
(0.302432 -3.87098e-06 0)
(0.299645 6.25107e-06 0)
(0.299792 1.27847e-05 0)
(0.299792 -2.52737e-05 0)
(0.299596 -4.76134e-06 0)
(0.296188 6.97953e-06 0)
(0.296336 1.13781e-05 0)
(0.296332 -2.34049e-05 0)
(0.296142 -4.24423e-06 0)
(0.292017 7.36753e-06 0)
(0.292153 1.05568e-05 0)
(0.292151 -2.17469e-05 0)
(0.291968 -4.66282e-06 0)
(0.286991 8.02581e-06 0)
(0.287126 9.48444e-06 0)
(0.287117 -2.00014e-05 0)
(0.286941 -4.72058e-06 0)
(0.280987 8.56515e-06 0)
(0.281108 8.7583e-06 0)
(0.281102 -1.83365e-05 0)
(0.280933 -4.25889e-06 0)
(0.273835 8.7612e-06 0)
(0.273955 7.82483e-06 0)
(0.273939 -1.68475e-05 0)
(0.273779 -4.91457e-06 0)
(0.265375 8.65903e-06 0)
(0.265486 6.58094e-06 0)
(0.265471 -1.53676e-05 0)
(0.265318 -4.65786e-06 0)
(0.255413 8.68242e-06 0)
(0.255526 5.61723e-06 0)
(0.255498 -1.38174e-05 0)
(0.255353 -4.31055e-06 0)
(0.24375 8.3141e-06 0)
(0.24386 4.97641e-06 0)
(0.243828 -1.22894e-05 0)
(0.243691 -3.97244e-06 0)
(0.230155 7.80093e-06 0)
(0.230281 4.2331e-06 0)
(0.230233 -1.07122e-05 0)
(0.230104 -3.47726e-06 0)
(0.214408 6.8424e-06 0)
(0.214541 3.53853e-06 0)
(0.214484 -9.11007e-06 0)
(0.214362 -2.97512e-06 0)
(0.196256 5.79484e-06 0)
(0.1964 2.85386e-06 0)
(0.196328 -7.47765e-06 0)
(0.196216 -2.44913e-06 0)
(0.175443 4.49588e-06 0)
(0.175583 2.21556e-06 0)
(0.175507 -5.82053e-06 0)
(0.175405 -1.91997e-06 0)
(0.151686 3.29397e-06 0)
(0.151822 1.64306e-06 0)
(0.151744 -4.2529e-06 0)
(0.151654 -1.42424e-06 0)
(0.124704 2.09599e-06 0)
(0.124823 1.1124e-06 0)
(0.124755 -2.80433e-06 0)
(0.12468 -9.78384e-07 0)
(0.0941977 1.16547e-06 0)
(0.0942967 6.54485e-07 0)
(0.0942418 -1.60529e-06 0)
(0.0941835 -5.99509e-07 0)
(0.0598738 4.70866e-07 0)
(0.0599408 2.39958e-07 0)
(0.0599045 -7.08e-07 0)
(0.0598636 -3.42646e-07 0)
(0.0214193 3.8095e-08 0)
(0.0214455 6.35662e-08 0)
(0.0214299 -9.36487e-08 0)
(0.0214103 -2.41297e-08 0)
(0.06312 8.77034e-06 0)
(0.0631717 -4.94286e-06 0)
(0.0631837 1.38557e-05 0)
(0.0631479 1.82615e-05 0)
(0.0930993 6.28465e-06 0)
(0.0934451 -3.76167e-06 0)
(0.0931215 1.49765e-05 0)
(0.0928375 1.64408e-05 0)
(0.122779 1.48888e-05 0)
(0.122973 -7.69742e-06 0)
(0.122784 2.92241e-05 0)
(0.122615 4.24155e-05 0)
(0.149162 6.96473e-06 0)
(0.149252 -4.2146e-06 0)
(0.149165 1.92837e-05 0)
(0.149044 9.78306e-06 0)
(0.172516 1.12435e-05 0)
(0.172539 -4.58591e-06 0)
(0.172527 2.53055e-05 0)
(0.172427 2.47649e-05 0)
(0.19308 1.31104e-05 0)
(0.193067 -6.06898e-06 0)
(0.193096 2.81498e-05 0)
(0.193007 3.08051e-05 0)
(0.211103 1.22549e-05 0)
(0.211083 -3.55936e-06 0)
(0.211146 2.40138e-05 0)
(0.211046 2.43499e-05 0)
(0.226834 1.42357e-05 0)
(0.226815 -6.74409e-06 0)
(0.226901 2.71365e-05 0)
(0.226792 3.05885e-05 0)
(0.240487 1.48765e-05 0)
(0.240485 -4.24538e-06 0)
(0.240597 2.54234e-05 0)
(0.240472 3.10865e-05 0)
(0.252295 1.52014e-05 0)
(0.252311 -8.64539e-06 0)
(0.252439 2.63115e-05 0)
(0.252295 3.07281e-05 0)
(0.262449 1.71432e-05 0)
(0.262489 -6.93853e-06 0)
(0.262631 2.65071e-05 0)
(0.262475 3.64866e-05 0)
(0.271142 2.1302e-05 0)
(0.2712 -8.47576e-06 0)
(0.271349 2.62101e-05 0)
(0.271194 3.32883e-05 0)
(0.278538 1.39224e-05 0)
(0.278614 -1.37059e-05 0)
(0.278769 2.37677e-05 0)
(0.278626 3.19056e-05 0)
(0.284803 2.63828e-05 0)
(0.284888 -1.07967e-05 0)
(0.285047 2.64714e-05 0)
(0.284929 3.83771e-05 0)
(0.290076 1.69444e-05 0)
(0.290169 -1.61701e-05 0)
(0.290334 2.24461e-05 0)
(0.290249 2.95063e-05 0)
(0.294495 2.08057e-05 0)
(0.29459 -1.93998e-05 0)
(0.294758 2.48859e-05 0)
(0.294718 3.66178e-05 0)
(0.298173 2.95585e-05 0)
(0.298266 -1.49663e-05 0)
(0.298443 2.48036e-05 0)
(0.298461 4.13937e-05 0)
(0.301225 1.95205e-05 0)
(0.301312 -2.4244e-05 0)
(0.301476 1.97795e-05 0)
(0.301537 3.14346e-05 0)
(0.303737 3.04338e-05 0)
(0.30381 -2.07699e-05 0)
(0.303951 1.98819e-05 0)
(0.304072 3.89577e-05 0)
(0.305804 2.67607e-05 0)
(0.305861 -2.49068e-05 0)
(0.305956 1.55971e-05 0)
(0.306122 3.28525e-05 0)
(0.307483 2.81506e-05 0)
(0.307514 -2.57841e-05 0)
(0.30756 1.29368e-05 0)
(0.30777 2.90867e-05 0)
(0.308861 3.15929e-05 0)
(0.308864 -2.52864e-05 0)
(0.308844 1.20689e-05 0)
(0.309095 3.08894e-05 0)
(0.309965 3.28316e-05 0)
(0.309949 -2.47962e-05 0)
(0.309879 9.26873e-06 0)
(0.310155 2.55362e-05 0)
(0.310851 3.42372e-05 0)
(0.310831 -2.40367e-05 0)
(0.310708 8.14599e-06 0)
(0.310995 2.35061e-05 0)
(0.31153 3.58733e-05 0)
(0.311495 -2.20116e-05 0)
(0.311353 6.30403e-06 0)
(0.31165 1.95024e-05 0)
(0.312062 3.64829e-05 0)
(0.312028 -2.07666e-05 0)
(0.311855 5.34698e-06 0)
(0.312151 1.64793e-05 0)
(0.312442 3.75281e-05 0)
(0.312393 -1.85031e-05 0)
(0.312222 3.83579e-06 0)
(0.31252 1.25813e-05 0)
(0.31271 3.78732e-05 0)
(0.31267 -1.65481e-05 0)
(0.312487 3.27839e-06 0)
(0.312777 9.37057e-06 0)
(0.312838 3.83204e-05 0)
(0.3128 -1.4355e-05 0)
(0.312644 2.28364e-06 0)
(0.312933 6.42337e-06 0)
(0.312903 3.86808e-05 0)
(0.312881 -1.31183e-05 0)
(0.312718 3.47722e-07 0)
(0.312998 2.68993e-06 0)
(0.312875 3.87795e-05 0)
(0.312849 -1.13043e-05 0)
(0.312697 -5.76172e-07 0)
(0.312974 -2.90426e-07 0)
(0.312778 3.8316e-05 0)
(0.312766 -1.03114e-05 0)
(0.312594 -2.29801e-06 0)
(0.312859 -3.48807e-06 0)
(0.312585 3.78868e-05 0)
(0.312572 -8.29276e-06 0)
(0.312395 -3.17292e-06 0)
(0.312649 -6.53769e-06 0)
(0.312304 3.63314e-05 0)
(0.312305 -6.67745e-06 0)
(0.312097 -3.41168e-06 0)
(0.312329 -9.19879e-06 0)
(0.311885 3.54239e-05 0)
(0.31189 -4.52304e-06 0)
(0.311679 -3.47733e-06 0)
(0.311888 -1.11798e-05 0)
(0.311317 3.34224e-05 0)
(0.311335 -2.79627e-06 0)
(0.311118 -3.65542e-06 0)
(0.311294 -1.37464e-05 0)
(0.310569 3.17323e-05 0)
(0.310592 -1.07894e-06 0)
(0.310388 -3.19235e-06 0)
(0.310528 -1.51967e-05 0)
(0.30961 2.95735e-05 0)
(0.309642 4.86316e-07 0)
(0.309449 -2.77483e-06 0)
(0.30954 -1.64615e-05 0)
(0.308397 2.7467e-05 0)
(0.308432 1.78038e-06 0)
(0.308265 -1.94314e-06 0)
(0.308325 -1.67009e-05 0)
(0.306878 2.51257e-05 0)
(0.306919 2.94593e-06 0)
(0.306772 -1.27099e-06 0)
(0.306805 -1.66427e-05 0)
(0.304994 2.28499e-05 0)
(0.305037 3.73922e-06 0)
(0.304925 -4.4951e-07 0)
(0.304947 -1.58404e-05 0)
(0.302669 2.04443e-05 0)
(0.302714 4.33475e-06 0)
(0.30263 -7.84746e-08 0)
(0.302637 -1.49683e-05 0)
(0.299825 1.7906e-05 0)
(0.299874 4.17017e-06 0)
(0.299828 2.86083e-07 0)
(0.299832 -1.37119e-05 0)
(0.296359 1.62708e-05 0)
(0.296407 4.4741e-06 0)
(0.296376 4.03285e-07 0)
(0.296373 -1.13268e-05 0)
(0.292172 1.37667e-05 0)
(0.292231 4.50976e-06 0)
(0.292209 6.3766e-07 0)
(0.292201 -1.03347e-05 0)
(0.287127 1.17091e-05 0)
(0.287181 4.15449e-06 0)
(0.287186 5.23085e-07 0)
(0.287178 -8.8369e-06 0)
(0.281101 9.90349e-06 0)
(0.28118 4.19454e-06 0)
(0.281165 6.39679e-07 0)
(0.281138 -7.10731e-06 0)
(0.273924 7.48283e-06 0)
(0.27398 3.40079e-06 0)
(0.273997 5.82287e-07 0)
(0.273985 -6.54835e-06 0)
(0.265444 6.08643e-06 0)
(0.265521 2.84136e-06 0)
(0.26551 3.79338e-07 0)
(0.265478 -4.8465e-06 0)
(0.255456 4.72319e-06 0)
(0.255504 2.36239e-06 0)
(0.255521 5.84531e-07 0)
(0.255509 -3.65599e-06 0)
(0.243778 3.4712e-06 0)
(0.243841 2.01035e-06 0)
(0.243836 3.70732e-07 0)
(0.243802 -3.00918e-06 0)
(0.230171 2.43606e-06 0)
(0.230207 1.58655e-06 0)
(0.230225 5.59068e-07 0)
(0.230194 -2.35954e-06 0)
(0.21442 1.64631e-06 0)
(0.214466 1.3101e-06 0)
(0.214473 5.38316e-07 0)
(0.214417 -1.81781e-06 0)
(0.196261 9.01659e-07 0)
(0.196286 9.3835e-07 0)
(0.196313 8.12726e-07 0)
(0.196256 -1.36443e-06 0)
(0.175445 4.33971e-07 0)
(0.175467 6.68351e-07 0)
(0.175491 8.4811e-07 0)
(0.175432 -9.30239e-07 0)
(0.151684 1.50103e-08 0)
(0.15169 3.75465e-07 0)
(0.151726 9.60976e-07 0)
(0.151675 -6.03606e-07 0)
(0.124704 -1.51381e-07 0)
(0.124702 1.89051e-07 0)
(0.124736 8.38225e-07 0)
(0.124695 -3.06461e-07 0)
(0.0941978 -2.52642e-07 0)
(0.0941875 4.07007e-08 0)
(0.0942244 6.92002e-07 0)
(0.0941949 -9.10528e-08 0)
(0.0598692 -1.77759e-07 0)
(0.0598569 -4.35519e-08 0)
(0.0598851 4.27139e-07 0)
(0.059872 1.35791e-07 0)
(0.0214074 -6.76385e-08 0)
(0.0213986 -1.41245e-08 0)
(0.0214131 1.09193e-07 0)
(0.0214154 -1.14812e-08 0)
)
;

boundaryField
{
    topWall
    {
        type            noSlip;
    }
    botWall
    {
        type            noSlip;
    }
    inlet
    {
        type            cyclic;
    }
    outlet
    {
        type            cyclic;
    }
    fixWall
    {
        type            empty;
    }
}


// ************************************************************************* //
