/*--------------------------------*- C++ -*----------------------------------*\
  =========                 |
  \\      /  F ield         | OpenFOAM: The Open Source CFD Toolbox
   \\    /   O peration     | Website:  https://openfoam.org
    \\  /    A nd           | Version:  dev
     \\/     M anipulation  |

   OpenFOAM for Windows 20.09 (v1)
   Built by CFD Support, www.cfdsupport.com (based on Symscape).
\*---------------------------------------------------------------------------*/
FoamFile
{
    version     2.0;
    format      ascii;
    class       volVectorField;
    location    "6";
    object      UMean;
}
// * * * * * * * * * * * * * * * * * * * * * * * * * * * * * * * * * * * * * //

dimensions      [0 1 -1 0 0 0 0];

internalField   nonuniform List<vector> 
960
(
(0.00182968 4.19556e-06 0)
(0.00182462 -9.90047e-08 0)
(0.0018375 2.65188e-09 0)
(0.00183589 -8.0652e-09 0)
(0.00506672 -4.07324e-07 0)
(0.00506619 -4.9442e-07 0)
(0.00508222 -6.18788e-08 0)
(0.00507376 1.33395e-07 0)
(0.00789873 3.52381e-06 0)
(0.00790206 -6.99153e-07 0)
(0.00792183 -6.85623e-08 0)
(0.00790616 4.22887e-07 0)
(0.0103619 4.73616e-07 0)
(0.0103681 -1.09392e-06 0)
(0.0103916 -8.89045e-08 0)
(0.0103694 8.54014e-07 0)
(0.0124918 2.39109e-06 0)
(0.0125011 -1.38807e-06 0)
(0.012527 -2.1631e-08 0)
(0.012499 1.40763e-06 0)
(0.0143224 1.02146e-06 0)
(0.0143348 -1.90928e-06 0)
(0.014362 -2.74578e-08 0)
(0.0143297 2.03855e-06 0)
(0.0158859 2.94659e-06 0)
(0.0159014 -2.2287e-06 0)
(0.0159296 1.36195e-07 0)
(0.015894 2.72605e-06 0)
(0.017213 1.66823e-06 0)
(0.0172314 -2.85439e-06 0)
(0.0172603 1.11206e-07 0)
(0.0172229 3.46491e-06 0)
(0.0183321 3.18057e-06 0)
(0.0183535 -3.17634e-06 0)
(0.0183831 3.52831e-07 0)
(0.0183446 4.19034e-06 0)
(0.0192699 2.2546e-06 0)
(0.0192939 -3.89112e-06 0)
(0.0193242 2.72427e-07 0)
(0.0192862 4.96874e-06 0)
(0.02005 3.33814e-06 0)
(0.0200776 -4.23578e-06 0)
(0.0201081 5.64754e-07 0)
(0.020071 5.66449e-06 0)
(0.0206952 2.78388e-06 0)
(0.0207253 -5.00095e-06 0)
(0.0207561 3.7786e-07 0)
(0.0207219 6.40113e-06 0)
(0.021224 3.50853e-06 0)
(0.0212588 -5.39262e-06 0)
(0.0212889 6.64671e-07 0)
(0.0212574 6.96385e-06 0)
(0.0216542 3.25699e-06 0)
(0.0216924 -6.08498e-06 0)
(0.0217225 4.86987e-07 0)
(0.021696 7.61036e-06 0)
(0.0220004 3.79364e-06 0)
(0.0220451 -6.82502e-06 0)
(0.0220741 5.36076e-07 0)
(0.0220515 8.04478e-06 0)
(0.022277 3.61067e-06 0)
(0.0223256 -7.45605e-06 0)
(0.0223538 5.37425e-07 0)
(0.0223387 8.35151e-06 0)
(0.0225026 4.1362e-06 0)
(0.0225548 -8.37897e-06 0)
(0.0225806 3.43624e-07 0)
(0.0225708 8.62843e-06 0)
(0.0226833 4.0391e-06 0)
(0.0227359 -8.98683e-06 0)
(0.0227617 4.05104e-07 0)
(0.0227575 8.56116e-06 0)
(0.0228271 4.48967e-06 0)
(0.0228811 -9.80838e-06 0)
(0.0229058 1.0075e-07 0)
(0.0229054 8.70428e-06 0)
(0.0229411 4.57104e-06 0)
(0.0229944 -1.03993e-05 0)
(0.0230194 8.51951e-08 0)
(0.0230228 8.51739e-06 0)
(0.0230312 4.88324e-06 0)
(0.0230844 -1.12642e-05 0)
(0.0231085 -2.44149e-07 0)
(0.0231147 8.54265e-06 0)
(0.0231022 5.02159e-06 0)
(0.0231538 -1.18635e-05 0)
(0.0231775 -3.38682e-07 0)
(0.0231865 8.28556e-06 0)
(0.0231582 5.30293e-06 0)
(0.0232086 -1.26281e-05 0)
(0.023231 -6.39548e-07 0)
(0.0232423 8.23702e-06 0)
(0.0232022 5.4839e-06 0)
(0.0232504 -1.32731e-05 0)
(0.0232717 -8.35364e-07 0)
(0.0232854 7.8922e-06 0)
(0.0232373 5.76303e-06 0)
(0.0232836 -1.38702e-05 0)
(0.0233027 -1.0734e-06 0)
(0.0233189 7.80767e-06 0)
(0.0232654 5.99375e-06 0)
(0.0233089 -1.45169e-05 0)
(0.0233259 -1.35616e-06 0)
(0.0233443 7.41207e-06 0)
(0.0232891 6.13093e-06 0)
(0.0233295 -1.5073e-05 0)
(0.0233435 -1.53784e-06 0)
(0.0233649 7.19354e-06 0)
(0.0233093 6.45012e-06 0)
(0.0233456 -1.5452e-05 0)
(0.0233563 -1.80491e-06 0)
(0.0233802 6.75034e-06 0)
(0.0233282 6.51986e-06 0)
(0.0233597 -1.59461e-05 0)
(0.0233665 -2.03023e-06 0)
(0.0233945 6.44521e-06 0)
(0.0233466 6.97231e-06 0)
(0.023371 -1.62508e-05 0)
(0.0233731 -2.26191e-06 0)
(0.0234054 6.05069e-06 0)
(0.0233639 7.18351e-06 0)
(0.0233823 -1.63036e-05 0)
(0.0233817 -2.61786e-06 0)
(0.0234172 5.73664e-06 0)
(0.0233802 7.49761e-06 0)
(0.0233927 -1.66071e-05 0)
(0.0233906 -2.85728e-06 0)
(0.0234278 5.30902e-06 0)
(0.0233974 7.81435e-06 0)
(0.0234062 -1.65635e-05 0)
(0.0234019 -3.27092e-06 0)
(0.023441 4.91029e-06 0)
(0.0234156 8.03008e-06 0)
(0.0234215 -1.65121e-05 0)
(0.0234148 -3.47681e-06 0)
(0.0234547 4.45397e-06 0)
(0.0234375 8.28029e-06 0)
(0.0234411 -1.65598e-05 0)
(0.0234319 -3.90732e-06 0)
(0.023473 3.96372e-06 0)
(0.0234633 8.66808e-06 0)
(0.0234649 -1.63665e-05 0)
(0.0234537 -4.05591e-06 0)
(0.0234955 3.55744e-06 0)
(0.0234959 8.88726e-06 0)
(0.0234956 -1.63051e-05 0)
(0.0234822 -4.48007e-06 0)
(0.0235248 3.13588e-06 0)
(0.0235364 9.23454e-06 0)
(0.0235343 -1.61736e-05 0)
(0.0235192 -4.64673e-06 0)
(0.0235622 2.55454e-06 0)
(0.0235883 9.51703e-06 0)
(0.0235843 -1.59018e-05 0)
(0.0235674 -4.95413e-06 0)
(0.0236105 2.31073e-06 0)
(0.0236538 9.73582e-06 0)
(0.0236479 -1.58521e-05 0)
(0.0236295 -5.22342e-06 0)
(0.0236724 1.47073e-06 0)
(0.0237376 1.01092e-05 0)
(0.0237294 -1.54811e-05 0)
(0.0237093 -5.38272e-06 0)
(0.0237515 1.34628e-06 0)
(0.0238434 1.02931e-05 0)
(0.0238328 -1.52719e-05 0)
(0.023811 -5.63566e-06 0)
(0.0238522 7.04304e-07 0)
(0.0239773 1.05437e-05 0)
(0.0239637 -1.48038e-05 0)
(0.02394 -5.74868e-06 0)
(0.0239795 2.11836e-07 0)
(0.0241451 1.06169e-05 0)
(0.0241286 -1.44951e-05 0)
(0.024103 -5.9388e-06 0)
(0.0241401 -8.13266e-08 0)
(0.0243544 1.10423e-05 0)
(0.0243351 -1.40871e-05 0)
(0.0243079 -5.9647e-06 0)
(0.024341 -7.06828e-07 0)
(0.0246138 1.08597e-05 0)
(0.0245939 -1.3762e-05 0)
(0.0245652 -6.19223e-06 0)
(0.0245883 -1.21117e-06 0)
(0.0249313 1.12161e-05 0)
(0.0249078 -1.34666e-05 0)
(0.0248756 -6.03869e-06 0)
(0.0248941 -1.19911e-06 0)
(0.025319 1.10136e-05 0)
(0.0252919 -1.27055e-05 0)
(0.0252565 -5.99066e-06 0)
(0.0252726 -1.5882e-06 0)
(0.0257901 1.10498e-05 0)
(0.0257596 -1.24037e-05 0)
(0.0257213 -5.84042e-06 0)
(0.0257361 -1.85527e-06 0)
(0.0263592 1.07905e-05 0)
(0.026326 -1.13696e-05 0)
(0.0262855 -5.62324e-06 0)
(0.0262998 -1.74715e-06 0)
(0.0270433 1.09856e-05 0)
(0.0270083 -1.10508e-05 0)
(0.0269657 -5.4245e-06 0)
(0.0269795 -2.4543e-06 0)
(0.0278616 1.0468e-05 0)
(0.0278249 -1.01189e-05 0)
(0.0277808 -5.33256e-06 0)
(0.0277945 -2.30527e-06 0)
(0.0288335 1.09287e-05 0)
(0.0287971 -9.63126e-06 0)
(0.0287514 -4.89946e-06 0)
(0.0287644 -2.88699e-06 0)
(0.0299839 1.00623e-05 0)
(0.0299468 -8.68631e-06 0)
(0.0299002 -4.92283e-06 0)
(0.0299125 -2.88492e-06 0)
(0.0313342 1.08615e-05 0)
(0.0312988 -8.21351e-06 0)
(0.0312518 -4.35387e-06 0)
(0.031262 -3.37316e-06 0)
(0.0329149 9.55564e-06 0)
(0.0328784 -6.90266e-06 0)
(0.0328318 -4.22009e-06 0)
(0.0328405 -3.42249e-06 0)
(0.0347484 1.088e-05 0)
(0.0347137 -7.33773e-06 0)
(0.0346684 -4.05629e-06 0)
(0.0346737 -3.93077e-06 0)
(0.0368724 9.36414e-06 0)
(0.0368339 -5.77919e-06 0)
(0.0367895 -4.04311e-06 0)
(0.0367939 -4.28274e-06 0)
(0.039307 1.07874e-05 0)
(0.0392684 -4.66437e-06 0)
(0.0392244 -2.59542e-06 0)
(0.0392271 -3.67152e-06 0)
(0.0421137 1.07044e-05 0)
(0.0420667 -4.73588e-06 0)
(0.0420185 -3.81746e-06 0)
(0.0420243 -4.36217e-06 0)
(0.00182761 3.23289e-08 0)
(0.0018242 -5.02145e-09 0)
(0.00183348 -5.67009e-08 0)
(0.00184382 -3.87531e-08 0)
(0.00505153 2.69645e-07 0)
(0.00504498 -7.32234e-08 0)
(0.00506748 -3.31681e-07 0)
(0.00508349 -2.35181e-07 0)
(0.00787268 5.78843e-07 0)
(0.00786468 -2.21484e-07 0)
(0.00789654 -7.89077e-07 0)
(0.00791738 -2.40575e-07 0)
(0.0103273 1.08163e-06 0)
(0.0103183 -4.27809e-07 0)
(0.0103576 -1.3189e-06 0)
(0.0103832 -3.89964e-07 0)
(0.012451 1.52161e-06 0)
(0.012441 -6.79547e-07 0)
(0.0124854 -2.00921e-06 0)
(0.0125146 -4.23436e-07 0)
(0.0142777 2.17952e-06 0)
(0.0142662 -9.65308e-07 0)
(0.0143147 -2.6642e-06 0)
(0.0143466 -6.28524e-07 0)
(0.0158394 2.66818e-06 0)
(0.0158263 -1.25256e-06 0)
(0.0158776 -3.48466e-06 0)
(0.0159112 -6.54318e-07 0)
(0.0171668 3.43438e-06 0)
(0.0171522 -1.56723e-06 0)
(0.0172055 -4.19967e-06 0)
(0.0172396 -8.76571e-07 0)
(0.0182882 3.93906e-06 0)
(0.0182722 -1.84475e-06 0)
(0.0183265 -5.07501e-06 0)
(0.01836 -8.61987e-07 0)
(0.0192304 4.75457e-06 0)
(0.0192133 -2.17167e-06 0)
(0.0192683 -5.80385e-06 0)
(0.0192997 -1.05099e-06 0)
(0.0200172 5.26607e-06 0)
(0.0199991 -2.43516e-06 0)
(0.0200541 -6.63043e-06 0)
(0.020082 -9.54425e-07 0)
(0.020671 6.05024e-06 0)
(0.0206523 -2.73647e-06 0)
(0.0207074 -7.36517e-06 0)
(0.0207304 -1.02345e-06 0)
(0.0212111 6.53633e-06 0)
(0.0211914 -3.02754e-06 0)
(0.0212463 -7.97775e-06 0)
(0.0212629 -8.00873e-07 0)
(0.0216555 7.23037e-06 0)
(0.0216357 -3.29596e-06 0)
(0.0216913 -8.72781e-06 0)
(0.0216995 -4.92683e-07 0)
(0.0220186 7.67397e-06 0)
(0.0219986 -3.56462e-06 0)
(0.0220548 -9.17408e-06 0)
(0.0220529 -3.73218e-07 0)
(0.0223186 8.11284e-06 0)
(0.0222975 -3.80631e-06 0)
(0.022353 -9.74491e-06 0)
(0.0223406 3.37281e-07 0)
(0.0225581 8.43709e-06 0)
(0.022536 -3.95916e-06 0)
(0.0225877 -1.02196e-05 0)
(0.0225676 8.79276e-07 0)
(0.0227498 8.669e-06 0)
(0.0227272 -4.13591e-06 0)
(0.0227767 -1.04523e-05 0)
(0.022751 1.67483e-06 0)
(0.0229016 9.01041e-06 0)
(0.0228782 -4.33799e-06 0)
(0.0229253 -1.07885e-05 0)
(0.0228954 2.54687e-06 0)
(0.0230218 9.13986e-06 0)
(0.0229984 -4.44259e-06 0)
(0.0230437 -1.09349e-05 0)
(0.0230107 3.49745e-06 0)
(0.023116 9.47373e-06 0)
(0.0230924 -4.59393e-06 0)
(0.0231359 -1.11398e-05 0)
(0.0231007 4.27267e-06 0)
(0.0231897 9.55519e-06 0)
(0.0231665 -4.69672e-06 0)
(0.0232088 -1.12876e-05 0)
(0.0231719 5.30224e-06 0)
(0.0232472 9.84359e-06 0)
(0.023224 -4.79279e-06 0)
(0.023265 -1.14163e-05 0)
(0.0232269 6.11706e-06 0)
(0.0232914 9.92324e-06 0)
(0.0232688 -4.91827e-06 0)
(0.0233092 -1.15262e-05 0)
(0.0232704 7.12895e-06 0)
(0.0233262 1.01483e-05 0)
(0.0233035 -4.96649e-06 0)
(0.0233431 -1.16275e-05 0)
(0.0233038 7.98314e-06 0)
(0.0233524 1.024e-05 0)
(0.0233302 -5.14398e-06 0)
(0.0233698 -1.17193e-05 0)
(0.0233306 9.01944e-06 0)
(0.0233738 1.03836e-05 0)
(0.0233512 -5.17288e-06 0)
(0.0233901 -1.19056e-05 0)
(0.0233514 9.64012e-06 0)
(0.0233895 1.05978e-05 0)
(0.0233672 -5.21698e-06 0)
(0.0234064 -1.17392e-05 0)
(0.0233689 1.08357e-05 0)
(0.0234042 1.06335e-05 0)
(0.0233807 -5.41569e-06 0)
(0.0234186 -1.21319e-05 0)
(0.0233829 1.1356e-05 0)
(0.0234151 1.09007e-05 0)
(0.0233915 -5.31671e-06 0)
(0.0234287 -1.20207e-05 0)
(0.0233958 1.22782e-05 0)
(0.0234283 1.09618e-05 0)
(0.0234026 -5.56825e-06 0)
(0.0234359 -1.21887e-05 0)
(0.0234082 1.3117e-05 0)
(0.023438 1.10437e-05 0)
(0.023412 -5.50827e-06 0)
(0.0234451 -1.25577e-05 0)
(0.0234217 1.33322e-05 0)
(0.023451 1.12614e-05 0)
(0.0234241 -5.54193e-06 0)
(0.0234564 -1.23846e-05 0)
(0.0234357 1.41532e-05 0)
(0.0234648 1.13424e-05 0)
(0.0234379 -5.48475e-06 0)
(0.023471 -1.27641e-05 0)
(0.0234523 1.4349e-05 0)
(0.0234834 1.1539e-05 0)
(0.0234562 -5.59576e-06 0)
(0.0234892 -1.27967e-05 0)
(0.0234717 1.48688e-05 0)
(0.023506 1.17257e-05 0)
(0.0234792 -5.38661e-06 0)
(0.0235126 -1.29555e-05 0)
(0.0234961 1.52756e-05 0)
(0.0235359 1.17758e-05 0)
(0.0235096 -5.68369e-06 0)
(0.0235425 -1.32404e-05 0)
(0.0235265 1.56684e-05 0)
(0.0235737 1.20101e-05 0)
(0.0235484 -5.41221e-06 0)
(0.0235808 -1.33387e-05 0)
(0.0235653 1.60001e-05 0)
(0.0236228 1.20302e-05 0)
(0.023599 -5.73048e-06 0)
(0.0236299 -1.36147e-05 0)
(0.0236147 1.64292e-05 0)
(0.0236852 1.21963e-05 0)
(0.0236634 -5.44631e-06 0)
(0.0236926 -1.36941e-05 0)
(0.0236776 1.65972e-05 0)
(0.0237654 1.22121e-05 0)
(0.0237461 -5.76597e-06 0)
(0.0237724 -1.38773e-05 0)
(0.0237577 1.70847e-05 0)
(0.0238665 1.24157e-05 0)
(0.0238505 -5.4674e-06 0)
(0.0238734 -1.40129e-05 0)
(0.0238591 1.72462e-05 0)
(0.0239948 1.20598e-05 0)
(0.0239831 -5.91173e-06 0)
(0.0240013 -1.42669e-05 0)
(0.0239872 1.74725e-05 0)
(0.0241552 1.24284e-05 0)
(0.0241486 -5.52555e-06 0)
(0.0241615 -1.41282e-05 0)
(0.0241477 1.7768e-05 0)
(0.0243565 1.20796e-05 0)
(0.0243568 -5.82886e-06 0)
(0.0243621 -1.44125e-05 0)
(0.0243482 1.76818e-05 0)
(0.0246014 1.19637e-05 0)
(0.0246137 -5.68125e-06 0)
(0.0246101 -1.40166e-05 0)
(0.024595 1.76392e-05 0)
(0.0249088 1.20484e-05 0)
(0.0249299 -5.60766e-06 0)
(0.0249185 -1.3802e-05 0)
(0.0249031 1.76404e-05 0)
(0.0252883 1.12205e-05 0)
(0.0253153 -5.96857e-06 0)
(0.0252981 -1.37041e-05 0)
(0.0252826 1.73097e-05 0)
(0.0257533 1.11926e-05 0)
(0.0257847 -5.74706e-06 0)
(0.0257631 -1.31441e-05 0)
(0.0257482 1.70272e-05 0)
(0.0263179 1.04673e-05 0)
(0.0263523 -6.15937e-06 0)
(0.0263272 -1.3071e-05 0)
(0.0263125 1.6981e-05 0)
(0.026999 1.01234e-05 0)
(0.0270358 -5.97329e-06 0)
(0.0270084 -1.25418e-05 0)
(0.026994 1.62095e-05 0)
(0.0278149 9.50006e-06 0)
(0.0278533 -6.24141e-06 0)
(0.0278237 -1.21888e-05 0)
(0.027809 1.63009e-05 0)
(0.0287864 9.15857e-06 0)
(0.0288262 -6.19253e-06 0)
(0.0287954 -1.1744e-05 0)
(0.0287807 1.54545e-05 0)
(0.0299358 8.3864e-06 0)
(0.0299766 -6.22896e-06 0)
(0.0299439 -1.13319e-05 0)
(0.0299284 1.55629e-05 0)
(0.031287 8.06247e-06 0)
(0.0313293 -6.56682e-06 0)
(0.0312963 -1.09428e-05 0)
(0.0312806 1.46413e-05 0)
(0.0328662 7.11956e-06 0)
(0.0329092 -6.01877e-06 0)
(0.0328749 -1.04529e-05 0)
(0.0328587 1.43738e-05 0)
(0.0347 7.05797e-06 0)
(0.0347446 -7.04099e-06 0)
(0.0347115 -9.84911e-06 0)
(0.0346961 1.46717e-05 0)
(0.0368184 5.99733e-06 0)
(0.0368629 -6.12512e-06 0)
(0.03683 -9.45998e-06 0)
(0.0368169 1.40535e-05 0)
(0.0392493 5.46946e-06 0)
(0.0392936 -7.0428e-06 0)
(0.0392658 -9.06761e-06 0)
(0.0392602 1.26071e-05 0)
(0.0420392 5.27042e-06 0)
(0.0420857 -6.61684e-06 0)
(0.0420556 -8.95353e-06 0)
(0.0420548 1.47936e-05 0)
(0.0475169 9.60216e-06 0)
(0.0474784 -3.38903e-06 0)
(0.0474053 -2.50218e-06 0)
(0.0474287 -4.18073e-06 0)
(0.0735405 7.08685e-06 0)
(0.0738167 -1.76639e-06 0)
(0.0735068 4.20018e-07 0)
(0.073722 -4.52886e-06 0)
(0.0981118 2.27617e-06 0)
(0.09831 -4.54121e-06 0)
(0.0980207 -5.93984e-06 0)
(0.0982154 -9.25398e-06 0)
(0.119501 5.094e-06 0)
(0.119634 -1.1384e-06 0)
(0.119389 3.55508e-06 0)
(0.119554 -6.2448e-06 0)
(0.138 -3.75162e-06 0)
(0.138105 1.72583e-06 0)
(0.137903 -1.83171e-06 0)
(0.13803 -9.20302e-06 0)
(0.153923 3.51365e-06 0)
(0.154 -3.01645e-06 0)
(0.153836 1.92393e-06 0)
(0.153933 -9.86084e-06 0)
(0.167524 -6.53083e-06 0)
(0.167598 3.86078e-06 0)
(0.16747 4.56825e-07 0)
(0.167532 -8.94323e-06 0)
(0.179101 1.30266e-06 0)
(0.179158 -1.12455e-06 0)
(0.179056 3.40105e-06 0)
(0.179103 -1.07874e-05 0)
(0.188874 -7.13147e-06 0)
(0.188929 3.89595e-06 0)
(0.18885 1.41338e-06 0)
(0.188882 -9.03498e-06 0)
(0.197088 -2.04859e-06 0)
(0.197132 -2.84082e-07 0)
(0.19708 3.90064e-06 0)
(0.197109 -1.14258e-05 0)
(0.203944 -6.8058e-06 0)
(0.203984 3.16725e-06 0)
(0.203957 2.26951e-06 0)
(0.203976 -9.28194e-06 0)
(0.209645 -4.34105e-06 0)
(0.209657 8.98719e-07 0)
(0.20966 4.25076e-06 0)
(0.209684 -8.94597e-06 0)
(0.214343 -6.78409e-06 0)
(0.214336 2.55416e-06 0)
(0.214364 1.86109e-06 0)
(0.214389 -1.00747e-05 0)
(0.218201 -5.27614e-06 0)
(0.218166 1.08275e-06 0)
(0.218218 3.39292e-06 0)
(0.218249 -6.22833e-06 0)
(0.221339 -6.20595e-06 0)
(0.221285 2.70689e-06 0)
(0.221357 1.13533e-06 0)
(0.221387 -7.92931e-06 0)
(0.22389 -5.08263e-06 0)
(0.223802 -2.50082e-07 0)
(0.223896 5.34135e-07 0)
(0.223933 -7.53347e-06 0)
(0.225949 -4.7955e-06 0)
(0.22583 1.50475e-06 0)
(0.225941 6.33263e-08 0)
(0.225982 -3.9912e-06 0)
(0.227598 -3.03985e-06 0)
(0.227453 1.41636e-06 0)
(0.227579 -1.74131e-06 0)
(0.227623 -5.36e-06 0)
(0.228912 -2.74581e-06 0)
(0.228744 7.61607e-07 0)
(0.228883 -3.05838e-06 0)
(0.228929 -3.47727e-06 0)
(0.229951 -7.64512e-07 0)
(0.229765 3.21735e-06 0)
(0.229914 -4.12021e-06 0)
(0.229961 -8.7449e-07 0)
(0.230767 7.52206e-08 0)
(0.230566 1.66545e-06 0)
(0.230723 -6.54762e-06 0)
(0.230772 -3.02015e-06 0)
(0.231403 1.37676e-06 0)
(0.231192 3.3636e-06 0)
(0.231353 -7.79863e-06 0)
(0.231401 5.33746e-07 0)
(0.231895 2.98732e-06 0)
(0.231677 2.99256e-06 0)
(0.231839 -9.51025e-06 0)
(0.231887 -8.54588e-07 0)
(0.232271 3.73198e-06 0)
(0.23205 4.03011e-06 0)
(0.232209 -1.14921e-05 0)
(0.232255 9.84394e-07 0)
(0.232554 5.69772e-06 0)
(0.232334 4.5384e-06 0)
(0.232487 -1.27318e-05 0)
(0.232533 3.98204e-07 0)
(0.232762 6.55878e-06 0)
(0.232545 5.28983e-06 0)
(0.232691 -1.47939e-05 0)
(0.232733 1.22708e-06 0)
(0.232909 7.28092e-06 0)
(0.232702 5.18434e-06 0)
(0.232836 -1.59762e-05 0)
(0.232877 4.37154e-07 0)
(0.233007 9.34519e-06 0)
(0.23281 7.26301e-06 0)
(0.232933 -1.71607e-05 0)
(0.232966 1.13857e-06 0)
(0.233061 9.44018e-06 0)
(0.232883 6.24903e-06 0)
(0.232991 -1.8684e-05 0)
(0.233017 2.81362e-07 0)
(0.233079 1.0459e-05 0)
(0.232919 8.18426e-06 0)
(0.233011 -1.93167e-05 0)
(0.233023 7.73358e-07 0)
(0.233059 1.20452e-05 0)
(0.232929 9.09211e-06 0)
(0.233002 -2.02425e-05 0)
(0.233005 8.09977e-07 0)
(0.233003 1.10727e-05 0)
(0.232901 8.18969e-06 0)
(0.232958 -2.13355e-05 0)
(0.232934 3.60396e-07 0)
(0.232907 1.23128e-05 0)
(0.232848 1.01011e-05 0)
(0.232886 -2.05508e-05 0)
(0.232839 7.30634e-07 0)
(0.23276 1.16862e-05 0)
(0.232739 9.26022e-06 0)
(0.232761 -2.10173e-05 0)
(0.232682 2.73941e-07 0)
(0.232563 1.16008e-05 0)
(0.232589 9.21528e-06 0)
(0.232595 -1.97456e-05 0)
(0.23249 3.01096e-07 0)
(0.232303 1.08917e-05 0)
(0.232358 9.55258e-06 0)
(0.232356 -1.88839e-05 0)
(0.232233 3.60902e-07 0)
(0.231967 1.06044e-05 0)
(0.232048 8.55402e-06 0)
(0.232041 -1.78907e-05 0)
(0.231906 1.98691e-07 0)
(0.231525 9.58009e-06 0)
(0.231627 8.2799e-06 0)
(0.231622 -1.64957e-05 0)
(0.231479 2.28447e-07 0)
(0.230968 9.24949e-06 0)
(0.231083 7.26975e-06 0)
(0.231079 -1.54125e-05 0)
(0.230933 8.13207e-08 0)
(0.230256 8.56709e-06 0)
(0.230381 6.53946e-06 0)
(0.230377 -1.39469e-05 0)
(0.230228 4.99331e-08 0)
(0.229354 8.38828e-06 0)
(0.229478 5.512e-06 0)
(0.229475 -1.28447e-05 0)
(0.229329 -6.94256e-08 0)
(0.228205 8.08498e-06 0)
(0.22833 4.70164e-06 0)
(0.228325 -1.14322e-05 0)
(0.228182 -1.57246e-07 0)
(0.226756 8.01192e-06 0)
(0.226867 3.65362e-06 0)
(0.226864 -1.04518e-05 0)
(0.226734 -3.74863e-07 0)
(0.224926 8.11984e-06 0)
(0.225034 2.89879e-06 0)
(0.225029 -9.14414e-06 0)
(0.224906 -2.79394e-07 0)
(0.222642 8.00391e-06 0)
(0.222735 2.17641e-06 0)
(0.222731 -8.24064e-06 0)
(0.22262 -5.51723e-07 0)
(0.219789 7.89889e-06 0)
(0.219881 1.65479e-06 0)
(0.219874 -7.28431e-06 0)
(0.219771 -5.57818e-07 0)
(0.216268 7.95188e-06 0)
(0.21634 1.12394e-06 0)
(0.216335 -6.32623e-06 0)
(0.216248 -5.98974e-07 0)
(0.211925 7.55771e-06 0)
(0.211996 7.73123e-07 0)
(0.211986 -5.76605e-06 0)
(0.211909 -7.38178e-07 0)
(0.206622 7.54433e-06 0)
(0.206678 3.15169e-07 0)
(0.206668 -4.96245e-06 0)
(0.206607 -6.91751e-07 0)
(0.200166 7.22252e-06 0)
(0.200223 3.0648e-08 0)
(0.200206 -4.49104e-06 0)
(0.200156 -5.52163e-07 0)
(0.192369 6.71987e-06 0)
(0.192424 -1.98945e-07 0)
(0.1924 -3.86034e-06 0)
(0.192362 -5.172e-07 0)
(0.183005 6.04175e-06 0)
(0.183066 -2.69373e-07 0)
(0.183029 -3.42341e-06 0)
(0.183003 -3.84101e-07 0)
(0.171837 5.19179e-06 0)
(0.171899 -3.93274e-07 0)
(0.171854 -2.797e-06 0)
(0.171833 -2.91428e-07 0)
(0.158596 4.25247e-06 0)
(0.158659 -3.91227e-07 0)
(0.15861 -2.32977e-06 0)
(0.158595 -2.07778e-07 0)
(0.142999 3.30928e-06 0)
(0.143057 -4.18023e-07 0)
(0.143008 -1.73256e-06 0)
(0.142996 -1.30786e-07 0)
(0.124737 2.41656e-06 0)
(0.124789 -3.55679e-07 0)
(0.124741 -1.29711e-06 0)
(0.124733 -8.7416e-08 0)
(0.103485 1.59782e-06 0)
(0.103529 -2.98888e-07 0)
(0.103487 -8.13885e-07 0)
(0.103481 -5.06145e-08 0)
(0.0789016 9.22537e-07 0)
(0.0789364 -2.15334e-07 0)
(0.0789031 -4.79717e-07 0)
(0.0788982 -2.52866e-08 0)
(0.0506348 3.86723e-07 0)
(0.0506576 -1.35485e-07 0)
(0.0506348 -1.92454e-07 0)
(0.0506309 2.95878e-10 0)
(0.018321 6.38017e-08 0)
(0.0183293 -3.32656e-08 0)
(0.0183193 -2.63342e-08 0)
(0.0183176 2.17221e-09 0)
(0.0474271 4.55117e-06 0)
(0.047477 -6.98474e-06 0)
(0.0474535 -8.54934e-06 0)
(0.0474544 1.20646e-05 0)
(0.0736885 3.79473e-06 0)
(0.0736462 -7.35258e-06 0)
(0.0736928 -7.66224e-06 0)
(0.0733562 7.86678e-06 0)
(0.0981677 5.8259e-06 0)
(0.0981165 -6.66828e-06 0)
(0.0981925 -5.42975e-06 0)
(0.0979965 2.03413e-05 0)
(0.119498 6.22913e-06 0)
(0.119453 -9.38044e-06 0)
(0.119536 -4.25036e-06 0)
(0.119404 9.00969e-06 0)
(0.137977 5.91023e-06 0)
(0.137946 -5.11866e-06 0)
(0.13803 -4.98845e-06 0)
(0.137944 1.61213e-05 0)
(0.153888 9.08129e-06 0)
(0.153869 -1.17278e-05 0)
(0.153937 -3.33875e-06 0)
(0.153863 1.39717e-05 0)
(0.167497 6.32031e-06 0)
(0.167497 -5.96704e-06 0)
(0.167555 -4.88102e-06 0)
(0.16748 1.48203e-05 0)
(0.179073 9.64318e-06 0)
(0.179084 -1.16254e-05 0)
(0.179128 -3.10867e-06 0)
(0.179054 1.34e-05 0)
(0.188854 6.81014e-06 0)
(0.188876 -8.29644e-06 0)
(0.188913 -3.86595e-06 0)
(0.188836 1.61398e-05 0)
(0.197067 9.31416e-06 0)
(0.197094 -1.14547e-05 0)
(0.19713 -2.54422e-06 0)
(0.197052 1.32355e-05 0)
(0.203917 7.35063e-06 0)
(0.203956 -1.03745e-05 0)
(0.203996 -2.08091e-06 0)
(0.203916 1.70833e-05 0)
(0.209593 1.01357e-05 0)
(0.20964 -1.16137e-05 0)
(0.209684 -2.40295e-06 0)
(0.209613 1.44298e-05 0)
(0.214274 7.16535e-06 0)
(0.214331 -1.34708e-05 0)
(0.214381 -2.4308e-06 0)
(0.214318 1.6307e-05 0)
(0.218112 1.14684e-05 0)
(0.21817 -1.25029e-05 0)
(0.218221 -1.75369e-06 0)
(0.218176 1.62119e-05 0)
(0.221239 8.94752e-06 0)
(0.221301 -1.56055e-05 0)
(0.221357 -2.96486e-06 0)
(0.221327 1.56439e-05 0)
(0.223774 1.03971e-05 0)
(0.22383 -1.52516e-05 0)
(0.223881 -9.21611e-07 0)
(0.223882 1.56478e-05 0)
(0.225816 1.35672e-05 0)
(0.225869 -1.55603e-05 0)
(0.225908 -1.59045e-06 0)
(0.225941 1.6645e-05 0)
(0.227454 1.08214e-05 0)
(0.227495 -1.78837e-05 0)
(0.227518 -2.8587e-06 0)
(0.227584 1.4393e-05 0)
(0.228759 1.57019e-05 0)
(0.228793 -1.64898e-05 0)
(0.228797 -2.98641e-06 0)
(0.228892 1.43696e-05 0)
(0.229799 1.40572e-05 0)
(0.229823 -1.84713e-05 0)
(0.229801 -4.92124e-06 0)
(0.229922 1.37926e-05 0)
(0.230615 1.67484e-05 0)
(0.23063 -1.70232e-05 0)
(0.230584 -5.34567e-06 0)
(0.230727 1.05131e-05 0)
(0.231264 1.67449e-05 0)
(0.23127 -1.79062e-05 0)
(0.231192 -5.86197e-06 0)
(0.231354 1.0862e-05 0)
(0.231766 1.91282e-05 0)
(0.231764 -1.55583e-05 0)
(0.231665 -6.44529e-06 0)
(0.23184 7.54213e-06 0)
(0.232163 1.86941e-05 0)
(0.232161 -1.6423e-05 0)
(0.232031 -7.07077e-06 0)
(0.232211 6.52569e-06 0)
(0.232454 2.07255e-05 0)
(0.232445 -1.33328e-05 0)
(0.232306 -7.18547e-06 0)
(0.232492 3.83627e-06 0)
(0.232678 2.02674e-05 0)
(0.232673 -1.40567e-05 0)
(0.232516 -7.64022e-06 0)
(0.232699 2.79089e-06 0)
(0.232832 2.11447e-05 0)
(0.232817 -1.09374e-05 0)
(0.232664 -8.49462e-06 0)
(0.232847 -1.45613e-06 0)
(0.232943 2.18918e-05 0)
(0.232937 -1.04005e-05 0)
(0.232773 -6.32591e-06 0)
(0.232946 -7.19487e-07 0)
(0.232996 2.13329e-05 0)
(0.232981 -8.84946e-06 0)
(0.232835 -9.16264e-06 0)
(0.233003 -5.22588e-06 0)
(0.233023 2.21801e-05 0)
(0.233019 -6.99451e-06 0)
(0.232869 -6.83426e-06 0)
(0.233025 -5.6138e-06 0)
(0.233011 2.24388e-05 0)
(0.232993 -6.22262e-06 0)
(0.232862 -8.04555e-06 0)
(0.233009 -6.07711e-06 0)
(0.232964 2.09634e-05 0)
(0.232962 -5.49759e-06 0)
(0.23283 -1.00926e-05 0)
(0.23296 -1.01363e-05 0)
(0.232887 2.24565e-05 0)
(0.232876 -3.49872e-06 0)
(0.232753 -7.10838e-06 0)
(0.232869 -8.84887e-06 0)
(0.232765 2.0312e-05 0)
(0.232769 -3.13726e-06 0)
(0.23264 -9.61583e-06 0)
(0.232735 -1.20991e-05 0)
(0.232596 2.05306e-05 0)
(0.2326 -1.72599e-06 0)
(0.232472 -7.16832e-06 0)
(0.232546 -1.19332e-05 0)
(0.23236 1.90959e-05 0)
(0.232373 -3.90317e-07 0)
(0.232247 -7.25687e-06 0)
(0.232302 -1.28304e-05 0)
(0.232044 1.79154e-05 0)
(0.232058 -1.43476e-08 0)
(0.231943 -6.67061e-06 0)
(0.231981 -1.28654e-05 0)
(0.231628 1.65334e-05 0)
(0.231647 1.11436e-06 0)
(0.231543 -6.01348e-06 0)
(0.231565 -1.30312e-05 0)
(0.231085 1.50638e-05 0)
(0.231106 1.52473e-06 0)
(0.231021 -5.33908e-06 0)
(0.231032 -1.25152e-05 0)
(0.230384 1.36272e-05 0)
(0.230407 2.14222e-06 0)
(0.230343 -4.83132e-06 0)
(0.230346 -1.19912e-05 0)
(0.229484 1.20087e-05 0)
(0.229508 2.24182e-06 0)
(0.229465 -4.42232e-06 0)
(0.229465 -1.09912e-05 0)
(0.228334 1.06491e-05 0)
(0.228359 2.5407e-06 0)
(0.228329 -4.01742e-06 0)
(0.228323 -9.9769e-06 0)
(0.22688 9.04806e-06 0)
(0.226907 2.31068e-06 0)
(0.226887 -3.86906e-06 0)
(0.226881 -8.98842e-06 0)
(0.22504 7.896e-06 0)
(0.225069 2.4697e-06 0)
(0.225051 -3.55263e-06 0)
(0.225039 -7.49597e-06 0)
(0.222746 6.28851e-06 0)
(0.222774 2.29719e-06 0)
(0.222756 -3.45529e-06 0)
(0.222747 -6.64433e-06 0)
(0.219875 5.02538e-06 0)
(0.219902 2.0962e-06 0)
(0.219898 -3.40379e-06 0)
(0.219884 -5.55358e-06 0)
(0.216341 4.01652e-06 0)
(0.216368 2.11144e-06 0)
(0.216356 -3.19328e-06 0)
(0.216346 -4.48436e-06 0)
(0.211979 2.8388e-06 0)
(0.212003 1.77365e-06 0)
(0.212006 -3.19517e-06 0)
(0.21199 -4.02925e-06 0)
(0.206666 2.38006e-06 0)
(0.206691 1.73801e-06 0)
(0.206683 -2.91087e-06 0)
(0.206665 -3.18561e-06 0)
(0.20019 1.6843e-06 0)
(0.200214 1.5009e-06 0)
(0.200221 -2.78437e-06 0)
(0.200192 -2.68417e-06 0)
(0.192387 1.28142e-06 0)
(0.192413 1.35167e-06 0)
(0.19241 -2.52895e-06 0)
(0.192368 -2.1989e-06 0)
(0.183013 8.73675e-07 0)
(0.183032 1.07766e-06 0)
(0.183043 -2.20584e-06 0)
(0.182989 -1.8021e-06 0)
(0.171842 6.73776e-07 0)
(0.171863 9.3349e-07 0)
(0.171868 -1.78903e-06 0)
(0.171806 -1.42232e-06 0)
(0.158597 4.13645e-07 0)
(0.158612 6.66793e-07 0)
(0.158624 -1.37287e-06 0)
(0.158561 -1.12687e-06 0)
(0.142998 2.97673e-07 0)
(0.143013 5.2048e-07 0)
(0.143021 -9.52749e-07 0)
(0.142961 -8.13922e-07 0)
(0.124734 1.47081e-07 0)
(0.124742 3.21556e-07 0)
(0.124754 -6.06133e-07 0)
(0.124702 -5.93759e-07 0)
(0.103481 9.20678e-08 0)
(0.103487 2.16669e-07 0)
(0.103496 -3.20879e-07 0)
(0.103454 -3.81209e-07 0)
(0.0788972 4.28103e-08 0)
(0.078899 1.11707e-07 0)
(0.0789095 -1.33427e-07 0)
(0.0788781 -2.47111e-07 0)
(0.0506305 3.82709e-08 0)
(0.0506317 3.67599e-08 0)
(0.0506395 -3.7755e-08 0)
(0.0506196 -8.01169e-08 0)
(0.0183179 5.18312e-09 0)
(0.0183185 2.12186e-08 0)
(0.018322 1.36686e-08 0)
(0.018315 -5.34786e-08 0)
)
;

boundaryField
{
    topWall
    {
        type            calculated;
        value           uniform (0 0 0);
    }
    botWall
    {
        type            calculated;
        value           uniform (0 0 0);
    }
    inlet
    {
        type            cyclic;
    }
    outlet
    {
        type            cyclic;
    }
    fixWall
    {
        type            empty;
    }
}


// ************************************************************************* //
