/*--------------------------------*- C++ -*----------------------------------*\
  =========                 |
  \\      /  F ield         | OpenFOAM: The Open Source CFD Toolbox
   \\    /   O peration     | Website:  https://openfoam.org
    \\  /    A nd           | Version:  dev
     \\/     M anipulation  |

   OpenFOAM for Windows 20.09 (v1)
   Built by CFD Support, www.cfdsupport.com (based on Symscape).
\*---------------------------------------------------------------------------*/
FoamFile
{
    version     2.0;
    format      ascii;
    class       volScalarField;
    location    "80";
    object      epsilon;
}
// * * * * * * * * * * * * * * * * * * * * * * * * * * * * * * * * * * * * * //

dimensions      [0 2 -3 0 0 0 0];

internalField   nonuniform List<scalar> 
1600
(
2.42814e-05
2.42814e-05
2.42814e-05
2.42815e-05
2.42816e-05
2.42817e-05
2.42817e-05
2.42818e-05
2.42819e-05
2.42819e-05
2.4282e-05
2.4282e-05
2.42821e-05
2.42821e-05
2.42821e-05
2.42822e-05
2.42822e-05
2.42822e-05
2.42822e-05
2.42821e-05
2.42819e-05
2.42817e-05
2.42817e-05
2.42816e-05
2.42816e-05
2.42817e-05
2.42817e-05
2.42817e-05
2.42817e-05
2.42817e-05
2.42817e-05
2.42817e-05
2.42817e-05
2.42817e-05
2.42817e-05
2.42816e-05
2.42814e-05
2.42813e-05
2.42813e-05
2.42814e-05
1.78382e-05
1.78382e-05
1.78382e-05
1.78383e-05
1.78383e-05
1.78383e-05
1.78384e-05
1.78384e-05
1.78384e-05
1.78384e-05
1.78385e-05
1.78385e-05
1.78385e-05
1.78385e-05
1.78385e-05
1.78385e-05
1.78386e-05
1.78386e-05
1.78386e-05
1.78385e-05
1.78385e-05
1.78384e-05
1.78384e-05
1.78384e-05
1.78384e-05
1.78384e-05
1.78384e-05
1.78384e-05
1.78384e-05
1.78384e-05
1.78384e-05
1.78384e-05
1.78384e-05
1.78384e-05
1.78384e-05
1.78383e-05
1.78383e-05
1.78382e-05
1.78382e-05
1.78383e-05
1.34163e-05
1.34164e-05
1.34164e-05
1.34164e-05
1.34164e-05
1.34164e-05
1.34165e-05
1.34165e-05
1.34165e-05
1.34165e-05
1.34165e-05
1.34165e-05
1.34165e-05
1.34166e-05
1.34166e-05
1.34166e-05
1.34166e-05
1.34166e-05
1.34166e-05
1.34166e-05
1.34165e-05
1.34165e-05
1.34165e-05
1.34165e-05
1.34165e-05
1.34165e-05
1.34165e-05
1.34165e-05
1.34165e-05
1.34165e-05
1.34165e-05
1.34165e-05
1.34165e-05
1.34165e-05
1.34165e-05
1.34164e-05
1.34164e-05
1.34164e-05
1.34164e-05
1.34164e-05
1.0915e-05
1.0915e-05
1.0915e-05
1.0915e-05
1.0915e-05
1.0915e-05
1.0915e-05
1.0915e-05
1.0915e-05
1.0915e-05
1.0915e-05
1.0915e-05
1.0915e-05
1.0915e-05
1.0915e-05
1.09151e-05
1.09151e-05
1.09151e-05
1.09151e-05
1.09151e-05
1.0915e-05
1.0915e-05
1.0915e-05
1.0915e-05
1.0915e-05
1.0915e-05
1.0915e-05
1.0915e-05
1.0915e-05
1.0915e-05
1.0915e-05
1.0915e-05
1.0915e-05
1.0915e-05
1.0915e-05
1.0915e-05
1.09149e-05
1.09149e-05
1.09149e-05
1.09149e-05
9.39888e-06
9.39886e-06
9.39887e-06
9.39888e-06
9.39888e-06
9.39889e-06
9.39889e-06
9.3989e-06
9.3989e-06
9.3989e-06
9.39891e-06
9.39891e-06
9.39892e-06
9.39892e-06
9.39893e-06
9.39894e-06
9.39894e-06
9.39895e-06
9.39895e-06
9.39895e-06
9.39893e-06
9.39891e-06
9.3989e-06
9.3989e-06
9.3989e-06
9.3989e-06
9.3989e-06
9.3989e-06
9.3989e-06
9.3989e-06
9.3989e-06
9.3989e-06
9.3989e-06
9.3989e-06
9.3989e-06
9.39889e-06
9.39887e-06
9.39885e-06
9.39885e-06
9.39888e-06
8.42873e-06
8.42878e-06
8.42884e-06
8.42887e-06
8.42888e-06
8.42889e-06
8.42889e-06
8.4289e-06
8.4289e-06
8.4289e-06
8.42891e-06
8.42891e-06
8.42891e-06
8.42892e-06
8.42892e-06
8.42893e-06
8.42893e-06
8.42894e-06
8.42894e-06
8.42894e-06
8.42893e-06
8.42892e-06
8.42892e-06
8.42892e-06
8.42892e-06
8.42892e-06
8.42892e-06
8.42892e-06
8.42892e-06
8.42892e-06
8.42892e-06
8.42892e-06
8.42892e-06
8.42893e-06
8.42893e-06
8.42892e-06
8.42891e-06
8.42889e-06
8.4289e-06
8.42886e-06
7.78556e-06
7.78563e-06
7.78571e-06
7.78575e-06
7.78576e-06
7.78577e-06
7.78578e-06
7.78578e-06
7.78579e-06
7.78579e-06
7.78579e-06
7.78579e-06
7.7858e-06
7.7858e-06
7.7858e-06
7.78581e-06
7.78581e-06
7.78581e-06
7.78582e-06
7.78582e-06
7.78582e-06
7.78582e-06
7.78582e-06
7.78582e-06
7.78582e-06
7.78582e-06
7.78582e-06
7.78582e-06
7.78582e-06
7.78582e-06
7.78582e-06
7.78582e-06
7.78583e-06
7.78583e-06
7.78584e-06
7.78583e-06
7.78582e-06
7.78582e-06
7.78582e-06
7.78576e-06
7.35064e-06
7.35072e-06
7.3508e-06
7.35084e-06
7.35085e-06
7.35087e-06
7.35087e-06
7.35088e-06
7.35088e-06
7.35089e-06
7.35089e-06
7.35089e-06
7.35089e-06
7.35089e-06
7.3509e-06
7.3509e-06
7.3509e-06
7.35091e-06
7.35091e-06
7.35091e-06
7.35092e-06
7.35092e-06
7.35093e-06
7.35092e-06
7.35092e-06
7.35092e-06
7.35093e-06
7.35092e-06
7.35093e-06
7.35093e-06
7.35093e-06
7.35093e-06
7.35094e-06
7.35094e-06
7.35095e-06
7.35094e-06
7.35094e-06
7.35094e-06
7.35094e-06
7.35087e-06
7.0549e-06
7.05499e-06
7.05507e-06
7.05511e-06
7.05512e-06
7.05514e-06
7.05515e-06
7.05516e-06
7.05516e-06
7.05516e-06
7.05516e-06
7.05517e-06
7.05517e-06
7.05517e-06
7.05518e-06
7.05518e-06
7.05518e-06
7.05519e-06
7.05519e-06
7.0552e-06
7.05521e-06
7.0552e-06
7.0552e-06
7.05519e-06
7.0552e-06
7.0552e-06
7.05519e-06
7.0552e-06
7.0552e-06
7.0552e-06
7.0552e-06
7.05521e-06
7.05522e-06
7.05522e-06
7.05522e-06
7.05523e-06
7.05522e-06
7.05523e-06
7.05522e-06
7.05514e-06
6.85559e-06
6.85569e-06
6.85578e-06
6.85582e-06
6.85585e-06
6.85586e-06
6.85588e-06
6.85589e-06
6.85589e-06
6.8559e-06
6.8559e-06
6.8559e-06
6.85591e-06
6.85591e-06
6.85591e-06
6.85591e-06
6.85592e-06
6.85593e-06
6.85594e-06
6.85594e-06
6.85594e-06
6.85594e-06
6.85593e-06
6.85593e-06
6.85592e-06
6.8559e-06
6.8559e-06
6.85591e-06
6.85591e-06
6.85591e-06
6.85591e-06
6.85592e-06
6.85592e-06
6.85593e-06
6.85594e-06
6.85593e-06
6.85593e-06
6.85593e-06
6.85593e-06
6.85585e-06
6.7248e-06
6.72491e-06
6.72501e-06
6.72507e-06
6.7251e-06
6.72512e-06
6.72514e-06
6.72515e-06
6.72516e-06
6.72516e-06
6.72516e-06
6.72517e-06
6.72517e-06
6.72517e-06
6.72518e-06
6.72519e-06
6.72519e-06
6.7252e-06
6.7252e-06
6.7252e-06
6.7252e-06
6.7252e-06
6.7252e-06
6.72518e-06
6.72513e-06
6.72511e-06
6.72511e-06
6.72512e-06
6.72512e-06
6.72512e-06
6.72513e-06
6.72513e-06
6.72514e-06
6.72515e-06
6.72515e-06
6.72515e-06
6.72514e-06
6.72514e-06
6.72514e-06
6.72506e-06
6.64337e-06
6.6435e-06
6.64362e-06
6.64369e-06
6.64373e-06
6.64375e-06
6.64377e-06
6.64378e-06
6.64379e-06
6.64379e-06
6.64379e-06
6.6438e-06
6.6438e-06
6.64381e-06
6.64381e-06
6.64381e-06
6.64382e-06
6.64382e-06
6.64382e-06
6.64382e-06
6.64383e-06
6.64383e-06
6.6438e-06
6.64374e-06
6.64369e-06
6.64367e-06
6.64366e-06
6.64368e-06
6.64368e-06
6.64368e-06
6.64368e-06
6.64369e-06
6.64369e-06
6.64369e-06
6.6437e-06
6.64369e-06
6.64369e-06
6.6437e-06
6.6437e-06
6.64362e-06
6.59758e-06
6.59777e-06
6.59789e-06
6.59795e-06
6.59797e-06
6.59799e-06
6.598e-06
6.59801e-06
6.59802e-06
6.59802e-06
6.59802e-06
6.59803e-06
6.59803e-06
6.59804e-06
6.59803e-06
6.59803e-06
6.59803e-06
6.59804e-06
6.59804e-06
6.59804e-06
6.59804e-06
6.59802e-06
6.59796e-06
6.59789e-06
6.59784e-06
6.59781e-06
6.59781e-06
6.59781e-06
6.59781e-06
6.59781e-06
6.59782e-06
6.59782e-06
6.59782e-06
6.59783e-06
6.59782e-06
6.59782e-06
6.59783e-06
6.59784e-06
6.59784e-06
6.59775e-06
6.57744e-06
6.57747e-06
6.57752e-06
6.57753e-06
6.57753e-06
6.57752e-06
6.57754e-06
6.57754e-06
6.57754e-06
6.57754e-06
6.57754e-06
6.57754e-06
6.57755e-06
6.57754e-06
6.57754e-06
6.57753e-06
6.57754e-06
6.57754e-06
6.57754e-06
6.57753e-06
6.57753e-06
6.57747e-06
6.5774e-06
6.57734e-06
6.57729e-06
6.57725e-06
6.57723e-06
6.57723e-06
6.57723e-06
6.57723e-06
6.57724e-06
6.57724e-06
6.57724e-06
6.57725e-06
6.57725e-06
6.57725e-06
6.57726e-06
6.57727e-06
6.57726e-06
6.57729e-06
6.57423e-06
6.57432e-06
6.57435e-06
6.57435e-06
6.57433e-06
6.57433e-06
6.57433e-06
6.57433e-06
6.57433e-06
6.57432e-06
6.57433e-06
6.57433e-06
6.57432e-06
6.57432e-06
6.57432e-06
6.57432e-06
6.57432e-06
6.57432e-06
6.57432e-06
6.57431e-06
6.57427e-06
6.5742e-06
6.57414e-06
6.57408e-06
6.57403e-06
6.57399e-06
6.57397e-06
6.57396e-06
6.57395e-06
6.57395e-06
6.57395e-06
6.57396e-06
6.57396e-06
6.57397e-06
6.57397e-06
6.57398e-06
6.57399e-06
6.57399e-06
6.57398e-06
6.57402e-06
6.58185e-06
6.58193e-06
6.58198e-06
6.58198e-06
6.58198e-06
6.58197e-06
6.58198e-06
6.58197e-06
6.58198e-06
6.58198e-06
6.58198e-06
6.58197e-06
6.58197e-06
6.58198e-06
6.58198e-06
6.58197e-06
6.58197e-06
6.58197e-06
6.58197e-06
6.58196e-06
6.58189e-06
6.58183e-06
6.58178e-06
6.58173e-06
6.58168e-06
6.58165e-06
6.58161e-06
6.58159e-06
6.58158e-06
6.58157e-06
6.58157e-06
6.58158e-06
6.58158e-06
6.58159e-06
6.5816e-06
6.5816e-06
6.5816e-06
6.5816e-06
6.5816e-06
6.58164e-06
6.5951e-06
6.59517e-06
6.59522e-06
6.59523e-06
6.59523e-06
6.59523e-06
6.59524e-06
6.59524e-06
6.59524e-06
6.59525e-06
6.59525e-06
6.59525e-06
6.59525e-06
6.59525e-06
6.59525e-06
6.59525e-06
6.59525e-06
6.59525e-06
6.59525e-06
6.59521e-06
6.59516e-06
6.59511e-06
6.59506e-06
6.59502e-06
6.59499e-06
6.59495e-06
6.59492e-06
6.59489e-06
6.59486e-06
6.59485e-06
6.59484e-06
6.59485e-06
6.59486e-06
6.59486e-06
6.59487e-06
6.59486e-06
6.59487e-06
6.59487e-06
6.59487e-06
6.5949e-06
6.60964e-06
6.60971e-06
6.60975e-06
6.60977e-06
6.60977e-06
6.60977e-06
6.60978e-06
6.60978e-06
6.60978e-06
6.60979e-06
6.60979e-06
6.60979e-06
6.60979e-06
6.60979e-06
6.60979e-06
6.60979e-06
6.60979e-06
6.6098e-06
6.60979e-06
6.60975e-06
6.60972e-06
6.60968e-06
6.60964e-06
6.60961e-06
6.60958e-06
6.60955e-06
6.60951e-06
6.60948e-06
6.60945e-06
6.60942e-06
6.60941e-06
6.60941e-06
6.60942e-06
6.60942e-06
6.60942e-06
6.60943e-06
6.60943e-06
6.60943e-06
6.60943e-06
6.60946e-06
6.6219e-06
6.62194e-06
6.62198e-06
6.62199e-06
6.622e-06
6.622e-06
6.622e-06
6.62201e-06
6.62201e-06
6.62201e-06
6.62202e-06
6.62202e-06
6.62202e-06
6.62202e-06
6.62202e-06
6.62202e-06
6.62203e-06
6.62203e-06
6.62202e-06
6.622e-06
6.62198e-06
6.62195e-06
6.62193e-06
6.6219e-06
6.62187e-06
6.62184e-06
6.62181e-06
6.62177e-06
6.62174e-06
6.6217e-06
6.62168e-06
6.62168e-06
6.62169e-06
6.62169e-06
6.62169e-06
6.62169e-06
6.62169e-06
6.6217e-06
6.6217e-06
6.62173e-06
6.62896e-06
6.62897e-06
6.62904e-06
6.62906e-06
6.62907e-06
6.62908e-06
6.62909e-06
6.6291e-06
6.6291e-06
6.62911e-06
6.62912e-06
6.62912e-06
6.62912e-06
6.62912e-06
6.62912e-06
6.62912e-06
6.62912e-06
6.62912e-06
6.62913e-06
6.62912e-06
6.62911e-06
6.62909e-06
6.62907e-06
6.62905e-06
6.62903e-06
6.62899e-06
6.62896e-06
6.62892e-06
6.62888e-06
6.62884e-06
6.62881e-06
6.62881e-06
6.62881e-06
6.62881e-06
6.62882e-06
6.62882e-06
6.62882e-06
6.62883e-06
6.62883e-06
6.62885e-06
6.62869e-06
6.62888e-06
6.62898e-06
6.62903e-06
6.62906e-06
6.62907e-06
6.62909e-06
6.6291e-06
6.62911e-06
6.62912e-06
6.62912e-06
6.62912e-06
6.62912e-06
6.62912e-06
6.62913e-06
6.62913e-06
6.62913e-06
6.62913e-06
6.62914e-06
6.62914e-06
6.62913e-06
6.62913e-06
6.62911e-06
6.62909e-06
6.62906e-06
6.62903e-06
6.62899e-06
6.62894e-06
6.6289e-06
6.62885e-06
6.62882e-06
6.62882e-06
6.62883e-06
6.62883e-06
6.62883e-06
6.62884e-06
6.62884e-06
6.62884e-06
6.62885e-06
6.6288e-06
6.62191e-06
6.62194e-06
6.62197e-06
6.62198e-06
6.62199e-06
6.62199e-06
6.622e-06
6.62201e-06
6.62202e-06
6.62203e-06
6.62203e-06
6.62203e-06
6.62204e-06
6.62204e-06
6.62204e-06
6.62204e-06
6.62204e-06
6.62205e-06
6.62205e-06
6.62206e-06
6.62206e-06
6.62205e-06
6.62204e-06
6.62201e-06
6.62197e-06
6.62193e-06
6.62189e-06
6.62184e-06
6.62178e-06
6.62174e-06
6.62171e-06
6.62172e-06
6.62172e-06
6.62172e-06
6.62172e-06
6.62173e-06
6.62173e-06
6.62174e-06
6.62174e-06
6.62176e-06
6.60973e-06
6.60977e-06
6.60979e-06
6.60979e-06
6.60979e-06
6.60979e-06
6.6098e-06
6.6098e-06
6.6098e-06
6.60981e-06
6.60982e-06
6.60982e-06
6.60981e-06
6.60982e-06
6.60982e-06
6.60982e-06
6.60982e-06
6.60983e-06
6.60983e-06
6.60984e-06
6.60984e-06
6.60984e-06
6.60981e-06
6.60977e-06
6.60972e-06
6.60967e-06
6.60962e-06
6.60957e-06
6.60951e-06
6.60947e-06
6.60946e-06
6.60947e-06
6.60946e-06
6.60947e-06
6.60947e-06
6.60947e-06
6.60948e-06
6.60949e-06
6.60948e-06
6.60951e-06
6.59518e-06
6.59524e-06
6.59527e-06
6.59527e-06
6.59527e-06
6.59527e-06
6.59527e-06
6.59527e-06
6.59528e-06
6.59529e-06
6.59529e-06
6.59528e-06
6.59529e-06
6.59529e-06
6.59529e-06
6.59529e-06
6.59529e-06
6.5953e-06
6.5953e-06
6.59531e-06
6.5953e-06
6.59529e-06
6.59525e-06
6.5952e-06
6.59514e-06
6.59509e-06
6.59503e-06
6.59498e-06
6.59492e-06
6.59489e-06
6.59489e-06
6.59489e-06
6.5949e-06
6.5949e-06
6.5949e-06
6.59491e-06
6.59491e-06
6.59492e-06
6.59492e-06
6.59495e-06
6.58188e-06
6.58196e-06
6.58201e-06
6.58201e-06
6.58201e-06
6.58201e-06
6.58201e-06
6.58202e-06
6.58202e-06
6.58203e-06
6.58203e-06
6.58203e-06
6.58203e-06
6.58203e-06
6.58204e-06
6.58203e-06
6.58203e-06
6.58204e-06
6.58204e-06
6.58203e-06
6.58203e-06
6.582e-06
6.58195e-06
6.58189e-06
6.58183e-06
6.58178e-06
6.58172e-06
6.58166e-06
6.58161e-06
6.58159e-06
6.58161e-06
6.58161e-06
6.58161e-06
6.58161e-06
6.58162e-06
6.58162e-06
6.58162e-06
6.58162e-06
6.58163e-06
6.58165e-06
6.5742e-06
6.57431e-06
6.57436e-06
6.57437e-06
6.57437e-06
6.57437e-06
6.57438e-06
6.57438e-06
6.57439e-06
6.57438e-06
6.57438e-06
6.57439e-06
6.57439e-06
6.5744e-06
6.5744e-06
6.57439e-06
6.5744e-06
6.57439e-06
6.5744e-06
6.5744e-06
6.57438e-06
6.57433e-06
6.57427e-06
6.57421e-06
6.57415e-06
6.5741e-06
6.57404e-06
6.57398e-06
6.57394e-06
6.57395e-06
6.57395e-06
6.57395e-06
6.57395e-06
6.57396e-06
6.57396e-06
6.57396e-06
6.57396e-06
6.57397e-06
6.57396e-06
6.57399e-06
6.57742e-06
6.57754e-06
6.5776e-06
6.5776e-06
6.5776e-06
6.57761e-06
6.57762e-06
6.57762e-06
6.57762e-06
6.57762e-06
6.57762e-06
6.57763e-06
6.57763e-06
6.57764e-06
6.57763e-06
6.57763e-06
6.57762e-06
6.57763e-06
6.57763e-06
6.57762e-06
6.57758e-06
6.57753e-06
6.57747e-06
6.57741e-06
6.57736e-06
6.5773e-06
6.57724e-06
6.57719e-06
6.57717e-06
6.57718e-06
6.57718e-06
6.57718e-06
6.57718e-06
6.57719e-06
6.57719e-06
6.57719e-06
6.5772e-06
6.57719e-06
6.57719e-06
6.57722e-06
6.59793e-06
6.59806e-06
6.59811e-06
6.59812e-06
6.59812e-06
6.59813e-06
6.59813e-06
6.59813e-06
6.59813e-06
6.59814e-06
6.59814e-06
6.59814e-06
6.59814e-06
6.59814e-06
6.59815e-06
6.59813e-06
6.59813e-06
6.59813e-06
6.59813e-06
6.59812e-06
6.59807e-06
6.59802e-06
6.59796e-06
6.59791e-06
6.59785e-06
6.5978e-06
6.59774e-06
6.5977e-06
6.5977e-06
6.5977e-06
6.5977e-06
6.5977e-06
6.59771e-06
6.59771e-06
6.59772e-06
6.59772e-06
6.59772e-06
6.59771e-06
6.59771e-06
6.59774e-06
6.64372e-06
6.64383e-06
6.64389e-06
6.6439e-06
6.6439e-06
6.6439e-06
6.6439e-06
6.6439e-06
6.64391e-06
6.64391e-06
6.64392e-06
6.64392e-06
6.64392e-06
6.64392e-06
6.64391e-06
6.64392e-06
6.64392e-06
6.64391e-06
6.64392e-06
6.64389e-06
6.64383e-06
6.64378e-06
6.64373e-06
6.64368e-06
6.64363e-06
6.64358e-06
6.64353e-06
6.6435e-06
6.6435e-06
6.6435e-06
6.64351e-06
6.64351e-06
6.64351e-06
6.64352e-06
6.64352e-06
6.64353e-06
6.64352e-06
6.64352e-06
6.64352e-06
6.64354e-06
6.72505e-06
6.72515e-06
6.72521e-06
6.72524e-06
6.72524e-06
6.72524e-06
6.72524e-06
6.72525e-06
6.72525e-06
6.72525e-06
6.72526e-06
6.72526e-06
6.72526e-06
6.72526e-06
6.72526e-06
6.72526e-06
6.72526e-06
6.72526e-06
6.72526e-06
6.72522e-06
6.72517e-06
6.72513e-06
6.72508e-06
6.72504e-06
6.725e-06
6.72495e-06
6.7249e-06
6.72487e-06
6.72488e-06
6.72488e-06
6.72489e-06
6.72489e-06
6.7249e-06
6.72491e-06
6.72491e-06
6.7249e-06
6.7249e-06
6.7249e-06
6.72491e-06
6.72492e-06
6.85564e-06
6.85575e-06
6.85584e-06
6.85587e-06
6.85589e-06
6.8559e-06
6.85591e-06
6.85592e-06
6.85592e-06
6.85593e-06
6.85593e-06
6.85594e-06
6.85594e-06
6.85594e-06
6.85593e-06
6.85594e-06
6.85594e-06
6.85594e-06
6.85593e-06
6.85589e-06
6.85586e-06
6.85582e-06
6.85579e-06
6.85575e-06
6.85571e-06
6.85566e-06
6.85562e-06
6.8556e-06
6.85561e-06
6.85561e-06
6.85562e-06
6.85563e-06
6.85563e-06
6.85563e-06
6.85562e-06
6.85562e-06
6.85563e-06
6.85563e-06
6.85563e-06
6.85562e-06
7.05462e-06
7.05479e-06
7.05493e-06
7.05501e-06
7.05505e-06
7.05507e-06
7.05509e-06
7.0551e-06
7.05511e-06
7.05512e-06
7.05512e-06
7.05513e-06
7.05513e-06
7.05512e-06
7.05513e-06
7.05513e-06
7.05513e-06
7.05513e-06
7.05511e-06
7.05509e-06
7.05507e-06
7.05504e-06
7.05501e-06
7.05497e-06
7.05494e-06
7.0549e-06
7.05486e-06
7.05485e-06
7.05485e-06
7.05486e-06
7.05487e-06
7.05486e-06
7.05487e-06
7.05487e-06
7.05486e-06
7.05486e-06
7.05487e-06
7.05487e-06
7.05487e-06
7.05481e-06
7.35027e-06
7.35039e-06
7.35052e-06
7.35061e-06
7.35066e-06
7.3507e-06
7.35072e-06
7.35074e-06
7.35076e-06
7.35076e-06
7.35077e-06
7.35077e-06
7.35077e-06
7.35077e-06
7.35077e-06
7.35077e-06
7.35077e-06
7.35077e-06
7.35076e-06
7.35075e-06
7.35073e-06
7.35071e-06
7.35068e-06
7.35065e-06
7.35062e-06
7.35058e-06
7.35055e-06
7.35054e-06
7.35054e-06
7.35055e-06
7.35055e-06
7.35056e-06
7.35056e-06
7.35056e-06
7.35055e-06
7.35056e-06
7.35056e-06
7.35056e-06
7.35056e-06
7.3505e-06
7.78517e-06
7.78525e-06
7.78535e-06
7.78543e-06
7.78548e-06
7.78552e-06
7.78555e-06
7.78557e-06
7.78559e-06
7.7856e-06
7.7856e-06
7.7856e-06
7.7856e-06
7.7856e-06
7.7856e-06
7.78561e-06
7.78561e-06
7.7856e-06
7.7856e-06
7.78559e-06
7.78558e-06
7.78556e-06
7.78553e-06
7.78551e-06
7.78548e-06
7.78545e-06
7.78543e-06
7.78542e-06
7.78542e-06
7.78543e-06
7.78543e-06
7.78543e-06
7.78543e-06
7.78543e-06
7.78543e-06
7.78543e-06
7.78543e-06
7.78544e-06
7.78544e-06
7.78538e-06
8.42833e-06
8.4284e-06
8.42845e-06
8.4285e-06
8.42854e-06
8.42858e-06
8.4286e-06
8.42863e-06
8.42865e-06
8.42866e-06
8.42866e-06
8.42867e-06
8.42867e-06
8.42867e-06
8.42867e-06
8.42867e-06
8.42867e-06
8.42867e-06
8.42867e-06
8.42866e-06
8.42864e-06
8.42862e-06
8.4286e-06
8.42858e-06
8.42856e-06
8.42854e-06
8.42852e-06
8.42852e-06
8.42852e-06
8.42852e-06
8.42852e-06
8.42852e-06
8.42852e-06
8.42853e-06
8.42853e-06
8.42853e-06
8.42853e-06
8.42853e-06
8.42853e-06
8.42849e-06
9.39852e-06
9.39848e-06
9.39848e-06
9.39849e-06
9.39852e-06
9.39854e-06
9.39857e-06
9.39859e-06
9.39861e-06
9.39862e-06
9.39863e-06
9.39864e-06
9.39864e-06
9.39865e-06
9.39865e-06
9.39865e-06
9.39865e-06
9.39865e-06
9.39864e-06
9.39862e-06
9.3986e-06
9.39858e-06
9.39856e-06
9.39855e-06
9.39853e-06
9.39852e-06
9.39851e-06
9.39851e-06
9.39851e-06
9.39851e-06
9.39851e-06
9.39851e-06
9.39852e-06
9.39852e-06
9.39852e-06
9.39852e-06
9.39852e-06
9.39851e-06
9.39851e-06
9.39853e-06
1.09145e-05
1.09146e-05
1.09146e-05
1.09146e-05
1.09146e-05
1.09146e-05
1.09146e-05
1.09147e-05
1.09147e-05
1.09147e-05
1.09147e-05
1.09147e-05
1.09147e-05
1.09147e-05
1.09148e-05
1.09148e-05
1.09148e-05
1.09147e-05
1.09147e-05
1.09147e-05
1.09147e-05
1.09147e-05
1.09146e-05
1.09146e-05
1.09146e-05
1.09146e-05
1.09146e-05
1.09146e-05
1.09146e-05
1.09146e-05
1.09146e-05
1.09146e-05
1.09146e-05
1.09146e-05
1.09146e-05
1.09146e-05
1.09146e-05
1.09146e-05
1.09146e-05
1.09146e-05
1.34161e-05
1.34161e-05
1.34161e-05
1.34161e-05
1.34161e-05
1.34161e-05
1.34161e-05
1.34161e-05
1.34162e-05
1.34162e-05
1.34162e-05
1.34162e-05
1.34162e-05
1.34162e-05
1.34163e-05
1.34163e-05
1.34162e-05
1.34162e-05
1.34162e-05
1.34162e-05
1.34161e-05
1.34161e-05
1.34161e-05
1.34161e-05
1.34161e-05
1.34161e-05
1.34161e-05
1.34161e-05
1.34161e-05
1.34161e-05
1.34161e-05
1.34161e-05
1.34161e-05
1.34161e-05
1.34161e-05
1.34161e-05
1.34161e-05
1.34161e-05
1.34161e-05
1.34161e-05
1.78379e-05
1.78379e-05
1.78379e-05
1.78379e-05
1.78379e-05
1.78379e-05
1.7838e-05
1.7838e-05
1.78381e-05
1.78381e-05
1.78381e-05
1.78381e-05
1.78381e-05
1.78382e-05
1.78382e-05
1.78382e-05
1.78381e-05
1.78381e-05
1.78381e-05
1.7838e-05
1.7838e-05
1.78379e-05
1.78379e-05
1.78379e-05
1.78379e-05
1.78379e-05
1.78379e-05
1.78379e-05
1.7838e-05
1.7838e-05
1.7838e-05
1.7838e-05
1.7838e-05
1.7838e-05
1.7838e-05
1.7838e-05
1.7838e-05
1.78379e-05
1.78379e-05
1.78381e-05
2.42806e-05
2.42807e-05
2.42807e-05
2.42807e-05
2.42807e-05
2.42808e-05
2.42809e-05
2.4281e-05
2.42811e-05
2.42811e-05
2.42812e-05
2.42812e-05
2.42812e-05
2.42813e-05
2.42813e-05
2.42812e-05
2.42812e-05
2.42811e-05
2.4281e-05
2.42808e-05
2.42807e-05
2.42807e-05
2.42806e-05
2.42806e-05
2.42806e-05
2.42806e-05
2.42807e-05
2.42807e-05
2.42807e-05
2.42807e-05
2.42808e-05
2.42808e-05
2.42808e-05
2.42808e-05
2.42808e-05
2.42808e-05
2.42807e-05
2.42807e-05
2.42807e-05
2.42808e-05
)
;

boundaryField
{
    bottomWall
    {
        type            epsilonWallFunction;
        value           nonuniform List<scalar> 
40
(
2.42814e-05
2.42814e-05
2.42814e-05
2.42815e-05
2.42816e-05
2.42817e-05
2.42817e-05
2.42818e-05
2.42819e-05
2.42819e-05
2.4282e-05
2.4282e-05
2.42821e-05
2.42821e-05
2.42821e-05
2.42822e-05
2.42822e-05
2.42822e-05
2.42822e-05
2.42821e-05
2.42819e-05
2.42817e-05
2.42817e-05
2.42816e-05
2.42816e-05
2.42817e-05
2.42817e-05
2.42817e-05
2.42817e-05
2.42817e-05
2.42817e-05
2.42817e-05
2.42817e-05
2.42817e-05
2.42817e-05
2.42816e-05
2.42814e-05
2.42813e-05
2.42813e-05
2.42814e-05
)
;
    }
    topWall
    {
        type            epsilonWallFunction;
        value           nonuniform List<scalar> 
40
(
2.42806e-05
2.42807e-05
2.42807e-05
2.42807e-05
2.42807e-05
2.42808e-05
2.42809e-05
2.4281e-05
2.42811e-05
2.42811e-05
2.42812e-05
2.42812e-05
2.42812e-05
2.42813e-05
2.42813e-05
2.42812e-05
2.42812e-05
2.42811e-05
2.4281e-05
2.42808e-05
2.42807e-05
2.42807e-05
2.42806e-05
2.42806e-05
2.42806e-05
2.42806e-05
2.42807e-05
2.42807e-05
2.42807e-05
2.42807e-05
2.42808e-05
2.42808e-05
2.42808e-05
2.42808e-05
2.42808e-05
2.42808e-05
2.42807e-05
2.42807e-05
2.42807e-05
2.42808e-05
)
;
    }
    sides1_half0
    {
        type            empty;
    }
    sides1_half1
    {
        type            empty;
    }
    sides2_half0
    {
        type            empty;
    }
    sides2_half1
    {
        type            empty;
    }
    inout1_half0
    {
        type            cyclic;
    }
    inout1_half1
    {
        type            cyclic;
    }
    inout2_half0
    {
        type            cyclic;
    }
    inout2_half1
    {
        type            cyclic;
    }
}


// ************************************************************************* //
