/*--------------------------------*- C++ -*----------------------------------*\
  =========                 |
  \\      /  F ield         | OpenFOAM: The Open Source CFD Toolbox
   \\    /   O peration     | Website:  https://openfoam.org
    \\  /    A nd           | Version:  dev
     \\/     M anipulation  |

   OpenFOAM for Windows 20.09 (v1)
   Built by CFD Support, www.cfdsupport.com (based on Symscape).
\*---------------------------------------------------------------------------*/
FoamFile
{
    version     2.0;
    format      ascii;
    class       volScalarField;
    location    "80";
    object      k;
}
// * * * * * * * * * * * * * * * * * * * * * * * * * * * * * * * * * * * * * //

dimensions      [0 2 -2 0 0 0 0];

internalField   nonuniform List<scalar> 
1600
(
0.000180859
0.00018086
0.000180861
0.000180861
0.000180862
0.000180863
0.000180863
0.000180864
0.000180864
0.000180865
0.000180865
0.000180865
0.000180866
0.000180866
0.000180866
0.000180866
0.000180866
0.000180866
0.000180866
0.000180866
0.000180865
0.000180863
0.000180863
0.000180862
0.000180862
0.000180862
0.000180863
0.000180863
0.000180863
0.000180863
0.000180863
0.000180863
0.000180863
0.000180863
0.000180863
0.000180862
0.000180861
0.00018086
0.00018086
0.000180861
0.000278522
0.000278522
0.000278523
0.000278524
0.000278525
0.000278526
0.000278527
0.000278528
0.000278529
0.000278529
0.000278529
0.00027853
0.00027853
0.00027853
0.00027853
0.00027853
0.00027853
0.000278531
0.00027853
0.00027853
0.000278528
0.000278526
0.000278525
0.000278525
0.000278525
0.000278525
0.000278525
0.000278525
0.000278525
0.000278525
0.000278525
0.000278525
0.000278525
0.000278525
0.000278525
0.000278525
0.000278524
0.000278522
0.000278522
0.000278523
0.000306543
0.000306546
0.000306549
0.00030655
0.000306552
0.000306553
0.000306554
0.000306555
0.000306555
0.000306556
0.000306556
0.000306556
0.000306556
0.000306557
0.000306557
0.000306557
0.000306557
0.000306557
0.000306557
0.000306556
0.000306553
0.000306551
0.000306549
0.000306549
0.000306549
0.000306549
0.000306549
0.000306549
0.000306549
0.000306549
0.000306549
0.000306549
0.000306549
0.000306549
0.000306549
0.000306549
0.000306548
0.000306546
0.000306546
0.000306546
0.000324853
0.000324859
0.000324863
0.000324865
0.000324866
0.000324867
0.000324868
0.000324869
0.000324869
0.000324869
0.00032487
0.00032487
0.00032487
0.00032487
0.00032487
0.00032487
0.00032487
0.00032487
0.000324869
0.000324868
0.000324864
0.000324861
0.00032486
0.00032486
0.00032486
0.00032486
0.00032486
0.00032486
0.00032486
0.00032486
0.00032486
0.000324861
0.000324861
0.000324861
0.000324861
0.000324861
0.00032486
0.000324857
0.000324856
0.000324857
0.000340062
0.000340067
0.00034007
0.000340072
0.000340073
0.000340073
0.000340074
0.000340075
0.000340075
0.000340075
0.000340075
0.000340075
0.000340074
0.000340074
0.000340073
0.000340073
0.000340073
0.000340074
0.000340073
0.00034007
0.000340066
0.000340063
0.000340063
0.000340063
0.000340063
0.000340063
0.000340063
0.000340063
0.000340063
0.000340063
0.000340063
0.000340063
0.000340063
0.000340064
0.000340064
0.000340063
0.000340062
0.00034006
0.000340059
0.000340059
0.000353829
0.000353835
0.000353838
0.000353838
0.000353839
0.000353839
0.00035384
0.00035384
0.00035384
0.00035384
0.000353841
0.00035384
0.000353837
0.000353836
0.000353835
0.000353835
0.000353836
0.000353836
0.000353835
0.00035383
0.000353826
0.000353824
0.000353824
0.000353824
0.000353825
0.000353825
0.000353825
0.000353825
0.000353825
0.000353825
0.000353825
0.000353825
0.000353825
0.000353825
0.000353825
0.000353825
0.000353824
0.000353822
0.000353821
0.000353822
0.000366716
0.000366722
0.000366724
0.000366725
0.000366725
0.000366725
0.000366725
0.000366725
0.000366726
0.000366726
0.000366726
0.000366722
0.000366718
0.000366717
0.000366716
0.000366717
0.000366717
0.000366716
0.000366714
0.000366709
0.000366706
0.000366706
0.000366706
0.000366706
0.000366706
0.000366706
0.000366706
0.000366706
0.000366706
0.000366706
0.000366706
0.000366706
0.000366706
0.000366707
0.000366707
0.000366707
0.000366706
0.000366704
0.000366704
0.000366705
0.000378939
0.000378946
0.000378948
0.000378949
0.000378949
0.000378949
0.000378949
0.000378949
0.000378949
0.00037895
0.000378947
0.000378942
0.000378938
0.000378935
0.000378935
0.000378934
0.000378934
0.000378932
0.000378929
0.000378925
0.000378924
0.000378924
0.000378925
0.000378925
0.000378925
0.000378925
0.000378925
0.000378925
0.000378925
0.000378925
0.000378925
0.000378925
0.000378926
0.000378926
0.000378926
0.000378926
0.000378925
0.000378924
0.000378925
0.000378926
0.000390584
0.000390592
0.000390594
0.000390594
0.000390594
0.000390594
0.000390595
0.000390595
0.000390595
0.000390594
0.00039059
0.000390584
0.000390579
0.000390576
0.000390574
0.000390573
0.000390572
0.00039057
0.000390567
0.000390565
0.000390566
0.000390566
0.000390566
0.000390566
0.000390566
0.000390566
0.000390566
0.000390566
0.000390566
0.000390566
0.000390566
0.000390566
0.000390567
0.000390567
0.000390567
0.000390567
0.000390567
0.000390567
0.000390567
0.000390569
0.000401672
0.00040168
0.000401682
0.000401682
0.000401682
0.000401683
0.000401683
0.000401683
0.000401683
0.000401682
0.000401676
0.000401669
0.000401664
0.00040166
0.000401658
0.000401656
0.000401655
0.000401652
0.000401649
0.00040165
0.00040165
0.00040165
0.00040165
0.00040165
0.00040165
0.00040165
0.000401651
0.00040165
0.000401651
0.000401651
0.000401651
0.000401651
0.000401652
0.000401652
0.000401652
0.000401652
0.000401653
0.000401653
0.000401652
0.000401655
0.000412187
0.000412195
0.000412198
0.000412198
0.000412198
0.000412199
0.000412199
0.000412199
0.000412199
0.000412198
0.000412191
0.000412184
0.000412178
0.000412174
0.000412171
0.000412169
0.000412166
0.000412163
0.000412162
0.000412163
0.000412163
0.000412163
0.000412163
0.000412163
0.000412163
0.000412163
0.000412164
0.000412163
0.000412164
0.000412164
0.000412165
0.000412165
0.000412165
0.000412166
0.000412166
0.000412166
0.000412167
0.000412166
0.000412166
0.00041217
0.000422091
0.000422099
0.000422102
0.000422102
0.000422103
0.000422103
0.000422103
0.000422103
0.000422104
0.000422102
0.000422095
0.000422088
0.000422082
0.000422077
0.000422073
0.000422071
0.000422068
0.000422064
0.000422064
0.000422064
0.000422065
0.000422065
0.000422065
0.000422066
0.000422065
0.000422066
0.000422065
0.000422066
0.000422066
0.000422067
0.000422068
0.000422068
0.000422069
0.000422068
0.000422069
0.000422069
0.000422069
0.000422069
0.000422069
0.000422073
0.000431323
0.000431332
0.000431336
0.000431336
0.000431336
0.000431337
0.000431337
0.000431338
0.000431338
0.000431336
0.00043133
0.000431323
0.000431317
0.000431311
0.000431307
0.000431304
0.000431301
0.000431297
0.000431297
0.000431297
0.000431298
0.000431298
0.000431298
0.000431298
0.000431298
0.000431298
0.000431299
0.000431299
0.0004313
0.0004313
0.000431301
0.000431302
0.000431301
0.000431302
0.000431302
0.000431302
0.000431302
0.000431302
0.000431303
0.000431305
0.000439812
0.000439822
0.000439826
0.000439826
0.000439826
0.000439827
0.000439827
0.000439828
0.000439828
0.000439826
0.000439821
0.000439814
0.000439808
0.000439802
0.000439798
0.000439794
0.00043979
0.000439787
0.000439787
0.000439787
0.000439787
0.000439788
0.000439788
0.000439787
0.000439788
0.000439788
0.000439788
0.000439789
0.00043979
0.00043979
0.000439791
0.000439791
0.000439791
0.000439791
0.00043979
0.00043979
0.000439791
0.000439791
0.000439792
0.000439795
0.000447469
0.000447478
0.000447482
0.000447482
0.000447483
0.000447483
0.000447483
0.000447484
0.000447484
0.000447483
0.000447479
0.000447473
0.000447466
0.000447461
0.000447456
0.000447452
0.000447448
0.000447445
0.000447444
0.000447443
0.000447444
0.000447444
0.000447445
0.000447445
0.000447445
0.000447445
0.000447445
0.000447446
0.000447446
0.000447447
0.000447447
0.000447447
0.000447447
0.000447447
0.000447447
0.000447447
0.000447448
0.000447448
0.000447449
0.000447452
0.000454189
0.000454198
0.000454202
0.000454202
0.000454202
0.000454202
0.000454203
0.000454203
0.000454204
0.000454203
0.0004542
0.000454195
0.000454189
0.000454183
0.000454178
0.000454174
0.000454169
0.000454166
0.000454164
0.000454165
0.000454165
0.000454166
0.000454166
0.000454166
0.000454166
0.000454166
0.000454167
0.000454167
0.000454167
0.000454167
0.000454167
0.000454168
0.000454168
0.000454168
0.000454168
0.000454168
0.000454169
0.000454169
0.00045417
0.000454173
0.000459857
0.000459864
0.000459868
0.000459868
0.000459868
0.000459868
0.000459869
0.000459869
0.00045987
0.00045987
0.000459868
0.000459863
0.000459858
0.000459852
0.000459847
0.000459843
0.000459838
0.000459834
0.000459832
0.000459833
0.000459833
0.000459834
0.000459833
0.000459833
0.000459834
0.000459834
0.000459835
0.000459835
0.000459835
0.000459836
0.000459836
0.000459836
0.000459836
0.000459836
0.000459836
0.000459837
0.000459836
0.000459837
0.000459837
0.000459841
0.00046434
0.000464346
0.000464349
0.00046435
0.00046435
0.00046435
0.000464351
0.000464351
0.000464351
0.000464351
0.000464351
0.000464348
0.000464342
0.000464337
0.000464331
0.000464327
0.000464323
0.000464319
0.000464316
0.000464317
0.000464317
0.000464317
0.000464317
0.000464317
0.000464317
0.000464318
0.000464318
0.000464319
0.000464319
0.000464319
0.00046432
0.00046432
0.00046432
0.000464319
0.00046432
0.000464319
0.00046432
0.00046432
0.000464321
0.000464324
0.000467494
0.0004675
0.000467503
0.000467503
0.000467503
0.000467503
0.000467503
0.000467503
0.000467504
0.000467504
0.000467504
0.000467502
0.000467497
0.000467492
0.000467487
0.000467482
0.000467478
0.000467474
0.000467471
0.000467471
0.000467471
0.000467471
0.000467471
0.000467472
0.000467472
0.000467472
0.000467473
0.000467473
0.000467474
0.000467474
0.000467474
0.000467474
0.000467474
0.000467473
0.000467474
0.000467474
0.000467474
0.000467475
0.000467476
0.000467479
0.00046916
0.000469165
0.000469167
0.000469167
0.000469167
0.000469167
0.000469167
0.000469168
0.000469168
0.000469169
0.000469169
0.000469167
0.000469162
0.000469157
0.000469152
0.000469147
0.000469143
0.000469139
0.000469137
0.000469136
0.000469136
0.000469137
0.000469137
0.000469137
0.000469138
0.000469138
0.000469138
0.000469138
0.000469139
0.000469139
0.000469139
0.000469138
0.000469138
0.000469139
0.000469139
0.000469139
0.00046914
0.00046914
0.000469141
0.000469144
0.00046916
0.000469165
0.000469167
0.000469166
0.000469166
0.000469167
0.000469167
0.000469167
0.000469168
0.000469168
0.000469168
0.000469167
0.000469162
0.000469157
0.000469151
0.000469147
0.000469143
0.000469139
0.000469136
0.000469135
0.000469136
0.000469137
0.000469137
0.000469137
0.000469137
0.000469137
0.000469138
0.000469138
0.000469138
0.000469139
0.000469138
0.000469138
0.000469138
0.000469139
0.000469139
0.00046914
0.00046914
0.00046914
0.000469141
0.000469144
0.000467495
0.0004675
0.000467501
0.000467502
0.000467501
0.000467502
0.000467501
0.000467502
0.000467502
0.000467502
0.000467503
0.000467501
0.000467496
0.00046749
0.000467485
0.00046748
0.000467476
0.000467472
0.00046747
0.00046747
0.00046747
0.000467471
0.000467471
0.000467471
0.000467471
0.000467472
0.000467472
0.000467472
0.000467473
0.000467473
0.000467472
0.000467472
0.000467473
0.000467473
0.000467474
0.000467474
0.000467474
0.000467475
0.000467475
0.000467479
0.000464341
0.000464345
0.000464347
0.000464347
0.000464347
0.000464347
0.000464347
0.000464347
0.000464347
0.000464347
0.000464348
0.000464346
0.00046434
0.000464334
0.000464328
0.000464323
0.000464319
0.000464315
0.000464314
0.000464314
0.000464315
0.000464315
0.000464315
0.000464315
0.000464316
0.000464316
0.000464316
0.000464317
0.000464317
0.000464317
0.000464317
0.000464318
0.000464318
0.000464318
0.000464318
0.000464318
0.000464319
0.000464319
0.00046432
0.000464324
0.000459856
0.000459861
0.000459862
0.000459862
0.000459862
0.000459862
0.000459862
0.000459862
0.000459863
0.000459863
0.000459863
0.00045986
0.000459854
0.000459847
0.000459842
0.000459837
0.000459832
0.000459829
0.000459829
0.000459829
0.000459829
0.000459829
0.000459829
0.000459829
0.00045983
0.00045983
0.000459831
0.000459832
0.000459832
0.000459832
0.000459832
0.000459832
0.000459832
0.000459832
0.000459832
0.000459833
0.000459833
0.000459834
0.000459834
0.000459838
0.000454186
0.000454191
0.000454193
0.000454193
0.000454192
0.000454193
0.000454193
0.000454193
0.000454193
0.000454194
0.000454194
0.00045419
0.000454183
0.000454176
0.000454171
0.000454166
0.000454161
0.000454158
0.000454158
0.000454158
0.000454158
0.000454158
0.000454158
0.000454159
0.00045416
0.00045416
0.000454161
0.000454161
0.000454162
0.000454162
0.000454162
0.000454162
0.000454162
0.000454162
0.000454162
0.000454162
0.000454163
0.000454163
0.000454164
0.000454168
0.000447461
0.000447467
0.000447469
0.000447469
0.000447469
0.00044747
0.00044747
0.00044747
0.00044747
0.000447471
0.000447471
0.000447466
0.000447459
0.000447452
0.000447447
0.000447442
0.000447437
0.000447434
0.000447434
0.000447434
0.000447434
0.000447435
0.000447435
0.000447435
0.000447436
0.000447437
0.000447437
0.000447438
0.000447438
0.000447438
0.000447438
0.000447438
0.000447438
0.000447438
0.000447438
0.000447439
0.000447439
0.00044744
0.00044744
0.000447444
0.0004398
0.000439806
0.000439809
0.000439809
0.000439809
0.00043981
0.00043981
0.00043981
0.00043981
0.000439811
0.000439811
0.000439806
0.000439798
0.000439791
0.000439786
0.000439781
0.000439776
0.000439774
0.000439774
0.000439774
0.000439775
0.000439775
0.000439775
0.000439775
0.000439776
0.000439777
0.000439778
0.000439778
0.000439778
0.000439778
0.000439778
0.000439778
0.000439778
0.000439778
0.000439778
0.000439779
0.000439779
0.00043978
0.00043978
0.000439784
0.000431307
0.000431313
0.000431316
0.000431316
0.000431316
0.000431316
0.000431316
0.000431317
0.000431318
0.000431318
0.000431317
0.000431312
0.000431304
0.000431298
0.000431293
0.000431288
0.000431283
0.000431281
0.000431281
0.000431281
0.000431282
0.000431282
0.000431282
0.000431283
0.000431284
0.000431284
0.000431284
0.000431285
0.000431285
0.000431285
0.000431285
0.000431285
0.000431285
0.000431285
0.000431286
0.000431286
0.000431287
0.000431287
0.000431287
0.00043129
0.000422069
0.000422076
0.000422078
0.000422078
0.000422078
0.000422079
0.000422079
0.00042208
0.00042208
0.000422081
0.00042208
0.000422074
0.000422067
0.000422061
0.000422056
0.000422051
0.000422047
0.000422045
0.000422044
0.000422045
0.000422045
0.000422045
0.000422046
0.000422047
0.000422047
0.000422047
0.000422048
0.000422048
0.000422049
0.000422048
0.000422048
0.000422048
0.000422049
0.000422049
0.000422049
0.00042205
0.000422051
0.000422051
0.000422052
0.000422054
0.000412163
0.000412169
0.000412172
0.000412172
0.000412172
0.000412172
0.000412172
0.000412173
0.000412174
0.000412174
0.000412173
0.000412168
0.000412161
0.000412155
0.000412151
0.000412146
0.000412142
0.00041214
0.000412139
0.00041214
0.00041214
0.000412141
0.000412141
0.000412141
0.000412142
0.000412142
0.000412143
0.000412143
0.000412143
0.000412143
0.000412143
0.000412143
0.000412144
0.000412144
0.000412145
0.000412145
0.000412146
0.000412146
0.000412146
0.000412148
0.000401646
0.000401652
0.000401654
0.000401654
0.000401655
0.000401655
0.000401655
0.000401656
0.000401657
0.000401657
0.000401656
0.000401651
0.000401645
0.000401639
0.000401635
0.000401632
0.000401628
0.000401625
0.000401625
0.000401625
0.000401625
0.000401626
0.000401626
0.000401627
0.000401627
0.000401627
0.000401628
0.000401628
0.000401628
0.000401628
0.000401628
0.000401628
0.000401628
0.000401629
0.000401629
0.00040163
0.000401631
0.00040163
0.000401631
0.000401633
0.000390558
0.000390563
0.000390565
0.000390566
0.000390566
0.000390567
0.000390567
0.000390568
0.000390569
0.000390569
0.000390568
0.000390563
0.000390558
0.000390553
0.00039055
0.000390546
0.000390543
0.00039054
0.00039054
0.00039054
0.00039054
0.000390541
0.000390541
0.000390541
0.000390541
0.000390542
0.000390542
0.000390542
0.000390542
0.000390542
0.000390542
0.000390542
0.000390543
0.000390543
0.000390544
0.000390544
0.000390544
0.000390544
0.000390544
0.000390546
0.000378913
0.000378917
0.00037892
0.000378921
0.000378922
0.000378923
0.000378924
0.000378924
0.000378925
0.000378926
0.000378924
0.00037892
0.000378916
0.000378912
0.000378909
0.000378906
0.000378903
0.000378901
0.000378899
0.000378899
0.000378899
0.000378899
0.0003789
0.0003789
0.0003789
0.0003789
0.000378901
0.000378901
0.0003789
0.0003789
0.000378901
0.000378901
0.000378901
0.000378902
0.000378902
0.000378902
0.000378902
0.000378902
0.000378902
0.000378903
0.00036669
0.000366694
0.000366697
0.0003667
0.000366701
0.000366702
0.000366703
0.000366703
0.000366704
0.000366705
0.000366704
0.0003667
0.000366696
0.000366693
0.000366691
0.000366689
0.000366686
0.000366684
0.000366682
0.000366681
0.000366681
0.000366681
0.000366681
0.000366681
0.000366682
0.000366682
0.000366682
0.000366682
0.000366682
0.000366682
0.000366683
0.000366683
0.000366683
0.000366683
0.000366683
0.000366683
0.000366683
0.000366683
0.000366684
0.000366684
0.000353803
0.000353808
0.000353813
0.000353816
0.000353818
0.000353819
0.00035382
0.000353821
0.000353822
0.000353822
0.000353821
0.000353818
0.000353816
0.000353813
0.000353812
0.00035381
0.000353808
0.000353806
0.000353804
0.000353802
0.000353802
0.000353802
0.000353802
0.000353802
0.000353802
0.000353802
0.000353802
0.000353802
0.000353802
0.000353803
0.000353803
0.000353803
0.000353803
0.000353803
0.000353803
0.000353803
0.000353803
0.000353804
0.000353804
0.000353803
0.000340038
0.000340043
0.000340048
0.000340052
0.000340054
0.000340056
0.000340057
0.000340058
0.000340059
0.000340059
0.000340059
0.000340057
0.000340055
0.000340054
0.000340052
0.000340051
0.00034005
0.000340048
0.000340046
0.000340044
0.000340043
0.000340043
0.000340043
0.000340043
0.000340043
0.000340043
0.000340043
0.000340043
0.000340043
0.000340043
0.000340043
0.000340044
0.000340044
0.000340044
0.000340044
0.000340044
0.000340044
0.000340044
0.000340045
0.000340043
0.000324838
0.000324842
0.000324845
0.000324849
0.000324851
0.000324853
0.000324854
0.000324855
0.000324856
0.000324856
0.000324856
0.000324855
0.000324854
0.000324853
0.000324852
0.000324851
0.00032485
0.000324849
0.000324847
0.000324845
0.000324844
0.000324843
0.000324843
0.000324843
0.000324843
0.000324843
0.000324843
0.000324844
0.000324844
0.000324844
0.000324844
0.000324844
0.000324844
0.000324845
0.000324845
0.000324845
0.000324845
0.000324845
0.000324845
0.000324844
0.000306534
0.000306536
0.000306537
0.000306538
0.00030654
0.000306542
0.000306543
0.000306544
0.000306545
0.000306545
0.000306545
0.000306545
0.000306545
0.000306544
0.000306543
0.000306543
0.000306542
0.000306541
0.000306539
0.000306538
0.000306537
0.000306536
0.000306535
0.000306535
0.000306535
0.000306536
0.000306536
0.000306536
0.000306536
0.000306536
0.000306537
0.000306537
0.000306537
0.000306537
0.000306537
0.000306537
0.000306537
0.000306537
0.000306537
0.000306538
0.000278515
0.000278515
0.000278515
0.000278516
0.000278517
0.000278518
0.000278519
0.00027852
0.000278521
0.000278522
0.000278522
0.000278522
0.000278522
0.000278521
0.000278521
0.000278521
0.00027852
0.00027852
0.000278518
0.000278517
0.000278516
0.000278515
0.000278515
0.000278515
0.000278515
0.000278515
0.000278515
0.000278515
0.000278515
0.000278516
0.000278516
0.000278516
0.000278516
0.000278516
0.000278516
0.000278516
0.000278516
0.000278516
0.000278516
0.000278517
0.000180855
0.000180855
0.000180855
0.000180855
0.000180855
0.000180856
0.000180856
0.000180857
0.000180858
0.000180859
0.000180859
0.000180859
0.000180859
0.00018086
0.000180859
0.000180859
0.000180859
0.000180859
0.000180858
0.000180857
0.000180856
0.000180855
0.000180855
0.000180855
0.000180855
0.000180855
0.000180855
0.000180855
0.000180855
0.000180856
0.000180856
0.000180856
0.000180856
0.000180856
0.000180856
0.000180856
0.000180856
0.000180855
0.000180855
0.000180856
)
;

boundaryField
{
    bottomWall
    {
        type            kqRWallFunction;
        value           nonuniform List<scalar> 
40
(
0.000180859
0.00018086
0.000180861
0.000180861
0.000180862
0.000180863
0.000180863
0.000180864
0.000180864
0.000180865
0.000180865
0.000180865
0.000180866
0.000180866
0.000180866
0.000180866
0.000180866
0.000180866
0.000180866
0.000180866
0.000180865
0.000180863
0.000180863
0.000180862
0.000180862
0.000180862
0.000180863
0.000180863
0.000180863
0.000180863
0.000180863
0.000180863
0.000180863
0.000180863
0.000180863
0.000180862
0.000180861
0.00018086
0.00018086
0.000180861
)
;
    }
    topWall
    {
        type            kqRWallFunction;
        value           nonuniform List<scalar> 
40
(
0.000180855
0.000180855
0.000180855
0.000180855
0.000180855
0.000180856
0.000180856
0.000180857
0.000180858
0.000180859
0.000180859
0.000180859
0.000180859
0.00018086
0.000180859
0.000180859
0.000180859
0.000180859
0.000180858
0.000180857
0.000180856
0.000180855
0.000180855
0.000180855
0.000180855
0.000180855
0.000180855
0.000180855
0.000180855
0.000180856
0.000180856
0.000180856
0.000180856
0.000180856
0.000180856
0.000180856
0.000180856
0.000180855
0.000180855
0.000180856
)
;
    }
    sides1_half0
    {
        type            empty;
    }
    sides1_half1
    {
        type            empty;
    }
    sides2_half0
    {
        type            empty;
    }
    sides2_half1
    {
        type            empty;
    }
    inout1_half0
    {
        type            cyclic;
    }
    inout1_half1
    {
        type            cyclic;
    }
    inout2_half0
    {
        type            cyclic;
    }
    inout2_half1
    {
        type            cyclic;
    }
}


// ************************************************************************* //
