/*--------------------------------*- C++ -*----------------------------------*\
  =========                 |
  \\      /  F ield         | OpenFOAM: The Open Source CFD Toolbox
   \\    /   O peration     | Website:  https://openfoam.org
    \\  /    A nd           | Version:  dev
     \\/     M anipulation  |

   OpenFOAM for Windows 20.09 (v1)
   Built by CFD Support, www.cfdsupport.com (based on Symscape).
\*---------------------------------------------------------------------------*/
FoamFile
{
    version     2.0;
    format      ascii;
    class       volScalarField;
    location    "80";
    object      nut;
}
// * * * * * * * * * * * * * * * * * * * * * * * * * * * * * * * * * * * * * //

dimensions      [0 2 -1 0 0 0 0];

internalField   nonuniform List<scalar> 
1600
(
0.000121241
0.000121243
0.000121243
0.000121243
0.000121244
0.000121244
0.000121245
0.000121245
0.000121246
0.000121246
0.000121246
0.000121246
0.000121247
0.000121247
0.000121247
0.000121247
0.000121247
0.000121247
0.000121247
0.000121247
0.000121246
0.000121245
0.000121245
0.000121244
0.000121244
0.000121244
0.000121244
0.000121244
0.000121244
0.000121244
0.000121244
0.000121244
0.000121244
0.000121244
0.000121244
0.000121244
0.000121244
0.000121243
0.000121243
0.000121244
0.000391391
0.000391391
0.000391393
0.000391395
0.000391398
0.0003914
0.000391402
0.000391403
0.000391405
0.000391405
0.000391406
0.000391406
0.000391407
0.000391407
0.000391407
0.000391407
0.000391407
0.000391407
0.000391407
0.000391406
0.000391402
0.000391398
0.000391395
0.000391395
0.000391395
0.000391395
0.000391395
0.000391395
0.000391395
0.000391395
0.000391395
0.000391395
0.000391395
0.000391396
0.000391396
0.000391396
0.000391394
0.000391391
0.00039139
0.00039139
0.000630367
0.000630374
0.000630384
0.000630391
0.000630396
0.0006304
0.000630403
0.000630405
0.000630407
0.000630408
0.000630409
0.000630409
0.00063041
0.000630409
0.000630409
0.000630409
0.000630409
0.000630409
0.000630409
0.000630405
0.000630396
0.000630387
0.000630383
0.000630383
0.000630383
0.000630383
0.000630383
0.000630384
0.000630384
0.000630384
0.000630384
0.000630384
0.000630384
0.000630384
0.000630385
0.000630385
0.000630382
0.000630377
0.000630374
0.000630374
0.00087015
0.000870183
0.000870203
0.000870212
0.000870219
0.000870223
0.000870227
0.00087023
0.000870232
0.000870234
0.000870235
0.000870235
0.000870235
0.000870233
0.000870232
0.000870231
0.00087023
0.000870231
0.000870229
0.000870222
0.000870203
0.00087019
0.000870185
0.000870186
0.000870186
0.000870186
0.000870187
0.000870187
0.000870187
0.000870187
0.000870188
0.000870188
0.000870188
0.000870189
0.00087019
0.000870191
0.000870186
0.000870178
0.000870172
0.00087017
0.00110735
0.00110738
0.0011074
0.00110741
0.00110741
0.00110742
0.00110742
0.00110742
0.00110743
0.00110743
0.00110743
0.00110743
0.00110742
0.00110741
0.00110741
0.00110741
0.00110741
0.00110741
0.00110741
0.00110739
0.00110736
0.00110735
0.00110734
0.00110735
0.00110735
0.00110735
0.00110735
0.00110735
0.00110735
0.00110735
0.00110735
0.00110735
0.00110735
0.00110735
0.00110735
0.00110735
0.00110735
0.00110734
0.00110733
0.00110733
0.00133681
0.00133684
0.00133685
0.00133685
0.00133685
0.00133685
0.00133686
0.00133686
0.00133686
0.00133686
0.00133686
0.00133685
0.00133683
0.00133682
0.00133682
0.00133682
0.00133682
0.00133682
0.00133681
0.00133678
0.00133675
0.00133674
0.00133674
0.00133674
0.00133674
0.00133674
0.00133674
0.00133674
0.00133674
0.00133674
0.00133674
0.00133674
0.00133674
0.00133674
0.00133674
0.00133674
0.00133674
0.00133673
0.00133672
0.00133673
0.00155458
0.00155461
0.00155462
0.00155461
0.00155461
0.00155461
0.00155461
0.00155461
0.00155461
0.00155462
0.00155461
0.00155458
0.00155455
0.00155454
0.00155453
0.00155453
0.00155453
0.00155453
0.00155451
0.00155447
0.00155444
0.00155444
0.00155444
0.00155444
0.00155444
0.00155444
0.00155444
0.00155444
0.00155444
0.00155444
0.00155444
0.00155444
0.00155444
0.00155444
0.00155444
0.00155445
0.00155444
0.00155442
0.00155443
0.00155445
0.00175815
0.00175819
0.0017582
0.00175819
0.00175819
0.00175819
0.00175819
0.00175819
0.00175819
0.00175819
0.00175817
0.00175812
0.00175808
0.00175806
0.00175805
0.00175804
0.00175804
0.00175803
0.001758
0.00175796
0.00175795
0.00175795
0.00175795
0.00175795
0.00175795
0.00175795
0.00175795
0.00175795
0.00175795
0.00175795
0.00175795
0.00175795
0.00175795
0.00175795
0.00175796
0.00175796
0.00175795
0.00175794
0.00175795
0.00175798
0.00194617
0.00194622
0.00194622
0.00194621
0.00194621
0.00194621
0.00194621
0.0019462
0.00194621
0.0019462
0.00194616
0.00194609
0.00194604
0.00194601
0.001946
0.00194599
0.00194597
0.00194595
0.00194592
0.0019459
0.0019459
0.0019459
0.0019459
0.00194591
0.0019459
0.00194591
0.00194591
0.0019459
0.00194591
0.00194591
0.00194591
0.00194591
0.00194591
0.00194591
0.00194591
0.00194591
0.00194591
0.00194591
0.00194591
0.00194596
0.00211807
0.00211812
0.00211812
0.00211811
0.0021181
0.0021181
0.0021181
0.0021181
0.00211809
0.00211808
0.00211802
0.00211795
0.00211789
0.00211785
0.00211783
0.00211781
0.00211779
0.00211776
0.00211773
0.00211773
0.00211773
0.00211773
0.00211774
0.00211774
0.00211774
0.00211775
0.00211775
0.00211775
0.00211775
0.00211775
0.00211775
0.00211775
0.00211776
0.00211776
0.00211775
0.00211776
0.00211776
0.00211777
0.00211776
0.00211782
0.0022738
0.00227385
0.00227385
0.00227383
0.00227382
0.00227382
0.00227382
0.00227381
0.00227381
0.00227379
0.00227372
0.00227364
0.00227357
0.00227353
0.00227349
0.00227347
0.00227344
0.0022734
0.00227338
0.00227339
0.00227339
0.0022734
0.00227339
0.00227341
0.00227342
0.00227343
0.00227343
0.00227343
0.00227343
0.00227344
0.00227344
0.00227344
0.00227344
0.00227344
0.00227344
0.00227345
0.00227346
0.00227345
0.00227345
0.00227352
0.0024136
0.00241365
0.00241364
0.00241362
0.00241361
0.00241361
0.0024136
0.0024136
0.0024136
0.00241358
0.0024135
0.00241341
0.00241334
0.00241329
0.00241324
0.00241321
0.00241318
0.00241314
0.00241314
0.00241314
0.00241314
0.00241314
0.00241316
0.00241318
0.00241319
0.00241321
0.00241321
0.00241321
0.00241321
0.00241322
0.00241322
0.00241323
0.00241323
0.00241323
0.00241323
0.00241324
0.00241324
0.00241323
0.00241323
0.00241331
0.00253783
0.00253787
0.00253787
0.00253785
0.00253784
0.00253784
0.00253784
0.00253784
0.00253784
0.00253782
0.00253774
0.00253766
0.00253758
0.00253752
0.00253748
0.00253744
0.00253739
0.00253736
0.00253736
0.00253735
0.00253736
0.00253737
0.0025374
0.00253742
0.00253744
0.00253745
0.00253746
0.00253747
0.00253747
0.00253748
0.00253749
0.00253749
0.00253749
0.00253749
0.00253749
0.00253749
0.00253749
0.00253748
0.00253749
0.00253756
0.00264679
0.0026469
0.00264693
0.00264693
0.00264693
0.00264693
0.00264693
0.00264694
0.00264694
0.00264692
0.00264686
0.00264678
0.0026467
0.00264664
0.00264658
0.00264654
0.00264649
0.00264645
0.00264645
0.00264645
0.00264645
0.00264649
0.00264652
0.00264654
0.00264656
0.00264658
0.00264659
0.0026466
0.00264661
0.00264661
0.00264662
0.00264662
0.00264661
0.00264661
0.00264661
0.00264661
0.00264661
0.00264661
0.00264662
0.00264665
0.00274109
0.00274117
0.0027412
0.00274121
0.00274122
0.00274122
0.00274122
0.00274123
0.00274123
0.00274123
0.00274117
0.0027411
0.00274102
0.00274095
0.00274089
0.00274084
0.0027408
0.00274076
0.00274074
0.00274074
0.00274077
0.0027408
0.00274083
0.00274086
0.00274088
0.00274089
0.00274091
0.00274092
0.00274093
0.00274093
0.00274094
0.00274093
0.00274093
0.00274093
0.00274093
0.00274093
0.00274093
0.00274094
0.00274095
0.00274097
0.00282078
0.00282085
0.00282087
0.00282088
0.00282088
0.00282088
0.00282088
0.00282089
0.0028209
0.00282089
0.00282086
0.00282079
0.00282072
0.00282064
0.00282058
0.00282053
0.00282047
0.00282043
0.00282041
0.00282042
0.00282046
0.00282049
0.00282052
0.00282054
0.00282055
0.00282058
0.00282059
0.00282061
0.00282061
0.00282062
0.00282062
0.00282062
0.00282062
0.00282062
0.00282062
0.00282062
0.00282063
0.00282063
0.00282064
0.00282066
0.0028858
0.00288586
0.00288588
0.00288588
0.00288588
0.00288589
0.00288589
0.00288589
0.0028859
0.0028859
0.00288587
0.00288582
0.00288574
0.00288567
0.00288561
0.00288556
0.0028855
0.00288545
0.00288543
0.00288545
0.00288548
0.00288551
0.00288552
0.00288554
0.00288556
0.00288558
0.0028856
0.00288562
0.00288563
0.00288565
0.00288565
0.00288565
0.00288565
0.00288565
0.00288565
0.00288565
0.00288565
0.00288565
0.00288566
0.00288568
0.00293587
0.00293592
0.00293594
0.00293594
0.00293594
0.00293594
0.00293594
0.00293595
0.00293595
0.00293595
0.00293594
0.0029359
0.00293583
0.00293576
0.0029357
0.00293564
0.00293558
0.00293553
0.00293551
0.00293552
0.00293554
0.00293556
0.00293558
0.00293559
0.00293561
0.00293563
0.00293565
0.00293567
0.00293569
0.0029357
0.00293572
0.00293571
0.00293572
0.00293571
0.00293571
0.00293571
0.00293571
0.00293571
0.00293572
0.00293575
0.00297038
0.00297044
0.00297045
0.00297045
0.00297045
0.00297045
0.00297045
0.00297045
0.00297046
0.00297046
0.00297046
0.00297043
0.00297037
0.0029703
0.00297023
0.00297017
0.00297012
0.00297007
0.00297004
0.00297004
0.00297005
0.00297007
0.00297008
0.0029701
0.00297011
0.00297013
0.00297015
0.00297017
0.00297019
0.00297021
0.00297022
0.00297023
0.00297022
0.00297021
0.00297021
0.00297022
0.00297022
0.00297023
0.00297024
0.00297026
0.0029884
0.00298846
0.00298845
0.00298845
0.00298844
0.00298844
0.00298844
0.00298844
0.00298844
0.00298844
0.00298844
0.00298842
0.00298836
0.00298829
0.00298823
0.00298817
0.00298812
0.00298806
0.00298803
0.00298802
0.00298803
0.00298805
0.00298806
0.00298807
0.00298809
0.0029881
0.00298812
0.00298814
0.00298817
0.00298819
0.0029882
0.00298819
0.00298819
0.00298819
0.0029882
0.0029882
0.00298821
0.00298821
0.00298822
0.00298825
0.00298853
0.0029885
0.00298848
0.00298845
0.00298844
0.00298844
0.00298843
0.00298843
0.00298843
0.00298843
0.00298844
0.00298842
0.00298835
0.00298828
0.00298822
0.00298816
0.00298811
0.00298805
0.00298802
0.00298801
0.00298802
0.00298803
0.00298804
0.00298805
0.00298807
0.00298808
0.00298811
0.00298813
0.00298816
0.00298818
0.00298819
0.00298819
0.00298819
0.00298819
0.0029882
0.0029882
0.0029882
0.0029882
0.00298821
0.00298828
0.00297039
0.00297044
0.00297044
0.00297044
0.00297043
0.00297044
0.00297043
0.00297043
0.00297043
0.00297043
0.00297043
0.00297041
0.00297034
0.00297027
0.0029702
0.00297014
0.00297008
0.00297003
0.00297
0.00297001
0.00297001
0.00297002
0.00297002
0.00297004
0.00297006
0.00297009
0.0029701
0.00297013
0.00297016
0.00297018
0.00297019
0.00297019
0.00297019
0.0029702
0.0029702
0.0029702
0.0029702
0.00297021
0.00297022
0.00297025
0.00293584
0.00293588
0.00293589
0.00293589
0.00293589
0.00293589
0.00293589
0.00293589
0.00293589
0.00293589
0.00293589
0.00293586
0.00293579
0.00293571
0.00293564
0.00293558
0.00293552
0.00293547
0.00293546
0.00293546
0.00293546
0.00293546
0.00293547
0.0029355
0.00293553
0.00293555
0.00293558
0.00293561
0.00293564
0.00293566
0.00293566
0.00293567
0.00293567
0.00293567
0.00293567
0.00293567
0.00293567
0.00293567
0.00293569
0.00293572
0.00288576
0.00288579
0.00288579
0.0028858
0.00288579
0.00288579
0.00288579
0.0028858
0.0028858
0.0028858
0.0028858
0.00288576
0.00288568
0.0028856
0.00288553
0.00288547
0.00288541
0.00288536
0.00288536
0.00288536
0.00288536
0.00288536
0.00288538
0.00288541
0.00288544
0.00288547
0.00288551
0.00288554
0.00288556
0.00288558
0.00288558
0.00288559
0.00288558
0.00288558
0.00288558
0.00288558
0.00288558
0.00288559
0.0028856
0.00288564
0.00282072
0.00282074
0.00282075
0.00282075
0.00282074
0.00282075
0.00282075
0.00282075
0.00282075
0.00282076
0.00282076
0.00282071
0.00282062
0.00282054
0.00282047
0.00282041
0.00282035
0.00282031
0.00282031
0.00282031
0.00282031
0.00282032
0.00282035
0.00282038
0.00282041
0.00282044
0.00282048
0.00282051
0.00282054
0.00282055
0.00282054
0.00282054
0.00282054
0.00282053
0.00282054
0.00282054
0.00282054
0.00282055
0.00282056
0.0028206
0.00274101
0.00274103
0.00274104
0.00274104
0.00274103
0.00274104
0.00274104
0.00274104
0.00274104
0.00274105
0.00274105
0.00274099
0.0027409
0.00274082
0.00274075
0.00274069
0.00274063
0.0027406
0.0027406
0.00274059
0.00274061
0.00274063
0.00274065
0.00274069
0.00274072
0.00274075
0.00274078
0.00274082
0.00274084
0.00274083
0.00274083
0.00274082
0.00274083
0.00274083
0.00274083
0.00274083
0.00274084
0.00274084
0.00274085
0.00274088
0.00264666
0.00264668
0.00264669
0.00264669
0.00264669
0.0026467
0.00264669
0.00264669
0.0026467
0.00264671
0.0026467
0.00264664
0.00264655
0.00264647
0.0026464
0.00264634
0.00264629
0.00264626
0.00264626
0.00264626
0.00264629
0.0026463
0.00264633
0.00264636
0.00264639
0.00264643
0.00264646
0.00264648
0.00264649
0.00264649
0.00264649
0.00264649
0.00264648
0.00264648
0.00264648
0.00264649
0.0026465
0.00264651
0.00264651
0.00264654
0.00253751
0.00253753
0.00253754
0.00253754
0.00253754
0.00253754
0.00253754
0.00253755
0.00253756
0.00253756
0.00253755
0.00253749
0.0025374
0.00253732
0.00253726
0.00253721
0.00253715
0.00253713
0.00253712
0.00253714
0.00253716
0.00253718
0.00253721
0.00253723
0.00253727
0.00253729
0.00253732
0.00253734
0.00253734
0.00253734
0.00253734
0.00253733
0.00253733
0.00253734
0.00253734
0.00253735
0.00253736
0.00253736
0.00253736
0.00253739
0.00241323
0.00241326
0.00241327
0.00241327
0.00241327
0.00241327
0.00241327
0.00241328
0.00241328
0.00241329
0.00241328
0.00241321
0.00241313
0.00241306
0.00241301
0.00241295
0.0024129
0.00241288
0.00241287
0.00241289
0.00241291
0.00241294
0.00241296
0.00241299
0.00241301
0.00241303
0.00241305
0.00241307
0.00241307
0.00241307
0.00241306
0.00241306
0.00241307
0.00241307
0.00241307
0.00241308
0.00241309
0.0024131
0.0024131
0.00241312
0.00227345
0.00227348
0.00227349
0.00227348
0.00227348
0.00227348
0.00227349
0.00227349
0.0022735
0.0022735
0.00227349
0.00227343
0.00227335
0.00227329
0.00227324
0.00227319
0.00227315
0.00227312
0.00227312
0.00227314
0.00227316
0.00227317
0.0022732
0.00227321
0.00227323
0.00227325
0.00227328
0.00227329
0.00227328
0.00227328
0.00227328
0.00227328
0.00227328
0.00227329
0.00227329
0.0022733
0.00227331
0.00227331
0.00227331
0.00227333
0.00211778
0.00211781
0.00211781
0.0021178
0.0021178
0.00211779
0.00211779
0.0021178
0.00211781
0.00211781
0.0021178
0.00211774
0.00211768
0.00211762
0.00211758
0.00211754
0.0021175
0.00211747
0.00211747
0.00211749
0.0021175
0.00211752
0.00211753
0.00211754
0.00211756
0.00211758
0.0021176
0.0021176
0.0021176
0.0021176
0.0021176
0.0021176
0.0021176
0.0021176
0.00211761
0.00211762
0.00211762
0.00211762
0.00211762
0.00211765
0.00194598
0.00194599
0.00194597
0.00194596
0.00194595
0.00194595
0.00194595
0.00194595
0.00194596
0.00194596
0.00194595
0.0019459
0.00194585
0.0019458
0.00194577
0.00194573
0.0019457
0.00194567
0.00194567
0.00194568
0.00194569
0.0019457
0.00194571
0.00194572
0.00194573
0.00194575
0.00194576
0.00194577
0.00194576
0.00194576
0.00194576
0.00194576
0.00194577
0.00194577
0.00194578
0.00194578
0.00194578
0.00194578
0.00194578
0.00194581
0.00175799
0.00175801
0.001758
0.00175799
0.00175799
0.00175799
0.00175799
0.00175799
0.00175799
0.001758
0.00175798
0.00175794
0.0017579
0.00175787
0.00175784
0.00175781
0.00175779
0.00175776
0.00175775
0.00175776
0.00175776
0.00175776
0.00175777
0.00175778
0.00175779
0.0017578
0.00175782
0.00175782
0.00175781
0.00175781
0.00175782
0.00175782
0.00175782
0.00175782
0.00175782
0.00175782
0.00175782
0.00175783
0.00175783
0.00175785
0.00155443
0.00155445
0.00155446
0.00155446
0.00155447
0.00155447
0.00155447
0.00155447
0.00155447
0.00155447
0.00155446
0.00155443
0.0015544
0.00155438
0.00155436
0.00155434
0.00155432
0.0015543
0.00155428
0.00155428
0.00155427
0.00155428
0.00155429
0.0015543
0.0015543
0.00155431
0.00155432
0.00155432
0.00155432
0.00155432
0.00155432
0.00155432
0.00155432
0.00155432
0.00155432
0.00155432
0.00155433
0.00155433
0.00155433
0.00155434
0.00133667
0.0013367
0.00133672
0.00133674
0.00133675
0.00133675
0.00133675
0.00133676
0.00133676
0.00133676
0.00133675
0.00133673
0.00133671
0.00133669
0.00133668
0.00133667
0.00133665
0.00133664
0.00133662
0.00133661
0.00133661
0.00133661
0.00133662
0.00133662
0.00133663
0.00133663
0.00133663
0.00133663
0.00133663
0.00133664
0.00133664
0.00133664
0.00133664
0.00133664
0.00133664
0.00133664
0.00133664
0.00133664
0.00133664
0.00133665
0.00110723
0.00110727
0.0011073
0.00110732
0.00110734
0.00110735
0.00110735
0.00110735
0.00110736
0.00110736
0.00110735
0.00110734
0.00110733
0.00110732
0.00110731
0.0011073
0.00110729
0.00110728
0.00110727
0.00110726
0.00110725
0.00110725
0.00110726
0.00110726
0.00110726
0.00110726
0.00110726
0.00110726
0.00110727
0.00110727
0.00110727
0.00110727
0.00110727
0.00110727
0.00110727
0.00110727
0.00110727
0.00110727
0.00110727
0.00110726
0.000870105
0.000870118
0.000870139
0.000870155
0.000870167
0.000870176
0.000870182
0.000870185
0.000870188
0.000870188
0.000870185
0.00087018
0.000870173
0.000870167
0.000870162
0.000870158
0.000870153
0.000870145
0.000870136
0.000870129
0.000870124
0.000870122
0.000870122
0.000870123
0.000870124
0.000870125
0.000870126
0.000870127
0.000870128
0.000870129
0.000870129
0.00087013
0.000870131
0.000870131
0.000870132
0.000870132
0.000870133
0.000870135
0.000870135
0.000870128
0.000630339
0.000630345
0.00063035
0.000630356
0.000630363
0.00063037
0.000630375
0.000630378
0.00063038
0.000630381
0.00063038
0.000630378
0.000630375
0.000630372
0.00063037
0.000630368
0.000630365
0.000630361
0.000630355
0.00063035
0.000630346
0.000630344
0.000630344
0.000630344
0.000630344
0.000630345
0.000630345
0.000630346
0.000630347
0.000630347
0.000630348
0.000630348
0.000630349
0.000630349
0.00063035
0.00063035
0.000630351
0.000630351
0.000630351
0.000630351
0.000391376
0.000391377
0.000391378
0.000391379
0.000391382
0.000391385
0.000391388
0.00039139
0.000391392
0.000391392
0.000391392
0.000391392
0.000391391
0.00039139
0.000391389
0.000391389
0.000391387
0.000391385
0.000391383
0.00039138
0.000391378
0.000391377
0.000391376
0.000391376
0.000391376
0.000391376
0.000391377
0.000391377
0.000391377
0.000391378
0.000391378
0.000391378
0.000391379
0.000391379
0.000391379
0.000391379
0.000391379
0.000391379
0.000391379
0.000391381
0.000121239
0.000121239
0.000121239
0.000121239
0.000121239
0.00012124
0.00012124
0.000121241
0.000121241
0.000121242
0.000121242
0.000121242
0.000121242
0.000121242
0.000121242
0.000121242
0.000121242
0.000121242
0.000121241
0.00012124
0.00012124
0.000121239
0.000121239
0.000121239
0.000121239
0.000121239
0.000121239
0.000121239
0.000121239
0.000121239
0.00012124
0.00012124
0.00012124
0.00012124
0.00012124
0.00012124
0.00012124
0.000121239
0.000121239
0.00012124
)
;

boundaryField
{
    bottomWall
    {
        type            nutkWallFunction;
        Cmu             0.09;
        kappa           0.41;
        E               9.8;
        value           uniform 0;
    }
    topWall
    {
        type            nutkWallFunction;
        Cmu             0.09;
        kappa           0.41;
        E               9.8;
        value           uniform 0;
    }
    sides1_half0
    {
        type            empty;
    }
    sides1_half1
    {
        type            empty;
    }
    sides2_half0
    {
        type            empty;
    }
    sides2_half1
    {
        type            empty;
    }
    inout1_half0
    {
        type            cyclic;
    }
    inout1_half1
    {
        type            cyclic;
    }
    inout2_half0
    {
        type            cyclic;
    }
    inout2_half1
    {
        type            cyclic;
    }
}


// ************************************************************************* //
