/*--------------------------------*- C++ -*----------------------------------*\
  =========                 |
  \\      /  F ield         | OpenFOAM: The Open Source CFD Toolbox
   \\    /   O peration     | Website:  https://openfoam.org
    \\  /    A nd           | Version:  dev
     \\/     M anipulation  |

   OpenFOAM for Windows 20.09 (v1)
   Built by CFD Support, www.cfdsupport.com (based on Symscape).
\*---------------------------------------------------------------------------*/
FoamFile
{
    version     2.0;
    format      ascii;
    class       volScalarField;
    location    "80";
    object      p;
}
// * * * * * * * * * * * * * * * * * * * * * * * * * * * * * * * * * * * * * //

dimensions      [0 2 -2 0 0 0 0];

internalField   nonuniform List<scalar> 
1600
(
2.29021e-09
-4.12825e-10
-3.65938e-09
-6.10114e-10
4.10502e-09
6.19266e-09
6.59501e-09
7.05288e-09
7.99749e-09
9.15938e-09
1.02199e-08
1.08939e-08
1.1082e-08
1.09147e-08
1.06543e-08
1.04562e-08
1.04265e-08
1.06331e-08
1.12935e-08
1.20021e-08
1.14968e-08
9.72542e-09
8.05802e-09
7.04206e-09
6.66246e-09
6.51795e-09
6.58907e-09
6.62315e-09
6.80104e-09
6.80488e-09
6.95073e-09
6.78874e-09
6.78295e-09
6.48442e-09
6.54673e-09
6.59227e-09
6.34146e-09
5.67303e-09
7.87604e-10
-4.45719e-10
2.8049e-09
-1.35127e-09
-3.36004e-09
8.59959e-10
5.07595e-09
6.63469e-09
6.99584e-09
7.44399e-09
8.29255e-09
9.35362e-09
1.03604e-08
1.10166e-08
1.11924e-08
1.10183e-08
1.07748e-08
1.05799e-08
1.04751e-08
1.06135e-08
1.10579e-08
1.12436e-08
1.04842e-08
9.02525e-09
7.75944e-09
6.99499e-09
6.69592e-09
6.58321e-09
6.60558e-09
6.63465e-09
6.78575e-09
6.81025e-09
6.94171e-09
6.809e-09
6.819e-09
6.43125e-09
6.33488e-09
5.80354e-09
6.03147e-09
4.86616e-09
-1.1759e-10
6.54951e-10
3.02181e-09
-2.49692e-09
-2.71724e-09
2.28166e-09
5.66707e-09
6.70098e-09
7.07027e-09
7.55645e-09
8.33891e-09
9.33663e-09
1.03329e-08
1.10002e-08
1.11496e-08
1.09325e-08
1.06912e-08
1.0493e-08
1.04066e-08
1.05074e-08
1.08952e-08
1.08752e-08
1.00003e-08
8.71656e-09
7.67887e-09
7.03943e-09
6.7403e-09
6.57079e-09
6.61069e-09
6.62139e-09
6.76277e-09
6.79928e-09
6.93287e-09
6.8033e-09
6.83513e-09
6.39553e-09
6.41319e-09
5.57086e-09
6.15699e-09
4.26691e-09
-8.80351e-10
2.08597e-09
3.01461e-09
-3.12645e-09
-1.63958e-09
3.71055e-09
6.1949e-09
6.78172e-09
7.16125e-09
7.66283e-09
8.38244e-09
9.34671e-09
1.03641e-08
1.10434e-08
1.11087e-08
1.08225e-08
1.05946e-08
1.03987e-08
1.0291e-08
1.03775e-08
1.06474e-08
1.03299e-08
9.34348e-09
8.28574e-09
7.53059e-09
7.04715e-09
6.76512e-09
6.60397e-09
6.63668e-09
6.63684e-09
6.77344e-09
6.80946e-09
6.93816e-09
6.7984e-09
6.86165e-09
6.36894e-09
6.47017e-09
5.30451e-09
6.16343e-09
3.36779e-09
-1.56746e-09
3.4343e-09
3.03846e-09
-3.39082e-09
-4.1623e-10
4.97841e-09
6.61901e-09
6.86059e-09
7.25325e-09
7.754e-09
8.4276e-09
9.39624e-09
1.04684e-08
1.10801e-08
1.09979e-08
1.06877e-08
1.04713e-08
1.02589e-08
1.01449e-08
1.02125e-08
1.02169e-08
9.52657e-09
8.53168e-09
7.81238e-09
7.37897e-09
7.02175e-09
6.7893e-09
6.66187e-09
6.67797e-09
6.69291e-09
6.83102e-09
6.83843e-09
6.94929e-09
6.7853e-09
6.88341e-09
6.3327e-09
6.4916e-09
5.02964e-09
6.03991e-09
2.3976e-09
-1.8618e-09
4.99647e-09
3.30157e-09
-3.58226e-09
6.19955e-10
5.90518e-09
6.87297e-09
6.89394e-09
7.30259e-09
7.7913e-09
8.44624e-09
9.46724e-09
1.05262e-08
1.09234e-08
1.07556e-08
1.05162e-08
1.03009e-08
1.0104e-08
1.00029e-08
9.95133e-09
9.52716e-09
8.54506e-09
7.74712e-09
7.43759e-09
7.26371e-09
6.97488e-09
6.80683e-09
6.71938e-09
6.74403e-09
6.79201e-09
6.89712e-09
6.8529e-09
6.95292e-09
6.77399e-09
6.90118e-09
6.28751e-09
6.47061e-09
4.80253e-09
5.89423e-09
1.60365e-09
-1.48413e-09
7.09032e-09
3.82792e-09
-3.5829e-09
1.41661e-09
6.49348e-09
6.99564e-09
6.88e-09
7.28858e-09
7.76465e-09
8.42846e-09
9.47542e-09
1.03327e-08
1.04929e-08
1.04025e-08
1.02898e-08
1.01087e-08
9.94141e-09
9.79113e-09
9.50302e-09
8.6563e-09
7.59243e-09
7.18254e-09
7.20919e-09
7.1398e-09
6.91624e-09
6.80778e-09
6.76613e-09
6.82901e-09
6.86945e-09
6.91402e-09
6.84581e-09
6.95932e-09
6.78856e-09
6.9041e-09
6.23844e-09
6.44427e-09
4.67349e-09
5.78597e-09
1.19039e-09
-4.71829e-10
9.39126e-09
4.53007e-09
-3.33366e-09
2.0694e-09
6.90101e-09
7.06927e-09
6.83672e-09
7.22783e-09
7.6819e-09
8.33535e-09
9.25894e-09
9.80711e-09
9.87123e-09
9.94849e-09
9.97781e-09
9.85809e-09
9.68641e-09
9.45455e-09
8.88672e-09
7.77888e-09
6.92617e-09
6.90618e-09
7.0596e-09
7.00081e-09
6.84692e-09
6.79311e-09
6.80227e-09
6.87823e-09
6.86908e-09
6.88888e-09
6.85876e-09
6.97657e-09
6.82106e-09
6.89543e-09
6.21224e-09
6.42556e-09
4.66907e-09
5.81341e-09
1.23431e-09
9.4903e-10
1.15354e-08
5.34402e-09
-2.86851e-09
2.66998e-09
7.24123e-09
7.13929e-09
6.78815e-09
7.10861e-09
7.52623e-09
8.1086e-09
8.75276e-09
9.03577e-09
9.14871e-09
9.38628e-09
9.53314e-09
9.47219e-09
9.30072e-09
8.99797e-09
8.20424e-09
7.10408e-09
6.65628e-09
6.84026e-09
6.94075e-09
6.87715e-09
6.76364e-09
6.74717e-09
6.80054e-09
6.85796e-09
6.82923e-09
6.88545e-09
6.91194e-09
7.02061e-09
6.84398e-09
6.87051e-09
6.22303e-09
6.44405e-09
4.81451e-09
6.01532e-09
1.66346e-09
2.51633e-09
1.33684e-08
6.25933e-09
-2.20835e-09
3.2355e-09
7.54728e-09
7.2129e-09
6.7003e-09
6.91436e-09
7.29114e-09
7.73115e-09
8.04808e-09
8.1603e-09
8.37148e-09
8.71997e-09
8.94571e-09
8.95037e-09
8.8092e-09
8.43983e-09
7.58895e-09
6.76511e-09
6.6448e-09
6.81986e-09
6.84049e-09
6.76576e-09
6.68731e-09
6.72199e-09
6.77187e-09
6.81184e-09
6.8308e-09
6.94072e-09
6.99369e-09
7.0662e-09
6.85193e-09
6.86212e-09
6.30644e-09
6.54022e-09
5.06383e-09
6.29051e-09
2.32115e-09
4.04664e-09
1.48536e-08
7.28847e-09
-1.37032e-09
3.71174e-09
7.77411e-09
7.24072e-09
6.55755e-09
6.69761e-09
7.00537e-09
7.2432e-09
7.27649e-09
7.29132e-09
7.57286e-09
7.97854e-09
8.26133e-09
8.33817e-09
8.24232e-09
7.85995e-09
7.13982e-09
6.6636e-09
6.66755e-09
6.73847e-09
6.73546e-09
6.71134e-09
6.72156e-09
6.76128e-09
6.76726e-09
6.82832e-09
6.90439e-09
7.03119e-09
7.05943e-09
7.08428e-09
6.88933e-09
6.9247e-09
6.45834e-09
6.64358e-09
5.33055e-09
6.58664e-09
3.0964e-09
5.41899e-09
1.59441e-08
8.38894e-09
-5.0211e-10
3.99857e-09
7.85047e-09
7.23489e-09
6.44511e-09
6.50108e-09
6.69689e-09
6.70782e-09
6.52723e-09
6.48807e-09
6.78611e-09
7.21035e-09
7.54478e-09
7.69087e-09
7.64324e-09
7.31917e-09
6.83906e-09
6.62335e-09
6.63014e-09
6.6471e-09
6.68247e-09
6.76507e-09
6.85802e-09
6.86574e-09
6.85538e-09
6.92291e-09
7.01387e-09
7.12449e-09
7.12081e-09
7.11717e-09
6.95884e-09
7.01437e-09
6.58131e-09
6.70867e-09
5.63223e-09
6.90648e-09
3.90139e-09
6.57091e-09
1.67372e-08
9.35492e-09
2.19153e-10
4.11128e-09
7.85438e-09
7.27921e-09
6.41582e-09
6.34436e-09
6.39922e-09
6.19602e-09
5.86601e-09
5.78863e-09
6.06149e-09
6.48028e-09
6.84345e-09
7.03979e-09
7.04601e-09
6.83757e-09
6.61199e-09
6.56937e-09
6.58191e-09
6.60483e-09
6.7285e-09
6.92488e-09
7.04249e-09
7.04265e-09
7.01789e-09
7.05689e-09
7.13339e-09
7.20689e-09
7.18061e-09
7.16227e-09
7.03753e-09
7.0624e-09
6.65426e-09
6.8038e-09
5.97258e-09
7.19795e-09
4.65242e-09
7.48251e-09
1.72326e-08
9.88309e-09
8.95238e-10
4.29128e-09
7.95879e-09
7.43624e-09
6.47038e-09
6.25076e-09
6.1576e-09
5.79232e-09
5.35721e-09
5.22362e-09
5.4388e-09
5.81714e-09
6.18014e-09
6.41436e-09
6.4769e-09
6.41807e-09
6.42094e-09
6.49318e-09
6.54123e-09
6.65436e-09
6.89096e-09
7.1365e-09
7.24193e-09
7.23564e-09
7.19768e-09
7.20303e-09
7.23146e-09
7.264e-09
7.2148e-09
7.19536e-09
7.09917e-09
7.0802e-09
6.75408e-09
6.95167e-09
6.30484e-09
7.45436e-09
5.33363e-09
8.07241e-09
1.71066e-08
1.00514e-08
1.62374e-09
4.55974e-09
8.13095e-09
7.65071e-09
6.56911e-09
6.20652e-09
5.99234e-09
5.54411e-09
5.02807e-09
4.79467e-09
4.92425e-09
5.23471e-09
5.57637e-09
5.83403e-09
5.97297e-09
6.06328e-09
6.23485e-09
6.40125e-09
6.547e-09
6.81171e-09
7.10511e-09
7.30661e-09
7.39813e-09
7.40692e-09
7.37176e-09
7.3414e-09
7.30866e-09
7.29992e-09
7.24858e-09
7.23348e-09
7.14752e-09
7.12947e-09
6.89817e-09
7.09912e-09
6.59911e-09
7.68538e-09
5.90587e-09
8.31045e-09
1.6385e-08
1.01968e-08
2.27336e-09
4.68887e-09
8.18487e-09
7.80534e-09
6.65775e-09
6.17829e-09
5.88864e-09
5.42602e-09
4.84187e-09
4.50469e-09
4.53061e-09
4.75416e-09
5.04745e-09
5.32836e-09
5.54671e-09
5.74753e-09
6.03754e-09
6.33074e-09
6.63143e-09
6.97904e-09
7.24905e-09
7.42051e-09
7.51813e-09
7.55142e-09
7.5206e-09
7.45992e-09
7.40275e-09
7.36456e-09
7.31216e-09
7.29473e-09
7.21595e-09
7.20229e-09
7.02075e-09
7.21306e-09
6.84395e-09
7.86147e-09
6.35022e-09
8.34565e-09
1.55718e-08
1.04097e-08
2.79206e-09
4.63515e-09
8.09357e-09
7.88681e-09
6.71552e-09
6.14148e-09
5.8075e-09
5.33877e-09
4.76081e-09
4.35396e-09
4.25603e-09
4.3777e-09
4.62286e-09
4.91685e-09
5.18094e-09
5.46192e-09
5.8534e-09
6.29098e-09
6.71103e-09
7.06921e-09
7.32728e-09
7.51117e-09
7.62119e-09
7.66358e-09
7.63846e-09
7.58226e-09
7.52648e-09
7.46531e-09
7.39409e-09
7.35812e-09
7.2744e-09
7.25576e-09
7.11098e-09
7.29797e-09
7.03858e-09
7.97779e-09
6.69197e-09
8.29474e-09
1.48705e-08
1.0628e-08
3.20995e-09
4.4842e-09
7.92792e-09
7.9191e-09
6.73955e-09
6.09656e-09
5.74285e-09
5.30181e-09
4.75921e-09
4.30105e-09
4.08408e-09
4.11037e-09
4.30691e-09
4.58823e-09
4.88399e-09
5.23215e-09
5.70504e-09
6.24427e-09
6.72254e-09
7.09214e-09
7.37209e-09
7.57311e-09
7.69507e-09
7.74554e-09
7.73993e-09
7.70634e-09
7.64365e-09
7.56118e-09
7.46954e-09
7.4079e-09
7.3145e-09
7.29353e-09
7.18762e-09
7.37006e-09
7.18584e-09
8.04191e-09
6.94722e-09
8.19977e-09
1.42605e-08
1.07925e-08
3.53758e-09
4.30073e-09
7.72476e-09
7.90436e-09
6.74665e-09
6.0657e-09
5.70756e-09
5.29612e-09
4.7851e-09
4.30023e-09
3.99546e-09
3.93652e-09
4.08e-09
4.34713e-09
4.67178e-09
5.07057e-09
5.59287e-09
6.17692e-09
6.68672e-09
7.07873e-09
7.38238e-09
7.60079e-09
7.73743e-09
7.80738e-09
7.82189e-09
7.79435e-09
7.7266e-09
7.63923e-09
7.53689e-09
7.45135e-09
7.35216e-09
7.33222e-09
7.2514e-09
7.42677e-09
7.28565e-09
8.06393e-09
7.1176e-09
8.0799e-09
1.37263e-08
1.08435e-08
3.69243e-09
4.11448e-09
7.52746e-09
7.85506e-09
6.7372e-09
6.04542e-09
5.69098e-09
5.30304e-09
4.81622e-09
4.32e-09
3.95476e-09
3.83071e-09
3.93728e-09
4.19717e-09
4.54298e-09
4.97524e-09
5.52328e-09
6.12382e-09
6.64892e-09
7.05875e-09
7.37809e-09
7.61178e-09
7.76458e-09
7.84859e-09
7.87293e-09
7.84681e-09
7.78187e-09
7.69377e-09
7.58223e-09
7.483e-09
7.38186e-09
7.36503e-09
7.2955e-09
7.45803e-09
7.33168e-09
8.05109e-09
7.18893e-09
7.96348e-09
1.33408e-08
1.0694e-08
3.54175e-09
3.95808e-09
7.41429e-09
7.79254e-09
6.70447e-09
6.03309e-09
5.69687e-09
5.32821e-09
4.85338e-09
4.34132e-09
3.93614e-09
3.78001e-09
3.87497e-09
4.13669e-09
4.49517e-09
4.95014e-09
5.52227e-09
6.12635e-09
6.6418e-09
7.05424e-09
7.38446e-09
7.62898e-09
7.78889e-09
7.87647e-09
7.90067e-09
7.87046e-09
7.80137e-09
7.70788e-09
7.58744e-09
7.48302e-09
7.38642e-09
7.37508e-09
7.30477e-09
7.46006e-09
7.32014e-09
8.01619e-09
7.12895e-09
7.84851e-09
1.31809e-08
1.03155e-08
3.07307e-09
3.84581e-09
7.40836e-09
7.72844e-09
6.65549e-09
6.03619e-09
5.73339e-09
5.3785e-09
4.90296e-09
4.36447e-09
3.93757e-09
3.78633e-09
3.89413e-09
4.16538e-09
4.529e-09
5.00228e-09
5.59877e-09
6.18719e-09
6.67143e-09
7.07922e-09
7.41353e-09
7.6562e-09
7.81098e-09
7.88783e-09
7.89569e-09
7.85426e-09
7.77405e-09
7.66929e-09
7.53811e-09
7.44037e-09
7.35853e-09
7.3585e-09
7.28012e-09
7.43776e-09
7.25523e-09
7.96416e-09
6.93965e-09
7.72878e-09
1.32238e-08
9.79434e-09
2.38065e-09
3.73059e-09
7.42862e-09
7.64178e-09
6.59257e-09
6.05503e-09
5.79708e-09
5.45563e-09
4.97033e-09
4.40243e-09
3.97888e-09
3.86618e-09
4.00403e-09
4.28506e-09
4.64155e-09
5.12421e-09
5.7289e-09
6.2838e-09
6.73806e-09
7.13479e-09
7.44895e-09
7.67119e-09
7.80539e-09
7.85485e-09
7.84524e-09
7.79337e-09
7.69095e-09
7.56543e-09
7.43989e-09
7.37373e-09
7.31247e-09
7.32213e-09
7.22683e-09
7.39112e-09
7.14578e-09
7.89099e-09
6.65987e-09
7.62993e-09
1.34386e-08
9.20416e-09
1.54955e-09
3.58812e-09
7.4364e-09
7.53452e-09
6.52801e-09
6.08956e-09
5.88411e-09
5.56362e-09
5.07042e-09
4.48663e-09
4.09547e-09
4.04139e-09
4.21436e-09
4.49676e-09
4.8277e-09
5.30025e-09
5.88388e-09
6.40034e-09
6.83249e-09
7.19566e-09
7.46451e-09
7.64809e-09
7.74308e-09
7.763e-09
7.75119e-09
7.6762e-09
7.54514e-09
7.41765e-09
7.32306e-09
7.3069e-09
7.25344e-09
7.27265e-09
7.15286e-09
7.32194e-09
6.99178e-09
7.7881e-09
6.3049e-09
7.54061e-09
1.37591e-08
8.63274e-09
7.09804e-10
3.36997e-09
7.42205e-09
7.42315e-09
6.47154e-09
6.13723e-09
5.99766e-09
5.71036e-09
5.22455e-09
4.65714e-09
4.32246e-09
4.32976e-09
4.52664e-09
4.79023e-09
5.08613e-09
5.51955e-09
6.04804e-09
6.52352e-09
6.93251e-09
7.24106e-09
7.43941e-09
7.56369e-09
7.61014e-09
7.62151e-09
7.60021e-09
7.50216e-09
7.35559e-09
7.25092e-09
7.21095e-09
7.23808e-09
7.19091e-09
7.22354e-09
7.06683e-09
7.23418e-09
6.78969e-09
7.64734e-09
5.88919e-09
7.44085e-09
1.41493e-08
8.11303e-09
1.14845e-14
3.25618e-09
7.43077e-09
7.32552e-09
6.42585e-09
6.19694e-09
6.13967e-09
5.90188e-09
5.4435e-09
4.93083e-09
4.67357e-09
4.73018e-09
4.93764e-09
5.17516e-09
5.41464e-09
5.77203e-09
6.21581e-09
6.64747e-09
7.01455e-09
7.2398e-09
7.355e-09
7.41344e-09
7.41598e-09
7.42598e-09
7.39793e-09
7.29528e-09
7.1482e-09
7.0912e-09
7.11224e-09
7.17004e-09
7.13399e-09
7.17221e-09
6.95532e-09
7.12691e-09
6.54907e-09
7.49195e-09
5.44928e-09
7.30667e-09
1.4567e-08
7.60395e-09
-6.39955e-10
3.32502e-09
7.51117e-09
7.24987e-09
6.39589e-09
6.27643e-09
6.30245e-09
6.11871e-09
5.71903e-09
5.30412e-09
5.13562e-09
5.24261e-09
5.46238e-09
5.65139e-09
5.80102e-09
6.05795e-09
6.38843e-09
6.75301e-09
7.04163e-09
7.16048e-09
7.2092e-09
7.20654e-09
7.18665e-09
7.19741e-09
7.17088e-09
7.06148e-09
6.94971e-09
6.96405e-09
7.01691e-09
7.10566e-09
7.06322e-09
7.09707e-09
6.80972e-09
7.00474e-09
6.31097e-09
7.37212e-09
5.0026e-09
7.12926e-09
1.50171e-08
7.16687e-09
-1.17349e-09
3.42827e-09
7.59338e-09
7.19165e-09
6.39016e-09
6.36925e-09
6.46325e-09
6.35749e-09
6.05681e-09
5.76718e-09
5.71216e-09
5.87393e-09
6.08316e-09
6.19278e-09
6.25263e-09
6.37219e-09
6.554e-09
6.82323e-09
6.99837e-09
7.01768e-09
7.00942e-09
6.967e-09
6.95214e-09
6.97071e-09
6.92277e-09
6.82456e-09
6.77859e-09
6.85213e-09
6.92013e-09
7.02941e-09
6.95733e-09
6.98642e-09
6.64753e-09
6.89608e-09
6.10641e-09
7.28333e-09
4.53694e-09
6.87194e-09
1.54637e-08
6.85631e-09
-1.64219e-09
3.4311e-09
7.62236e-09
7.13441e-09
6.39538e-09
6.45809e-09
6.63759e-09
6.63201e-09
6.44281e-09
6.3103e-09
6.39399e-09
6.58806e-09
6.7545e-09
6.80531e-09
6.77374e-09
6.70541e-09
6.72589e-09
6.86712e-09
6.8899e-09
6.82316e-09
6.78056e-09
6.74261e-09
6.73125e-09
6.72421e-09
6.65322e-09
6.61716e-09
6.63333e-09
6.7401e-09
6.81902e-09
6.92045e-09
6.81216e-09
6.86535e-09
6.50478e-09
6.81274e-09
5.90558e-09
7.206e-09
4.05163e-09
6.44852e-09
1.58134e-08
6.6339e-09
-2.14762e-09
3.30745e-09
7.59458e-09
7.08646e-09
6.41207e-09
6.56101e-09
6.8228e-09
6.89941e-09
6.85251e-09
6.92435e-09
7.14845e-09
7.35547e-09
7.47799e-09
7.47452e-09
7.33613e-09
7.08434e-09
6.91971e-09
6.86801e-09
6.73253e-09
6.62785e-09
6.57511e-09
6.53951e-09
6.50389e-09
6.45146e-09
6.41406e-09
6.43977e-09
6.48978e-09
6.63246e-09
6.70223e-09
6.78774e-09
6.65989e-09
6.76337e-09
6.37063e-09
6.73825e-09
5.71857e-09
7.14324e-09
3.54541e-09
5.81517e-09
1.60133e-08
6.33874e-09
-2.67615e-09
3.13322e-09
7.55627e-09
7.08157e-09
6.46885e-09
6.67858e-09
6.98011e-09
7.14165e-09
7.28999e-09
7.58578e-09
7.93465e-09
8.15768e-09
8.24286e-09
8.17898e-09
7.93154e-09
7.51355e-09
7.11804e-09
6.82702e-09
6.59907e-09
6.48995e-09
6.41715e-09
6.35616e-09
6.25896e-09
6.20503e-09
6.20512e-09
6.26294e-09
6.35722e-09
6.52608e-09
6.57465e-09
6.66681e-09
6.52595e-09
6.66369e-09
6.23753e-09
6.69032e-09
5.57038e-09
7.07488e-09
3.04406e-09
4.97606e-09
1.59275e-08
5.79723e-09
-2.89624e-09
3.08953e-09
7.5817e-09
7.16323e-09
6.59145e-09
6.81448e-09
7.12762e-09
7.38358e-09
7.73753e-09
8.25098e-09
8.72216e-09
8.96151e-09
9.01267e-09
8.89623e-09
8.55087e-09
7.97747e-09
7.32782e-09
6.82767e-09
6.55151e-09
6.42273e-09
6.31685e-09
6.18969e-09
6.03996e-09
5.98521e-09
5.99003e-09
6.10519e-09
6.24094e-09
6.41309e-09
6.4476e-09
6.56631e-09
6.40908e-09
6.5765e-09
6.15286e-09
6.67244e-09
5.43842e-09
6.99968e-09
2.62197e-09
3.83366e-09
1.49751e-08
5.07081e-09
-2.78675e-09
3.07524e-09
7.59495e-09
7.30047e-09
6.76516e-09
6.96959e-09
7.28117e-09
7.6234e-09
8.16779e-09
8.88174e-09
9.46095e-09
9.72525e-09
9.7416e-09
9.57351e-09
9.16592e-09
8.47373e-09
7.63158e-09
6.96864e-09
6.60868e-09
6.43418e-09
6.24137e-09
6.01948e-09
5.84345e-09
5.78651e-09
5.80753e-09
5.97265e-09
6.10884e-09
6.28843e-09
6.33e-09
6.47224e-09
6.32816e-09
6.54893e-09
6.12173e-09
6.65716e-09
5.33174e-09
6.93538e-09
2.3843e-09
2.47966e-09
1.3131e-08
4.42413e-09
-2.63646e-09
2.76708e-09
7.37908e-09
7.3705e-09
6.92607e-09
7.11175e-09
7.4231e-09
7.84571e-09
8.56038e-09
9.45092e-09
1.01188e-08
1.03993e-08
1.03821e-08
1.01767e-08
9.75175e-09
9.01372e-09
8.08415e-09
7.29038e-09
6.78447e-09
6.47403e-09
6.14183e-09
5.86477e-09
5.67373e-09
5.63863e-09
5.67277e-09
5.83216e-09
5.97676e-09
6.17384e-09
6.21715e-09
6.39091e-09
6.29763e-09
6.56694e-09
6.1141e-09
6.63496e-09
5.28038e-09
6.89593e-09
2.41568e-09
1.20734e-09
1.09676e-08
4.17853e-09
-2.41313e-09
1.98872e-09
6.74943e-09
7.24378e-09
6.98876e-09
7.18404e-09
7.51834e-09
8.03021e-09
8.89307e-09
9.92448e-09
1.06609e-08
1.09562e-08
1.09195e-08
1.06924e-08
1.02777e-08
9.57774e-09
8.64608e-09
7.75184e-09
7.04905e-09
6.52957e-09
6.06986e-09
5.76011e-09
5.56397e-09
5.53303e-09
5.54622e-09
5.70671e-09
5.86481e-09
6.07613e-09
6.1261e-09
6.34302e-09
6.2912e-09
6.56871e-09
6.11314e-09
6.60553e-09
5.29614e-09
6.86158e-09
2.75218e-09
2.25124e-10
8.83078e-09
4.51612e-09
-2.37307e-09
6.14232e-10
5.57966e-09
6.83246e-09
6.89431e-09
7.14073e-09
7.53426e-09
8.15803e-09
9.1468e-09
1.02812e-08
1.1073e-08
1.13902e-08
1.13499e-08
1.11107e-08
1.0719e-08
1.0104e-08
9.23175e-09
8.27291e-09
7.38082e-09
6.66338e-09
6.07879e-09
5.71867e-09
5.49613e-09
5.44219e-09
5.43024e-09
5.60782e-09
5.7683e-09
5.99228e-09
6.06771e-09
6.30907e-09
6.27477e-09
6.53706e-09
6.12317e-09
6.56392e-09
5.37374e-09
6.7736e-09
3.34597e-09
-1.39895e-10
7.40368e-09
5.15736e-09
-2.27336e-09
-9.54366e-10
4.027e-09
6.18556e-09
6.66121e-09
6.98413e-09
7.46432e-09
8.22917e-09
9.32689e-09
1.0527e-08
1.13666e-08
1.1712e-08
1.16757e-08
1.14303e-08
1.10672e-08
1.05472e-08
9.75469e-09
8.78105e-09
7.7619e-09
6.87713e-09
6.15416e-09
5.71664e-09
5.44612e-09
5.36059e-09
5.33435e-09
5.52268e-09
5.6814e-09
5.92176e-09
6.02286e-09
6.27e-09
6.25126e-09
6.49255e-09
6.14577e-09
6.49841e-09
5.48711e-09
6.59776e-09
4.1021e-09
1.6901e-10
6.54404e-09
5.42132e-09
-1.25759e-09
-1.90164e-09
2.50221e-09
5.46385e-09
6.3698e-09
6.76614e-09
7.33754e-09
8.26229e-09
9.46918e-09
1.07086e-08
1.15859e-08
1.19612e-08
1.19242e-08
1.1667e-08
1.13325e-08
1.08992e-08
1.01772e-08
9.20304e-09
8.10161e-09
7.08226e-09
6.23427e-09
5.71185e-09
5.39478e-09
5.2909e-09
5.25545e-09
5.44493e-09
5.60972e-09
5.87135e-09
5.99541e-09
6.24534e-09
6.24338e-09
6.45467e-09
6.1735e-09
6.40903e-09
5.60104e-09
6.34222e-09
4.87561e-09
8.04558e-10
5.14551e-09
5.26342e-09
4.48872e-10
-2.17006e-09
1.18564e-09
4.75018e-09
6.04831e-09
6.49988e-09
7.15264e-09
8.24349e-09
9.57577e-09
1.08562e-08
1.17637e-08
1.21697e-08
1.21297e-08
1.18596e-08
1.15438e-08
1.12069e-08
1.0544e-08
9.54615e-09
8.36293e-09
7.22372e-09
6.26621e-09
5.66628e-09
5.31832e-09
5.20473e-09
5.1747e-09
5.37969e-09
5.56275e-09
5.84194e-09
5.99175e-09
6.24552e-09
6.25061e-09
6.4474e-09
6.21081e-09
6.34509e-09
5.70513e-09
5.98433e-09
5.43636e-09
1.56294e-09
3.37402e-09
5.27502e-09
1.61339e-09
-2.16083e-09
2.28952e-10
4.0495e-09
5.60369e-09
5.93819e-09
6.57986e-09
7.84134e-09
9.36489e-09
1.07335e-08
1.16693e-08
1.21259e-08
1.21535e-08
1.19212e-08
1.16593e-08
1.15115e-08
1.11979e-08
1.03829e-08
9.10115e-09
7.72358e-09
6.51955e-09
5.73839e-09
5.28995e-09
5.12956e-09
5.06656e-09
5.21775e-09
5.37189e-09
5.71111e-09
5.84624e-09
6.17642e-09
6.16806e-09
6.41631e-09
6.27179e-09
6.36152e-09
6.1116e-09
5.83206e-09
5.89717e-09
2.14658e-09
2.42407e-09
)
;

boundaryField
{
    bottomWall
    {
        type            zeroGradient;
    }
    topWall
    {
        type            zeroGradient;
    }
    sides1_half0
    {
        type            empty;
    }
    sides1_half1
    {
        type            empty;
    }
    sides2_half0
    {
        type            empty;
    }
    sides2_half1
    {
        type            empty;
    }
    inout1_half0
    {
        type            cyclic;
    }
    inout1_half1
    {
        type            cyclic;
    }
    inout2_half0
    {
        type            cyclic;
    }
    inout2_half1
    {
        type            cyclic;
    }
}


// ************************************************************************* //
