/*--------------------------------*- C++ -*----------------------------------*\
  =========                 |
  \\      /  F ield         | OpenFOAM: The Open Source CFD Toolbox
   \\    /   O peration     | Website:  https://openfoam.org
    \\  /    A nd           | Version:  dev
     \\/     M anipulation  |

   OpenFOAM for Windows 20.09 (v1)
   Built by CFD Support, www.cfdsupport.com (based on Symscape).
\*---------------------------------------------------------------------------*/
FoamFile
{
    version     2.0;
    format      ascii;
    class       surfaceScalarField;
    location    "80";
    object      phi;
}
// * * * * * * * * * * * * * * * * * * * * * * * * * * * * * * * * * * * * * //

dimensions      [0 3 -1 0 0 0 0];

internalField   nonuniform List<scalar> 
3120
(
0.000625024
-1.51674e-09
0.000625023
2.22271e-10
0.000625023
8.87631e-10
0.000625022
1.91361e-10
0.000625023
-1.83146e-10
0.000625023
-1.5901e-10
0.000625023
-1.37326e-10
0.000625023
-1.91982e-10
0.000625023
-2.48497e-10
0.000625024
-2.86949e-10
0.000625024
-2.92837e-10
0.000625024
-2.59747e-10
0.000625024
-1.95861e-10
0.000625024
-1.21698e-10
0.000625024
-5.70197e-11
0.000625024
-9.99667e-12
0.000625024
1.66115e-11
0.000625024
2.77941e-11
0.000625024
6.86971e-11
0.000625024
1.91232e-10
0.000625024
3.248e-10
0.000625024
3.44026e-10
0.000625023
2.60158e-10
0.000625023
1.56316e-10
0.000625023
5.64597e-11
0.000625023
4.48037e-12
0.000625023
-5.73986e-11
0.000625023
-4.58243e-11
0.000625023
-9.42247e-11
0.000625023
-1.81193e-11
0.000625023
-8.9382e-11
0.000625023
6.9474e-11
0.000625023
-4.65477e-11
0.000625023
1.88632e-10
0.000625023
4.72266e-11
0.000625023
2.23639e-10
0.000625023
2.83803e-10
0.000625023
-1.10707e-10
0.000625022
9.67736e-10
-4.0933e-10
0.00073536
-1.46132e-09
0.00073536
8.95153e-10
0.000735359
1.25868e-09
0.000735359
2.56999e-10
0.000735359
-2.14781e-10
0.000735359
-2.51997e-10
0.000735359
-2.62808e-10
0.00073536
-3.35773e-10
0.00073536
-4.18062e-10
0.00073536
-4.88891e-10
0.00073536
-5.0754e-10
0.00073536
-4.50175e-10
0.000735361
-3.3067e-10
0.000735361
-1.9425e-10
0.000735361
-7.78516e-11
0.000735361
6.45667e-12
0.000735361
4.97726e-11
0.000735361
5.16057e-11
0.000735361
1.00057e-10
0.00073536
2.69023e-10
0.00073536
4.67933e-10
0.00073536
5.15792e-10
0.00073536
4.22563e-10
0.00073536
2.70949e-10
0.00073536
1.26248e-10
0.00073536
2.33195e-11
0.00073536
-6.53962e-11
0.00073536
-8.24836e-11
0.00073536
-1.3136e-10
0.00073536
-6.05973e-11
0.00073536
-1.17751e-10
0.00073536
6.39446e-11
0.00073536
-3.35709e-11
0.00073536
2.4352e-10
0.00073536
5.45197e-11
0.00073536
3.11953e-10
0.00073536
2.11907e-10
0.00073536
4.95905e-11
0.00073536
9.39067e-10
-1.10377e-09
0.0008073
-8.30214e-10
0.000807299
1.38703e-09
0.000807299
1.29063e-09
0.000807299
2.26084e-10
0.000807299
-2.53463e-10
0.000807299
-3.39398e-10
0.0008073
-3.75353e-10
0.0008073
-4.52592e-10
0.0008073
-5.48626e-10
0.0008073
-6.44259e-10
0.0008073
-6.72581e-10
0.0008073
-5.90927e-10
0.0008073
-4.20619e-10
0.0008073
-2.35693e-10
0.0008073
-8.05268e-11
0.0008073
3.3424e-11
0.0008073
8.9931e-11
0.0008073
9.07687e-11
0.0008073
1.47278e-10
0.0008073
3.3894e-10
0.0008073
5.58118e-10
0.0008073
6.1941e-10
0.0008073
5.28649e-10
0.0008073
3.57927e-10
0.0008073
1.93062e-10
0.0008073
5.65358e-11
0.0008073
-5.37049e-11
0.0008073
-9.92071e-11
0.0008073
-1.46173e-10
0.0008073
-9.62149e-11
0.0008073
-1.28606e-10
0.0008073
4.05824e-11
0.0008073
-1.43778e-11
0.0008073
2.44776e-10
0.0008073
5.26441e-11
0.0008073
3.10104e-10
0.0008073
1.09467e-10
0.0008073
1.58992e-10
0.0008073
5.58341e-10
-1.41015e-09
0.00086783
-1.60262e-10
0.00086783
1.61533e-09
0.00086783
1.17461e-09
0.00086783
1.68126e-10
0.00086783
-2.85077e-10
0.00086783
-4.05807e-10
0.000867831
-4.60495e-10
0.000867831
-5.35481e-10
0.000867831
-6.37662e-10
0.000867831
-7.48982e-10
0.000867831
-7.78277e-10
0.000867831
-6.65398e-10
0.000867831
-4.58307e-10
0.000867831
-2.48302e-10
0.000867831
-6.86583e-11
0.000867831
6.75393e-11
0.000867831
1.36428e-10
0.000867831
1.47848e-10
0.000867831
2.18275e-10
0.000867831
4.06066e-10
0.000867831
6.08986e-10
0.000867831
6.66911e-10
0.000867831
5.85222e-10
0.000867831
4.21683e-10
0.000867831
2.51184e-10
0.00086783
9.32656e-11
0.00086783
-3.08949e-11
0.00086783
-9.96898e-11
0.00086783
-1.46568e-10
0.00086783
-1.19083e-10
0.00086783
-1.27845e-10
0.000867831
1.2579e-11
0.00086783
3.34575e-12
0.000867831
2.10373e-10
0.000867831
5.34704e-11
0.000867831
2.53038e-10
0.000867831
1.31759e-11
0.000867831
1.71133e-10
0.000867831
1.09655e-10
-1.41146e-09
0.000923327
3.45019e-10
0.000923327
1.62534e-09
0.000923327
1.01228e-09
0.000923327
1.18794e-10
0.000923327
-3.00457e-10
0.000923328
-4.46412e-10
0.000923328
-5.11781e-10
0.000923328
-5.79041e-10
0.000923328
-6.80433e-10
0.000923328
-7.94151e-10
0.000923328
-8.08e-10
0.000923328
-6.71153e-10
0.000923328
-4.53628e-10
0.000923328
-2.35459e-10
0.000923328
-4.12456e-11
0.000923328
1.09351e-10
0.000923328
1.90716e-10
0.000923328
2.20241e-10
0.000923327
2.94363e-10
0.000923327
4.51637e-10
0.000923327
6.15424e-10
0.000923327
6.62852e-10
0.000923327
6.01058e-10
0.000923327
4.60193e-10
0.000923327
2.9659e-10
0.000923327
1.31238e-10
0.000923327
-7.54678e-13
0.000923327
-8.68988e-11
0.000923327
-1.34937e-10
0.000923327
-1.28114e-10
0.000923327
-1.21707e-10
0.000923327
-1.44248e-11
0.000923327
1.31159e-11
0.000923327
1.60467e-10
0.000923327
4.97986e-11
0.000923327
1.63146e-10
0.000923327
-7.66786e-11
0.000923328
9.50547e-11
0.000923328
-2.88212e-10
-1.24319e-09
0.000976502
6.68947e-10
0.000976502
1.48287e-09
0.000976503
8.32207e-10
0.000976503
7.20355e-11
0.000976503
-3.09745e-10
0.000976503
-4.64632e-10
0.000976503
-5.28515e-10
0.000976503
-5.82833e-10
0.000976503
-6.73494e-10
0.000976503
-7.73167e-10
0.000976503
-7.68624e-10
0.000976503
-6.28606e-10
0.000976503
-4.17348e-10
0.000976503
-1.97028e-10
0.000976502
4.55374e-12
0.000976502
1.65524e-10
0.000976502
2.57293e-10
0.000976502
2.93888e-10
0.000976502
3.4755e-10
0.000976502
4.54852e-10
0.000976502
5.71607e-10
0.000976502
6.19069e-10
0.000976502
5.89041e-10
0.000976502
4.75178e-10
0.000976502
3.28141e-10
0.000976502
1.66134e-10
0.000976502
3.14728e-11
0.000976502
-6.49677e-11
0.000976502
-1.16218e-10
0.000976502
-1.29034e-10
0.000976502
-1.14946e-10
0.000976502
-3.86822e-11
0.000976502
1.29254e-11
0.000976502
1.04345e-10
0.000976502
3.08173e-11
0.000976502
5.39185e-11
0.000976502
-1.65191e-10
0.000976503
-3.71758e-11
0.000976503
-5.79767e-10
-9.72388e-10
0.00102876
8.4682e-10
0.00102876
1.26862e-09
0.00102876
6.50809e-10
0.00102876
2.24129e-11
0.00102876
-3.13774e-10
0.00102876
-4.60149e-10
0.00102876
-5.13759e-10
0.00102876
-5.48477e-10
0.00102876
-6.17259e-10
0.00102876
-6.97762e-10
0.00102876
-6.88573e-10
0.00102876
-5.57879e-10
0.00102876
-3.54019e-10
0.00102876
-1.33379e-10
0.00102876
7.32247e-11
0.00102876
2.39035e-10
0.00102876
3.27562e-10
0.00102876
3.48298e-10
0.00102876
3.59134e-10
0.00102876
4.07429e-10
0.00102876
4.925e-10
0.00102876
5.54023e-10
0.00102876
5.53704e-10
0.00102876
4.70532e-10
0.00102876
3.4302e-10
0.00102876
1.89984e-10
0.00102876
5.83963e-11
0.00102876
-4.28968e-11
0.00102876
-9.86223e-11
0.00102876
-1.27042e-10
0.00102876
-1.10497e-10
0.00102876
-6.06884e-11
0.00102876
1.82626e-12
0.00102876
4.46659e-11
0.00102876
-4.35297e-12
0.00102876
-6.2138e-11
0.00102876
-2.52111e-10
0.00102876
-1.83231e-10
0.00102876
-7.53553e-10
-6.71825e-10
0.00108092
9.09947e-10
0.00108092
1.03724e-09
0.00108092
4.88602e-10
0.00108092
-1.61885e-11
0.00108092
-3.02191e-10
0.00108092
-4.30377e-10
0.00108092
-4.66109e-10
0.00108092
-4.77581e-10
0.00108092
-5.24135e-10
0.00108092
-5.94588e-10
0.00108092
-5.9216e-10
0.00108092
-4.71364e-10
0.00108092
-2.71459e-10
0.00108092
-4.86634e-11
0.00108092
1.60343e-10
0.00108092
3.19582e-10
0.00108092
3.8579e-10
0.00108092
3.69488e-10
0.00108092
3.2708e-10
0.00108092
3.29747e-10
0.00108092
4.03471e-10
0.00108092
4.77635e-10
0.00108092
4.98775e-10
0.00108092
4.43691e-10
0.00108092
3.36327e-10
0.00108092
1.96594e-10
0.00108092
7.19746e-11
0.00108092
-2.99151e-11
0.00108092
-8.80154e-11
0.00108092
-1.24848e-10
0.00108092
-1.11091e-10
0.00108092
-8.05417e-11
0.00108092
-1.7799e-11
0.00108092
-1.53823e-11
0.00108092
-5.32415e-11
0.00108092
-1.73374e-10
0.00108092
-3.27329e-10
0.00108092
-3.10881e-10
0.00108092
-8.28596e-10
-4.0045e-10
0.00113348
8.85355e-10
0.00113348
8.13003e-10
0.00113348
3.59055e-10
0.00113348
-3.00493e-11
0.00113348
-2.65574e-10
0.00113348
-3.70143e-10
0.00113348
-3.86617e-10
0.00113348
-3.78719e-10
0.00113348
-4.13226e-10
0.00113348
-4.86294e-10
0.00113348
-4.9477e-10
0.00113348
-3.80247e-10
0.00113348
-1.81147e-10
0.00113348
4.39797e-11
0.00113348
2.50628e-10
0.00113348
3.91693e-10
0.00113348
4.21935e-10
0.00113348
3.58371e-10
0.00113348
2.7155e-10
0.00113348
2.52734e-10
0.00113348
3.20359e-10
0.00113348
3.95875e-10
0.00113348
4.28152e-10
0.00113348
3.90539e-10
0.00113348
3.00968e-10
0.00113348
1.79714e-10
0.00113348
6.74165e-11
0.00113348
-2.8813e-11
0.00113348
-8.41744e-11
0.00113348
-1.24479e-10
0.00113348
-1.15352e-10
0.00113348
-9.91346e-11
0.00113348
-4.53248e-11
0.00113348
-7.41905e-11
0.00113348
-1.08643e-10
0.00113348
-2.64792e-10
0.00113348
-3.78477e-10
0.00113348
-4.0382e-10
0.00113348
-8.31942e-10
-1.85393e-10
0.00118679
8.01914e-10
0.00118679
6.10397e-10
0.00118679
2.67741e-10
0.00118679
-1.35511e-11
0.00118679
-2.00374e-10
0.00118679
-2.83084e-10
0.00118679
-2.86766e-10
0.00118679
-2.68106e-10
0.00118679
-3.01908e-10
0.00118679
-3.85131e-10
0.00118679
-4.03746e-10
0.00118679
-2.93047e-10
0.00118679
-9.52057e-11
0.00118679
1.2931e-10
0.00118679
3.29088e-10
0.00118679
4.45167e-10
0.00118679
4.33261e-10
0.00118679
3.2738e-10
0.00118679
2.18678e-10
0.00118679
1.91786e-10
0.00118679
2.46276e-10
0.00118679
3.10956e-10
0.00118679
3.40601e-10
0.00118679
3.12389e-10
0.00118679
2.41869e-10
0.00118679
1.42741e-10
0.00118679
4.69334e-11
0.00118679
-3.694e-11
0.00118679
-8.69622e-11
0.00118679
-1.2691e-10
0.00118679
-1.22107e-10
0.00118679
-1.19215e-10
0.00118679
-7.73867e-11
0.00118679
-1.2648e-10
0.00118679
-1.59039e-10
0.00118679
-3.28576e-10
0.00118679
-4.05637e-10
0.00118679
-4.60384e-10
0.00118679
-7.86905e-10
-2.90212e-11
0.00124107
6.92957e-10
0.00124107
4.46911e-10
0.00124107
2.13927e-10
0.00124107
2.68076e-11
0.00124107
-1.19131e-10
0.00124107
-1.86239e-10
0.00124107
-1.8209e-10
0.00124107
-1.61231e-10
0.00124107
-2.02022e-10
0.00124107
-2.95841e-10
0.00124107
-3.21377e-10
0.00124107
-2.15349e-10
0.00124107
-2.20011e-11
0.00124107
1.97654e-10
0.00124107
3.86247e-10
0.00124107
4.74479e-10
0.00124107
4.23135e-10
0.00124107
2.91429e-10
0.00124107
1.78485e-10
0.00124107
1.4388e-10
0.00124107
1.77295e-10
0.00124107
2.22414e-10
0.00124107
2.44279e-10
0.00124107
2.25984e-10
0.00124107
1.74019e-10
0.00124107
9.55496e-11
0.00124107
1.79114e-11
0.00124107
-5.21011e-11
0.00124107
-9.61553e-11
0.00124107
-1.33301e-10
0.00124107
-1.32564e-10
0.00124107
-1.37648e-10
0.00124107
-1.08014e-10
0.00124107
-1.68432e-10
0.00124107
-1.99686e-10
0.00124107
-3.67863e-10
0.00124107
-4.14396e-10
0.00124107
-4.84667e-10
0.00124107
-7.10807e-10
7.75585e-11
0.00129649
5.93978e-10
0.00129649
3.27912e-10
0.00129649
1.79885e-10
0.00129649
6.78681e-11
0.00129649
-4.23059e-11
0.00129649
-9.51132e-11
0.00129649
-8.69468e-11
0.00129649
-7.04957e-11
0.00129649
-1.2084e-10
0.00129649
-2.2086e-10
0.00129649
-2.49898e-10
0.00129649
-1.50514e-10
0.00129649
3.42492e-11
0.00129649
2.44806e-10
0.00129649
4.18234e-10
0.00129649
4.78921e-10
0.00129649
3.98624e-10
0.00129649
2.58349e-10
0.00129649
1.47999e-10
0.00129649
1.03201e-10
0.00129649
1.14688e-10
0.00129649
1.40488e-10
0.00129649
1.56941e-10
0.00129649
1.47832e-10
0.00129649
1.10028e-10
0.00129649
4.87246e-11
0.00129649
-1.38728e-11
0.00129649
-7.16691e-11
0.00129649
-1.08649e-10
0.00129649
-1.4178e-10
0.00129649
-1.43655e-10
0.00129649
-1.53874e-10
0.00129649
-1.36085e-10
0.00129649
-2.00997e-10
0.00129649
-2.30956e-10
0.00129649
-3.86593e-10
0.00129649
-4.07537e-10
0.00129649
-4.80077e-10
0.00129649
-6.14005e-10
1.54004e-10
0.00135316
5.17248e-10
0.00135316
2.24971e-10
0.00135316
1.37838e-10
0.00135316
9.12685e-11
0.00135316
1.861e-11
0.00135316
-1.82343e-11
0.00135316
-9.72758e-12
0.00135316
-2.5269e-12
0.00135316
-6.08409e-11
0.00135316
-1.60223e-10
0.00135316
-1.88895e-10
0.00135316
-9.77229e-11
0.00135316
7.44374e-11
0.00135316
2.70785e-10
0.00135316
4.255e-10
0.00135316
4.62641e-10
0.00135316
3.67056e-10
0.00135316
2.29799e-10
0.00135316
1.25056e-10
0.00135316
7.20877e-11
0.00135316
6.51576e-11
0.00135316
7.71872e-11
0.00135316
9.108e-11
0.00135316
8.72583e-11
0.00135316
5.86131e-11
0.00135316
8.68477e-12
0.00135316
-4.39106e-11
0.00135316
-9.16249e-11
0.00135316
-1.23044e-10
0.00135316
-1.51534e-10
0.00135316
-1.55259e-10
0.00135316
-1.69112e-10
0.00135316
-1.60759e-10
0.00135316
-2.24441e-10
0.00135316
-2.50978e-10
0.00135316
-3.87131e-10
0.00135316
-3.87827e-10
0.00135316
-4.51961e-10
0.00135316
-4.99173e-10
2.29654e-10
0.00141115
4.31179e-10
0.00141115
1.29065e-10
0.00141115
9.47704e-11
0.00141115
1.07073e-10
0.00141115
6.90238e-11
0.00141115
4.49916e-11
0.00141115
5.02387e-11
0.00141115
4.64487e-11
0.00141115
-1.60268e-11
0.00141115
-1.08578e-10
0.00141115
-1.34836e-10
0.00141115
-5.39871e-11
0.00141115
1.01288e-10
0.00141115
2.78577e-10
0.00141115
4.12891e-10
0.00141115
4.31812e-10
0.00141115
3.33443e-10
0.00141115
2.06825e-10
0.00141115
1.09406e-10
0.00141115
5.25222e-11
0.00141115
3.47568e-11
0.00141115
3.94639e-11
0.00141115
5.04015e-11
0.00141115
4.72958e-11
0.00141115
2.2376e-11
0.00141115
-2.18917e-11
0.00141115
-6.88132e-11
0.00141115
-1.10881e-10
0.00141115
-1.39297e-10
0.00141115
-1.63883e-10
0.00141115
-1.68207e-10
0.00141115
-1.81542e-10
0.00141115
-1.79182e-10
0.00141115
-2.363e-10
0.00141115
-2.56849e-10
0.00141115
-3.71124e-10
0.00141115
-3.57204e-10
0.00141115
-4.08829e-10
0.00141115
-3.88962e-10
2.72552e-10
0.00147049
3.18168e-10
0.00147049
3.77317e-11
0.00147049
5.83014e-11
0.00147049
1.21582e-10
0.00147049
1.11103e-10
0.00147049
9.50734e-11
0.00147049
9.54867e-11
0.00147049
8.31748e-11
0.00147049
2.32708e-11
0.00147049
-6.01812e-11
0.00147049
-8.58185e-11
0.00147049
-1.77767e-11
0.00147049
1.17583e-10
0.00147049
2.72391e-10
0.00147049
3.85335e-10
0.00147049
3.92959e-10
0.00147049
3.00808e-10
0.00147049
1.87969e-10
0.00147049
1.00181e-10
0.00147049
4.57262e-11
0.00147049
2.57318e-11
0.00147049
2.5928e-11
0.00147049
3.06358e-11
0.00147049
2.4453e-11
0.00147049
-2.0392e-13
0.00147049
-4.19452e-11
0.00147049
-8.71391e-11
0.00147049
-1.27703e-10
0.00147049
-1.54763e-10
0.00147049
-1.75366e-10
0.00147049
-1.7827e-10
0.00147049
-1.88528e-10
0.00147049
-1.87396e-10
0.00147049
-2.34105e-10
0.00147049
-2.49171e-10
0.00147049
-3.42508e-10
0.00147049
-3.19016e-10
0.00147049
-3.61135e-10
0.00147049
-3.04305e-10
2.61744e-10
0.00153119
2.02198e-10
0.00153119
-5.38327e-11
0.00153119
1.46664e-11
0.00153119
1.19956e-10
0.00153119
1.3315e-10
0.00153119
1.25406e-10
0.00153119
1.24292e-10
0.00153119
1.09414e-10
0.00153119
5.58202e-11
0.00153119
-1.62811e-11
0.00153119
-4.16857e-11
0.00153119
1.2934e-11
0.00153119
1.26376e-10
0.00153119
2.55972e-10
0.00153119
3.48166e-10
0.00153119
3.49861e-10
0.00153119
2.68779e-10
0.00153119
1.71924e-10
0.00153119
9.76419e-11
0.00153119
5.17277e-11
0.00153119
3.21512e-11
0.00153119
2.70983e-11
0.00153119
2.47356e-11
0.00153119
1.37304e-11
0.00153119
-1.22942e-11
0.00153119
-5.29643e-11
0.00153119
-9.77434e-11
0.00153119
-1.37309e-10
0.00153119
-1.63143e-10
0.00153119
-1.79736e-10
0.00153119
-1.80494e-10
0.00153119
-1.86613e-10
0.00153119
-1.84665e-10
0.00153119
-2.20552e-10
0.00153119
-2.31006e-10
0.00153119
-3.04834e-10
0.00153119
-2.76934e-10
0.00153119
-3.13201e-10
0.00153119
-2.39806e-10
2.27102e-10
0.00159323
1.05451e-10
0.00159323
-1.26972e-10
0.00159323
-3.1759e-11
0.00159323
9.85123e-11
0.00159323
1.29935e-10
0.00159323
1.31341e-10
0.00159323
1.3205e-10
0.00159323
1.19029e-10
0.00159323
7.51843e-11
0.00159323
1.77753e-11
0.00159323
-3.55482e-12
0.00159323
3.91311e-11
0.00159323
1.30301e-10
0.00159323
2.34088e-10
0.00159323
3.06009e-10
0.00159323
3.04157e-10
0.00159323
2.36851e-10
0.00159323
1.57749e-10
0.00159323
9.92363e-11
0.00159323
6.30213e-11
0.00159323
4.39182e-11
0.00159323
3.45116e-11
0.00159323
2.59446e-11
0.00159323
1.01293e-11
0.00159323
-1.77504e-11
0.00159323
-5.75192e-11
0.00159323
-1.00469e-10
0.00159323
-1.37615e-10
0.00159323
-1.61355e-10
0.00159323
-1.74267e-10
0.00159323
-1.73078e-10
0.00159323
-1.75033e-10
0.00159323
-1.71548e-10
0.00159323
-1.96993e-10
0.00159323
-2.03699e-10
0.00159323
-2.59587e-10
0.00159323
-2.32173e-10
0.00159323
-2.64649e-10
0.00159323
-1.89594e-10
1.83298e-10
0.00165656
3.29228e-11
0.00165656
-1.60369e-10
0.00165656
-6.14935e-11
0.00165656
6.75506e-11
0.00165656
1.06054e-10
0.00165656
1.13703e-10
0.00165656
1.1695e-10
0.00165656
1.08092e-10
0.00165656
7.74154e-11
0.00165656
3.85596e-11
0.00165656
2.61009e-11
0.00165656
6.08103e-11
0.00165656
1.31461e-10
0.00165656
2.09489e-10
0.00165656
2.61274e-10
0.00165656
2.57378e-10
0.00165656
2.04642e-10
0.00165656
1.42567e-10
0.00165656
9.73923e-11
0.00165656
6.90331e-11
0.00165656
5.16143e-11
0.00165656
3.99873e-11
0.00165656
2.70473e-11
0.00165656
7.69409e-12
0.00165656
-2.1339e-11
0.00165656
-5.90505e-11
0.00165656
-9.80864e-11
0.00165656
-1.30758e-10
0.00165656
-1.50267e-10
0.00165656
-1.58366e-10
0.00165656
-1.54529e-10
0.00165656
-1.51799e-10
0.00165656
-1.46518e-10
0.00165656
-1.6224e-10
0.00165656
-1.66404e-10
0.00165656
-2.06118e-10
0.00165656
-1.8465e-10
0.00165656
-2.13199e-10
0.00165656
-1.49424e-10
1.26881e-10
0.00172107
-2.03108e-11
0.00172107
-1.34573e-10
0.00172107
-5.71647e-11
0.00172107
3.71369e-11
0.00172107
6.83641e-11
0.00172107
7.7847e-11
0.00172107
8.2321e-11
0.00172107
7.79732e-11
0.00172107
6.14723e-11
0.00172107
4.35587e-11
0.00172107
4.53021e-11
0.00172107
7.73966e-11
0.00172107
1.29872e-10
0.00172107
1.82546e-10
0.00172107
2.1466e-10
0.00172107
2.09277e-10
0.00172107
1.7001e-10
0.00172107
1.21605e-10
0.00172107
8.52207e-11
0.00172107
6.2755e-11
0.00172107
4.79581e-11
0.00172107
3.5937e-11
0.00172107
2.1311e-11
0.00172107
8.25101e-13
0.00172107
-2.72353e-11
0.00172107
-6.08661e-11
0.00172107
-9.35864e-11
0.00172107
-1.18437e-10
0.00172107
-1.29973e-10
0.00172107
-1.30178e-10
0.00172107
-1.2168e-10
0.00172107
-1.14049e-10
0.00172107
-1.07481e-10
0.00172107
-1.1458e-10
0.00172107
-1.18397e-10
0.00172107
-1.43466e-10
0.00172107
-1.34252e-10
0.00172107
-1.55421e-10
0.00172107
-1.15879e-10
4.41886e-11
0.00178662
-6.38812e-11
0.00178662
-4.86802e-11
0.00178662
-1.66909e-11
0.00178662
8.52351e-12
0.00178662
2.14118e-11
0.00178662
2.92117e-11
0.00178662
3.26814e-11
0.00178662
3.17475e-11
0.00178662
2.8873e-11
0.00178662
3.28618e-11
0.00178662
5.30579e-11
0.00178662
8.72328e-11
0.00178662
1.23797e-10
0.00178662
1.51813e-10
0.00178662
1.64618e-10
0.00178662
1.57677e-10
0.00178662
1.29757e-10
0.00178662
9.11332e-11
0.00178662
6.00254e-11
0.00178662
4.20332e-11
0.00178662
3.05493e-11
0.00178662
1.97528e-11
0.00178662
5.9926e-12
0.00178662
-1.23667e-11
0.00178662
-3.62274e-11
0.00178662
-6.28371e-11
0.00178662
-8.60369e-11
0.00178662
-9.90472e-11
0.00178662
-9.85893e-11
0.00178662
-8.79021e-11
0.00178662
-7.3253e-11
0.00178662
-6.08591e-11
0.00178662
-5.40484e-11
0.00178662
-5.39998e-11
0.00178662
-6.05548e-11
0.00178662
-7.20532e-11
0.00178662
-8.11214e-11
0.00178662
-8.76033e-11
0.00178662
-7.96884e-11
-6.73008e-11
0.00178662
-9.33801e-11
0.00178662
5.16223e-11
0.00178662
3.1754e-11
0.00178662
-1.96388e-11
0.00178662
-2.80825e-11
0.00178662
-2.38735e-11
0.00178662
-2.28823e-11
0.00178662
-2.21242e-11
0.00178662
-1.33828e-11
0.00178662
1.11349e-11
0.00178662
5.05927e-11
0.00178662
8.88021e-11
0.00178662
1.10809e-10
0.00178662
1.15138e-10
0.00178662
1.09777e-10
0.00178662
1.01782e-10
0.00178662
8.3454e-11
0.00178662
5.18158e-11
0.00178662
2.4548e-11
0.00178662
1.10178e-11
0.00178662
3.11452e-12
0.00178662
-4.8758e-12
0.00178662
-1.45464e-11
0.00178662
-2.69722e-11
0.00178662
-4.3142e-11
0.00178662
-6.02006e-11
0.00178662
-7.13893e-11
0.00178662
-7.02478e-11
0.00178662
-5.61196e-11
0.00178662
-3.37009e-11
0.00178662
-1.33633e-11
0.00178662
2.70736e-12
0.00178662
8.61864e-12
0.00178662
1.43945e-11
0.00178662
3.03868e-12
0.00178662
3.54369e-12
0.00178662
-2.59455e-11
0.00178662
-1.82603e-11
0.00178662
-4.22046e-11
-1.73325e-10
0.00172107
-1.14356e-10
0.00172107
1.19256e-10
0.00172107
5.97338e-11
0.00172107
-4.52119e-11
0.00172107
-7.11251e-11
0.00172107
-7.13023e-11
0.00172107
-7.37732e-11
0.00172107
-7.33041e-11
0.00172107
-5.62312e-11
0.00172107
-1.47375e-11
0.00172107
4.15974e-11
0.00172107
8.24794e-11
0.00172107
8.97119e-11
0.00172107
7.12934e-11
0.00172107
4.97189e-11
0.00172107
4.23979e-11
0.00172107
3.30896e-11
0.00172107
7.73879e-12
0.00172107
-1.46944e-11
0.00172107
-2.3529e-11
0.00172107
-2.72468e-11
0.00172107
-2.95906e-11
0.00172107
-3.15781e-11
0.00172107
-3.49681e-11
0.00172107
-4.17166e-11
0.00172107
-4.85331e-11
0.00172107
-4.77117e-11
0.00172107
-3.23977e-11
0.00172107
-5.47414e-12
0.00172107
2.66611e-11
0.00172107
5.04171e-11
0.00172107
6.91337e-11
0.00172107
7.37316e-11
0.00172107
8.41878e-11
0.00172107
6.75437e-11
0.00172107
7.76883e-11
0.00172107
3.00366e-11
0.00172107
4.35176e-11
0.00172107
-9.2569e-12
-2.53188e-10
0.00165656
-1.37324e-10
0.00165656
1.38278e-10
0.00165656
5.45841e-11
0.00165656
-7.44572e-11
0.00165656
-1.08197e-10
0.00165656
-1.10177e-10
0.00165656
-1.15783e-10
0.00165656
-1.16963e-10
0.00165656
-9.47916e-11
0.00165656
-4.03134e-11
0.00165656
2.91517e-11
0.00165656
6.9611e-11
0.00165656
6.06454e-11
0.00165656
1.98195e-11
0.00165656
-1.59213e-11
0.00165656
-2.01924e-11
0.00165656
-1.97766e-11
0.00165656
-3.78138e-11
0.00165656
-5.37931e-11
0.00165656
-5.67177e-11
0.00165656
-5.38453e-11
0.00165656
-4.76424e-11
0.00165656
-3.94744e-11
0.00165656
-3.25806e-11
0.00165656
-3.00135e-11
0.00165656
-2.79167e-11
0.00165656
-1.59373e-11
0.00165656
1.24037e-11
0.00165656
4.96914e-11
0.00165656
8.81753e-11
0.00165656
1.1322e-10
0.00165656
1.34329e-10
0.00165656
1.36906e-10
0.00165656
1.51659e-10
0.00165656
1.2999e-10
0.00165656
1.4874e-10
0.00165656
8.5804e-11
0.00165656
1.00416e-10
0.00165656
2.85268e-11
-3.02311e-10
0.00159324
-1.74605e-10
0.00159324
1.20012e-10
0.00159324
2.32866e-11
0.00159324
-1.0727e-10
0.00159324
-1.38665e-10
0.00159324
-1.38372e-10
0.00159324
-1.46007e-10
0.00159324
-1.49991e-10
0.00159324
-1.25802e-10
0.00159324
-6.22472e-11
0.00159324
1.60072e-11
0.00159324
5.20889e-11
0.00159324
2.50107e-11
0.00159324
-3.78525e-11
0.00159324
-8.58106e-11
0.00159324
-8.50685e-11
0.00159324
-7.33818e-11
0.00159324
-8.23739e-11
0.00159324
-8.99329e-11
0.00159324
-8.46143e-11
0.00159324
-7.26766e-11
0.00159324
-5.57617e-11
0.00159324
-3.68714e-11
0.00159324
-2.05843e-11
0.00159324
-1.06624e-11
0.00159324
-1.41174e-12
0.00159324
2.02748e-11
0.00159324
5.96152e-11
0.00159324
1.04259e-10
0.00159324
1.4655e-10
0.00159324
1.71507e-10
0.00159324
1.94635e-10
0.00159324
1.94424e-10
0.00159324
2.13992e-10
0.00159324
1.87594e-10
0.00159324
2.15091e-10
0.00159324
1.40018e-10
0.00159324
1.54284e-10
0.00159324
7.33059e-11
-3.31986e-10
0.00153119
-2.32372e-10
0.00153119
6.79584e-11
0.00153119
-2.14254e-11
0.00153119
-1.41392e-10
0.00153119
-1.59309e-10
0.00153119
-1.52171e-10
0.00153119
-1.60682e-10
0.00153119
-1.68725e-10
0.00153119
-1.45636e-10
0.00153119
-7.65898e-11
0.00153119
5.67575e-12
0.00153119
3.28525e-11
0.00153119
-1.42318e-11
0.00153119
-9.90647e-11
0.00153119
-1.58145e-10
0.00153119
-1.50634e-10
0.00153119
-1.26266e-10
0.00153119
-1.24206e-10
0.00153119
-1.20546e-10
0.00153119
-1.0462e-10
0.00153119
-8.20186e-11
0.00153119
-5.44892e-11
0.00153119
-2.70876e-11
0.00153119
-3.44883e-12
0.00153119
1.16992e-11
0.00153119
2.6348e-11
0.00153119
5.56016e-11
0.00153119
1.03819e-10
0.00153119
1.53168e-10
0.00153119
1.983e-10
0.00153119
2.23175e-10
0.00153119
2.47972e-10
0.00153119
2.44835e-10
0.00153119
2.69909e-10
0.00153119
2.38019e-10
0.00153119
2.74069e-10
0.00153119
1.89881e-10
0.00153119
2.03835e-10
0.00153119
1.24875e-10
-3.48925e-10
0.00147049
-3.07416e-10
0.00147049
-9.66542e-12
0.00147049
-7.86935e-11
0.00147049
-1.75095e-10
0.00147049
-1.65879e-10
0.00147049
-1.48001e-10
0.00147049
-1.56221e-10
0.00147049
-1.69729e-10
0.00147049
-1.50573e-10
0.00147049
-7.99369e-11
0.00147049
8.55723e-13
0.00147049
1.48383e-11
0.00147049
-5.36895e-11
0.00147049
-1.60478e-10
0.00147049
-2.29438e-10
0.00147049
-2.13823e-10
0.00147049
-1.7661e-10
0.00147049
-1.60627e-10
0.00147049
-1.43515e-10
0.00147049
-1.17045e-10
0.00147049
-8.43681e-11
0.00147049
-4.99436e-11
0.00147049
-1.70342e-11
0.00147049
1.23246e-11
0.00147049
3.13312e-11
0.00147049
5.01259e-11
0.00147049
8.58775e-11
0.00147049
1.4078e-10
0.00147049
1.93844e-10
0.00147049
2.42902e-10
0.00147049
2.66861e-10
0.00147049
2.93403e-10
0.00147049
2.86973e-10
0.00147049
3.1734e-10
0.00147049
2.79182e-10
0.00147049
3.2303e-10
0.00147049
2.3355e-10
0.00147049
2.48547e-10
0.00147049
1.83592e-10
-3.57569e-10
0.00141115
-4.01209e-10
0.00141115
-1.15074e-10
0.00141115
-1.44729e-10
0.00141115
-1.96295e-10
0.00141115
-1.56783e-10
0.00141115
-1.24433e-10
0.00141115
-1.31634e-10
0.00141115
-1.52078e-10
0.00141115
-1.39481e-10
0.00141115
-7.13463e-11
0.00141115
2.94328e-12
0.00141115
5.57367e-13
0.00141115
-8.94292e-11
0.00141115
-2.16262e-10
0.00141115
-2.93861e-10
0.00141115
-2.72408e-10
0.00141115
-2.21808e-10
0.00141115
-1.89914e-10
0.00141115
-1.61362e-10
0.00141115
-1.26592e-10
0.00141115
-8.75388e-11
0.00141115
-5.02004e-11
0.00141115
-1.34831e-11
0.00141115
2.10285e-11
0.00141115
4.32224e-11
0.00141115
6.63457e-11
0.00141115
1.07736e-10
0.00141115
1.69466e-10
0.00141115
2.2685e-10
0.00141115
2.78866e-10
0.00141115
3.00994e-10
0.00141115
3.29541e-10
0.00141115
3.19406e-10
0.00141115
3.54047e-10
0.00141115
3.09626e-10
0.00141115
3.61585e-10
0.00141115
2.72813e-10
0.00141115
2.88995e-10
0.00141115
2.53708e-10
-3.51803e-10
0.00135316
-5.01807e-10
0.00135316
-2.38073e-10
0.00135316
-2.13391e-10
0.00135316
-2.04056e-10
0.00135316
-1.29826e-10
0.00135316
-8.25283e-11
0.00135316
-8.92481e-11
0.00135316
-1.17637e-10
0.00135316
-1.13368e-10
0.00135316
-5.08814e-11
0.00135316
1.28117e-11
0.00135316
-7.13991e-12
0.00135316
-1.16009e-10
0.00135316
-2.60517e-10
0.00135316
-3.48219e-10
0.00135316
-3.24181e-10
0.00135316
-2.60892e-10
0.00135316
-2.15018e-10
0.00135316
-1.78459e-10
0.00135316
-1.38538e-10
0.00135316
-9.84135e-11
0.00135316
-6.15968e-11
0.00135316
-2.23561e-11
0.00135316
1.77699e-11
0.00135316
4.42808e-11
0.00135316
7.26417e-11
0.00135316
1.19809e-10
0.00135316
1.89203e-10
0.00135316
2.50209e-10
0.00135316
3.0412e-10
0.00135316
3.2482e-10
0.00135316
3.55049e-10
0.00135316
3.40459e-10
0.00135316
3.78189e-10
0.00135316
3.30038e-10
0.00135316
3.90052e-10
0.00135316
3.07674e-10
0.00135316
3.2288e-10
0.00135316
3.36324e-10
-3.24171e-10
0.0012965
-5.90696e-10
0.0012965
-3.65915e-10
0.0012965
-2.75636e-10
0.0012965
-1.99602e-10
0.0012965
-8.98678e-11
0.0012965
-2.82482e-11
0.0012965
-3.44011e-11
0.0012965
-6.95217e-11
0.0012965
-7.34517e-11
0.0012965
-1.92737e-11
0.0012965
3.11146e-11
0.0012965
-5.7601e-12
0.0012965
-1.30451e-10
0.0012965
-2.90251e-10
0.0012965
-3.88689e-10
0.0012965
-3.657e-10
0.0012965
-2.94902e-10
0.0012965
-2.39029e-10
0.0012965
-1.9854e-10
0.0012965
-1.59594e-10
0.0012965
-1.23929e-10
0.0012965
-8.9501e-11
0.0012965
-4.67102e-11
0.0012965
3.52384e-13
0.0012965
3.26559e-11
0.0012965
6.68223e-11
0.0012965
1.21165e-10
0.0012965
1.98672e-10
0.0012965
2.62148e-10
0.0012965
3.18499e-10
0.0012965
3.37656e-10
0.0012965
3.68632e-10
0.0012965
3.49674e-10
0.0012965
3.90168e-10
0.0012965
3.41445e-10
0.0012965
4.04677e-10
0.0012965
3.35252e-10
0.0012965
3.48229e-10
0.0012965
4.3162e-10
-2.59109e-10
0.00124108
-6.37098e-10
0.00124108
-4.86752e-10
0.00124108
-3.38341e-10
0.00124108
-1.91862e-10
0.00124108
-4.62222e-11
0.00124108
2.94446e-11
0.00124108
2.54896e-11
0.00124108
-1.30335e-11
0.00124108
-2.36077e-11
0.00124108
2.15417e-11
0.00124108
5.863e-11
0.00124108
7.12425e-12
0.00124108
-1.29578e-10
0.00124108
-3.0104e-10
0.00124108
-4.10654e-10
0.00124108
-3.94932e-10
0.00124108
-3.2444e-10
0.00124108
-2.65966e-10
0.00124108
-2.28565e-10
0.00124108
-1.97263e-10
0.00124108
-1.68915e-10
0.00124108
-1.35487e-10
0.00124108
-8.7021e-11
0.00124108
-3.06348e-11
0.00124108
7.47859e-12
0.00124108
4.93566e-11
0.00124108
1.12553e-10
0.00124108
1.97458e-10
0.00124108
2.63442e-10
0.00124108
3.22447e-10
0.00124108
3.40177e-10
0.00124108
3.70711e-10
0.00124108
3.4967e-10
0.00124108
3.90048e-10
0.00124108
3.43246e-10
0.00124108
4.02095e-10
0.00124108
3.54356e-10
0.00124108
3.62244e-10
0.00124108
5.35679e-10
-1.31776e-10
0.00118679
-6.16058e-10
0.00118679
-6.19186e-10
0.00118679
-4.19497e-10
0.00118679
-1.90477e-10
0.00118679
-6.16102e-12
0.00118679
8.3003e-11
0.00118679
8.36048e-11
0.00118679
4.55091e-11
0.00118679
3.24419e-11
0.00118679
7.16601e-11
0.00118679
9.72208e-11
0.00118679
3.48681e-11
0.00118679
-1.0914e-10
0.00118679
-2.88803e-10
0.00118679
-4.11417e-10
0.00118679
-4.10006e-10
0.00118679
-3.50561e-10
0.00118679
-2.99744e-10
0.00118679
-2.74042e-10
0.00118679
-2.53743e-10
0.00118679
-2.31608e-10
0.00118679
-1.96942e-10
0.00118679
-1.40819e-10
0.00118679
-7.47785e-11
0.00118679
-2.90077e-11
0.00118679
2.32591e-11
0.00118679
9.50786e-11
0.00118679
1.86847e-10
0.00118679
2.56659e-10
0.00118679
3.18246e-10
0.00118679
3.35155e-10
0.00118679
3.62974e-10
0.00118679
3.42304e-10
0.00118679
3.75842e-10
0.00118679
3.36582e-10
0.00118679
3.82102e-10
0.00118679
3.64811e-10
0.00118679
3.60219e-10
0.00118679
6.41818e-10
9.17894e-11
0.00113348
-5.4218e-10
0.00113348
-7.68507e-10
0.00113348
-5.12122e-10
0.00113348
-1.86374e-10
0.00113348
3.53834e-11
0.00113348
1.33861e-10
0.00113348
1.39125e-10
0.00113348
1.05606e-10
0.00113348
9.54919e-11
0.00113348
1.32026e-10
0.00113348
1.48717e-10
0.00113348
7.88405e-11
0.00113348
-6.80474e-11
0.00113348
-2.52497e-10
0.00113348
-3.88536e-10
0.00113348
-4.08225e-10
0.00113348
-3.70494e-10
0.00113348
-3.40075e-10