/*--------------------------------*- C++ -*----------------------------------*\
  =========                 |
  \\      /  F ield         | OpenFOAM: The Open Source CFD Toolbox
   \\    /   O peration     | Website:  https://openfoam.org
    \\  /    A nd           | Version:  dev
     \\/     M anipulation  |

   OpenFOAM for Windows 20.09 (v1)
   Built by CFD Support, www.cfdsupport.com (based on Symscape).
\*---------------------------------------------------------------------------*/
FoamFile
{
    version     2.0;
    format      ascii;
    class       volVectorField;
    location    "80";
    object      U;
}
// * * * * * * * * * * * * * * * * * * * * * * * * * * * * * * * * * * * * * //

dimensions      [0 1 -1 0 0 0 0];

internalField   nonuniform List<vector> 
1600
(
(0.0903604 -5.3809e-08 0)
(0.0903604 -7.48542e-09 0)
(0.0903603 3.48329e-08 0)
(0.0903603 1.80652e-08 0)
(0.0903603 3.72142e-09 0)
(0.0903603 3.97432e-09 0)
(0.0903603 4.83553e-09 0)
(0.0903603 3.02638e-09 0)
(0.0903604 8.03326e-10 0)
(0.0903604 -1.05785e-09 0)
(0.0903604 -1.98469e-09 0)
(0.0903605 -1.76418e-09 0)
(0.0903605 -6.78534e-10 0)
(0.0903605 7.22519e-10 0)
(0.0903606 1.53836e-09 0)
(0.0903606 1.63038e-09 0)
(0.0903606 1.76194e-09 0)
(0.0903606 9.92028e-10 0)
(0.0903606 -2.16947e-09 0)
(0.0903605 -6.87177e-09 0)
(0.0903605 -6.62852e-09 0)
(0.0903604 -1.5406e-09 0)
(0.0903604 2.0146e-09 0)
(0.0903604 3.34071e-09 0)
(0.0903604 1.59088e-09 0)
(0.0903603 1.24209e-09 0)
(0.0903604 -1.2859e-09 0)
(0.0903603 1.74816e-11 0)
(0.0903604 -3.07541e-09 0)
(0.0903604 8.67312e-10 0)
(0.0903604 -3.1541e-09 0)
(0.0903604 3.43209e-09 0)
(0.0903604 -2.17685e-09 0)
(0.0903604 3.06391e-09 0)
(0.0903604 -3.41819e-09 0)
(0.0903603 -8.12217e-09 0)
(0.0903603 4.3892e-09 0)
(0.0903603 -1.94474e-08 0)
(0.0903601 2.93644e-08 0)
(0.0903602 8.03234e-09 0)
(0.102503 -8.63821e-08 0)
(0.102503 2.31757e-08 0)
(0.102503 5.8198e-08 0)
(0.102503 1.13461e-08 0)
(0.102503 -1.31492e-08 0)
(0.102503 -1.39867e-08 0)
(0.102503 -1.344e-08 0)
(0.102503 -1.64926e-08 0)
(0.102503 -2.00933e-08 0)
(0.102503 -2.28958e-08 0)
(0.102503 -2.33548e-08 0)
(0.102503 -2.08037e-08 0)
(0.102503 -1.58581e-08 0)
(0.102503 -1.02349e-08 0)
(0.102503 -5.21743e-09 0)
(0.102503 -1.4658e-09 0)
(0.102503 8.34578e-10 0)
(0.102503 1.60606e-09 0)
(0.102503 6.15629e-09 0)
(0.102503 1.72326e-08 0)
(0.102503 2.70683e-08 0)
(0.102503 2.71844e-08 0)
(0.102503 2.03604e-08 0)
(0.102503 1.19093e-08 0)
(0.102503 4.53433e-09 0)
(0.102503 -2.62927e-11 0)
(0.102503 -3.95161e-09 0)
(0.102503 -4.13914e-09 0)
(0.102503 -6.43059e-09 0)
(0.102503 -2.48963e-09 0)
(0.102503 -5.69197e-09 0)
(0.102503 3.62374e-09 0)
(0.102503 -2.06644e-09 0)
(0.102503 1.29752e-08 0)
(0.102503 5.3693e-09 0)
(0.102503 2.08313e-08 0)
(0.102503 1.77336e-08 0)
(0.102503 2.03835e-09 0)
(0.102503 5.48382e-08 0)
(0.102503 -3.98969e-08 0)
(0.1085 -6.06248e-08 0)
(0.1085 5.97041e-08 0)
(0.1085 6.75062e-08 0)
(0.1085 1.32386e-08 0)
(0.1085 -1.17822e-08 0)
(0.1085 -1.51112e-08 0)
(0.1085 -1.63597e-08 0)
(0.1085 -2.02937e-08 0)
(0.1085 -2.49335e-08 0)
(0.1085 -2.92128e-08 0)
(0.1085 -3.04046e-08 0)
(0.1085 -2.68204e-08 0)
(0.1085 -1.94021e-08 0)
(0.1085 -1.11825e-08 0)
(0.1085 -4.05848e-09 0)
(0.1085 1.08896e-09 0)
(0.1085 3.47649e-09 0)
(0.1085 3.54882e-09 0)
(0.1085 6.23981e-09 0)
(0.1085 1.55595e-08 0)
(0.1085 2.62595e-08 0)
(0.1085 2.89885e-08 0)
(0.1085 2.42149e-08 0)
(0.1085 1.59411e-08 0)
(0.1085 8.00656e-09 0)
(0.1085 1.97947e-09 0)
(0.1085 -3.16166e-09 0)
(0.1085 -4.78826e-09 0)
(0.1085 -7.16679e-09 0)
(0.1085 -4.06258e-09 0)
(0.1085 -6.28715e-09 0)
(0.1085 2.75844e-09 0)
(0.1085 -1.25456e-09 0)
(0.1085 1.29456e-08 0)
(0.1085 2.37374e-09 0)
(0.1085 1.64716e-08 0)
(0.1085 7.9674e-09 0)
(0.1085 5.3974e-09 0)
(0.1085 3.77397e-08 0)
(0.1085 -6.71905e-08 0)
(0.112457 -2.38173e-08 0)
(0.112457 8.00478e-08 0)
(0.112457 6.42216e-08 0)
(0.112457 1.0569e-08 0)
(0.112457 -1.33577e-08 0)
(0.112457 -1.87388e-08 0)
(0.112457 -2.11389e-08 0)
(0.112457 -2.5042e-08 0)
(0.112457 -3.00894e-08 0)
(0.112457 -3.53386e-08 0)
(0.112457 -3.67984e-08 0)
(0.112457 -3.1759e-08 0)
(0.112457 -2.23435e-08 0)
(0.112457 -1.24468e-08 0)
(0.112457 -3.88525e-09 0)
(0.112457 2.4276e-09 0)
(0.112457 5.58516e-09 0)
(0.112457 5.93198e-09 0)
(0.112457 9.01405e-09 0)
(0.112457 1.83025e-08 0)
(0.112457 2.9062e-08 0)
(0.112457 3.22984e-08 0)
(0.112457 2.82083e-08 0)
(0.112457 1.99154e-08 0)
(0.112457 1.12785e-08 0)
(0.112457 3.73665e-09 0)
(0.112457 -2.16853e-09 0)
(0.112457 -5.11972e-09 0)
(0.112457 -7.43615e-09 0)
(0.112457 -5.48937e-09 0)
(0.112457 -6.47112e-09 0)
(0.112457 1.29731e-09 0)
(0.112457 -2.27851e-10 0)
(0.112457 1.15412e-08 0)
(0.112457 2.66477e-09 0)
(0.112457 1.42162e-08 0)
(0.112457 2.56559e-09 0)
(0.112457 8.59815e-09 0)
(0.112457 1.52543e-08 0)
(0.112457 -7.50141e-08 0)
(0.115362 7.06278e-09 0)
(0.115362 8.36737e-08 0)
(0.115362 5.56093e-08 0)
(0.115362 7.18725e-09 0)
(0.115362 -1.48577e-08 0)
(0.115362 -2.16079e-08 0)
(0.115362 -2.46753e-08 0)
(0.115362 -2.82902e-08 0)
(0.115362 -3.34429e-08 0)
(0.115362 -3.90666e-08 0)
(0.115362 -3.99975e-08 0)
(0.115362 -3.39561e-08 0)
(0.115362 -2.33998e-08 0)
(0.115362 -1.24019e-08 0)
(0.115362 -2.97535e-09 0)
(0.115362 4.24637e-09 0)
(0.115362 8.14606e-09 0)
(0.115362 9.28308e-09 0)
(0.115362 1.26605e-08 0)
(0.115362 2.12729e-08 0)
(0.115362 3.07104e-08 0)
(0.115362 3.36085e-08 0)
(0.115362 3.01526e-08 0)
(0.115362 2.22944e-08 0)
(0.115362 1.39112e-08 0)
(0.115362 5.78315e-09 0)
(0.115362 -7.44069e-10 0)
(0.115362 -4.71057e-09 0)
(0.115362 -7.03854e-09 0)
(0.115362 -6.27599e-09 0)
(0.115362 -6.28005e-09 0)
(0.115362 -1.56086e-10 0)
(0.115362 5.29217e-10 0)
(0.115362 9.34547e-09 0)
(0.115362 2.68119e-09 0)
(0.115362 1.04382e-08 0)
(0.115362 -1.90896e-09 0)
(0.115362 6.94129e-09 0)
(0.115362 -5.79652e-09 0)
(0.115362 -6.75006e-08 0)
(0.117635 2.78773e-08 0)
(0.117635 7.87472e-08 0)
(0.117635 4.58134e-08 0)
(0.117635 4.27736e-09 0)
(0.117635 -1.5644e-08 0)
(0.117635 -2.30951e-08 0)
(0.117635 -2.6413e-08 0)
(0.117635 -2.95322e-08 0)
(0.117635 -3.43102e-08 0)
(0.117635 -3.95367e-08 0)
(0.117635 -3.99365e-08 0)
(0.117635 -3.31763e-08 0)
(0.117635 -2.21755e-08 0)
(0.117635 -1.10383e-08 0)
(0.117635 -1.15034e-09 0)
(0.117635 6.81509e-09 0)
(0.117635 1.13035e-08 0)
(0.117635 1.28588e-08 0)
(0.117635 1.59457e-08 0)
(0.117635 2.27125e-08 0)
(0.117635 2.99199e-08 0)
(0.117635 3.25431e-08 0)
(0.117635 3.02196e-08 0)
(0.117635 2.36693e-08 0)
(0.117635 1.58909e-08 0)
(0.117635 7.58044e-09 0)
(0.117635 8.47964e-10 0)
(0.117635 -3.74748e-09 0)
(0.117635 -6.28012e-09 0)
(0.117635 -6.57097e-09 0)
(0.117635 -5.90197e-09 0)
(0.117635 -1.38529e-09 0)
(0.117635 7.95069e-10 0)
(0.117635 6.62731e-09 0)
(0.117635 2.10756e-09 0)
(0.117635 5.43309e-09 0)
(0.117635 -6.28771e-09 0)
(0.117635 1.54947e-09 0)
(0.117635 -2.25029e-08 0)
(0.117635 -5.46617e-08 0)
(0.119491 3.98423e-08 0)
(0.119491 6.91317e-08 0)
(0.119491 3.64397e-08 0)
(0.119491 1.85796e-09 0)
(0.119491 -1.58522e-08 0)
(0.119491 -2.34389e-08 0)
(0.119491 -2.65378e-08 0)
(0.119491 -2.87311e-08 0)
(0.119491 -3.26064e-08 0)
(0.119491 -3.71713e-08 0)
(0.119491 -3.6999e-08 0)
(0.119491 -3.00677e-08 0)
(0.119491 -1.94653e-08 0)
(0.119491 -8.432e-09 0)
(0.119491 1.85935e-09 0)
(0.119491 1.01098e-08 0)
(0.119491 1.46196e-08 0)
(0.119491 1.60716e-08 0)
(0.119491 1.77062e-08 0)
(0.119491 2.16874e-08 0)
(0.119491 2.70913e-08 0)
(0.119491 2.97373e-08 0)
(0.119491 2.87164e-08 0)
(0.119491 2.39538e-08 0)
(0.119491 1.7042e-08 0)
(0.119491 9.0917e-09 0)
(0.119491 2.41134e-09 0)
(0.119491 -2.64362e-09 0)
(0.119491 -5.35868e-09 0)
(0.119491 -6.43649e-09 0)
(0.119491 -5.59358e-09 0)
(0.119491 -2.52086e-09 0)
(0.119491 4.56425e-10 0)
(0.119491 3.67129e-09 0)
(0.119491 8.29221e-10 0)
(0.119491 -2.62112e-10 0)
(0.119491 -1.06969e-08 0)
(0.119491 -5.38154e-09 0)
(0.119491 -3.38742e-08 0)
(0.119491 -4.01951e-08 0)
(0.121051 4.53442e-08 0)
(0.121051 5.775e-08 0)
(0.121051 2.79279e-08 0)
(0.121051 -2.09552e-10 0)
(0.121051 -1.57231e-08 0)
(0.121051 -2.26681e-08 0)
(0.121051 -2.48465e-08 0)
(0.121051 -2.59864e-08 0)
(0.121051 -2.88755e-08 0)
(0.121051 -3.27142e-08 0)
(0.121051 -3.23591e-08 0)
(0.121051 -2.58855e-08 0)
(0.121051 -1.57416e-08 0)
(0.121051 -4.61808e-09 0)
(0.121051 5.77304e-09 0)
(0.121051 1.39401e-08 0)
(0.121051 1.79165e-08 0)
(0.121051 1.80039e-08 0)
(0.121051 1.72396e-08 0)
(0.121051 1.88694e-08 0)
(0.121051 2.27592e-08 0)
(0.121051 2.58453e-08 0)
(0.121051 2.64869e-08 0)
(0.121051 2.30789e-08 0)
(0.121051 1.72564e-08 0)
(0.121051 9.90828e-09 0)
(0.121051 3.41997e-09 0)
(0.121051 -1.75922e-09 0)
(0.121051 -4.61892e-09 0)
(0.121051 -6.27224e-09 0)
(0.121051 -5.53192e-09 0)
(0.121051 -3.50851e-09 0)
(0.121051 -3.01534e-10 0)
(0.121051 6.95646e-10 0)
(0.121051 -1.41494e-09 0)
(0.121051 -6.06145e-09 0)
(0.121051 -1.46012e-08 0)
(0.121051 -1.24096e-08 0)
(0.121051 -4.01039e-08 0)
(0.121051 -2.60088e-08 0)
(0.12239 4.58073e-08 0)
(0.12239 4.61002e-08 0)
(0.12239 2.07468e-08 0)
(0.12239 -1.53579e-09 0)
(0.12239 -1.45249e-08 0)
(0.12239 -2.02894e-08 0)
(0.12239 -2.1644e-08 0)
(0.12239 -2.16807e-08 0)
(0.12239 -2.36612e-08 0)
(0.12239 -2.72708e-08 0)
(0.12239 -2.73466e-08 0)
(0.12239 -2.13363e-08 0)
(0.12239 -1.13404e-08 0)
(0.12239 -1.71511e-10 0)
(0.12239 1.02775e-08 0)
(0.12239 1.78663e-08 0)
(0.12239 2.03546e-08 0)
(0.12239 1.83399e-08 0)
(0.12239 1.52753e-08 0)
(0.12239 1.49285e-08 0)
(0.12239 1.81442e-08 0)
(0.12239 2.18473e-08 0)
(0.12239 2.32727e-08 0)
(0.12239 2.09855e-08 0)
(0.12239 1.60695e-08 0)
(0.12239 9.57007e-09 0)
(0.12239 3.63989e-09 0)
(0.12239 -1.35707e-09 0)
(0.12239 -4.17361e-09 0)
(0.12239 -6.18418e-09 0)
(0.12239 -5.57265e-09 0)
(0.12239 -4.52098e-09 0)
(0.12239 -1.59439e-09 0)
(0.12239 -2.33616e-09 0)
(0.12239 -4.03018e-09 0)
(0.12239 -1.10585e-08 0)
(0.12239 -1.77397e-08 0)
(0.12239 -1.80112e-08 0)
(0.12239 -4.19658e-08 0)
(0.12239 -1.39136e-08 0)
(0.123555 4.27416e-08 0)
(0.123556 3.53788e-08 0)
(0.123556 1.52866e-08 0)
(0.123556 -1.35342e-09 0)
(0.123556 -1.18502e-08 0)
(0.123556 -1.6585e-08 0)
(0.123556 -1.70573e-08 0)
(0.123556 -1.62984e-08 0)
(0.123555 -1.79575e-08 0)
(0.123555 -2.1854e-08 0)
(0.123555 -2.24581e-08 0)
(0.123555 -1.67815e-08 0)
(0.123555 -6.86916e-09 0)
(0.123555 4.39415e-09 0)
(0.123555 1.46296e-08 0)
(0.123555 2.11564e-08 0)
(0.123555 2.15649e-08 0)
(0.123555 1.73147e-08 0)
(0.123555 1.25677e-08 0)
(0.123555 1.11838e-08 0)
(0.123555 1.39889e-08 0)
(0.123555 1.75732e-08 0)
(0.123555 1.91627e-08 0)
(0.123555 1.76326e-08 0)
(0.123555 1.3768e-08 0)
(0.123555 8.21903e-09 0)
(0.123555 2.97521e-09 0)
(0.123555 -1.50882e-09 0)
(0.123555 -4.21962e-09 0)
(0.123555 -6.22605e-09 0)
(0.123555 -5.89967e-09 0)
(0.123555 -5.53012e-09 0)
(0.123556 -3.01474e-09 0)
(0.123555 -5.04307e-09 0)
(0.123556 -6.69809e-09 0)
(0.123555 -1.507e-08 0)
(0.123556 -1.98353e-08 0)
(0.123555 -2.18767e-08 0)
(0.123556 -4.08194e-08 0)
(0.123556 -4.71014e-09 0)
(0.124578 3.76598e-08 0)
(0.124578 2.61914e-08 0)
(0.124578 1.1685e-08 0)
(0.124578 1.62511e-10 0)
(0.124578 -8.12848e-09 0)
(0.124578 -1.18605e-08 0)
(0.124578 -1.17151e-08 0)
(0.124578 -1.06415e-08 0)
(0.124578 -1.25012e-08 0)
(0.124578 -1.69368e-08 0)
(0.124578 -1.8028e-08 0)
(0.124578 -1.26212e-08 0)
(0.124578 -2.80463e-09 0)
(0.124578 8.34064e-09 0)
(0.124578 1.81268e-08 0)
(0.124578 2.32355e-08 0)
(0.124578 2.15638e-08 0)
(0.124578 1.56798e-08 0)
(0.124578 1.00019e-08 0)
(0.124578 8.16714e-09 0)
(0.124578 1.03457e-08 0)
(0.124578 1.31506e-08 0)
(0.124578 1.459e-08 0)
(0.124578 1.35957e-08 0)
(0.124578 1.04369e-08 0)
(0.124578 5.97345e-09 0)
(0.124578 1.72915e-09 0)
(0.124578 -2.16828e-09 0)
(0.124578 -4.49427e-09 0)
(0.124578 -6.47409e-09 0)
(0.124578 -6.37633e-09 0)
(0.124578 -6.3606e-09 0)
(0.124578 -4.62197e-09 0)
(0.124578 -7.47895e-09 0)
(0.124578 -9.09767e-09 0)
(0.124578 -1.76928e-08 0)
(0.124578 -2.06975e-08 0)
(0.124578 -2.38388e-08 0)
(0.124578 -3.76468e-08 0)
(0.124578 1.61319e-09 0)
(0.125479 3.23986e-08 0)
(0.125479 1.88812e-08 0)
(0.125479 9.39071e-09 0)
(0.125479 2.20429e-09 0)
(0.125479 -3.97716e-09 0)
(0.125479 -6.87429e-09 0)
(0.125479 -6.55774e-09 0)
(0.125479 -5.59562e-09 0)
(0.125479 -7.92216e-09 0)
(0.125479 -1.27832e-08 0)
(0.125479 -1.41583e-08 0)
(0.125479 -9.03246e-09 0)
(0.125479 4.5085e-10 0)
(0.125479 1.12858e-08 0)
(0.125479 2.03781e-08 0)
(0.125479 2.40597e-08 0)
(0.125479 2.06936e-08 0)
(0.125479 1.38142e-08 0)
(0.125479 8.04011e-09 0)
(0.125479 5.94706e-09 0)
(0.125479 7.11431e-09 0)
(0.125479 8.95135e-09 0)
(0.125479 9.96877e-09 0)
(0.125479 9.2157e-09 0)
(0.125479 7.00702e-09 0)
(0.125479 3.6162e-09 0)
(0.125479 8.69242e-11 0)
(0.125479 -3.0403e-09 0)
(0.125479 -5.04015e-09 0)
(0.125479 -6.81163e-09 0)
(0.125479 -6.82976e-09 0)
(0.125479 -7.34356e-09 0)
(0.125479 -6.16154e-09 0)
(0.125479 -9.38151e-09 0)
(0.125479 -1.09564e-08 0)
(0.125479 -1.9092e-08 0)
(0.125479 -2.06808e-08 0)
(0.125479 -2.43074e-08 0)
(0.125479 -3.32116e-08 0)
(0.125479 6.29298e-09 0)
(0.126272 2.78165e-08 0)
(0.126272 1.30211e-08 0)
(0.126272 7.59873e-09 0)
(0.126272 4.00585e-09 0)
(0.126272 -3.96974e-10 0)
(0.126272 -2.59709e-09 0)
(0.126272 -2.17761e-09 0)
(0.126272 -1.61301e-09 0)
(0.126272 -4.38574e-09 0)
(0.126272 -9.38399e-09 0)
(0.126272 -1.0825e-08 0)
(0.126272 -6.06571e-09 0)
(0.126272 2.8985e-09 0)
(0.126272 1.31011e-08 0)
(0.126272 2.13189e-08 0)
(0.126272 2.37096e-08 0)
(0.126272 1.92393e-08 0)
(0.126272 1.21876e-08 0)
(0.126272 6.70641e-09 0)
(0.126272 4.24306e-09 0)
(0.126272 4.30372e-09 0)
(0.126272 5.23971e-09 0)
(0.126272 6.00301e-09 0)
(0.126272 5.68548e-09 0)
(0.126272 4.0727e-09 0)
(0.126272 1.31182e-09 0)
(0.126272 -1.47221e-09 0)
(0.126272 -4.05858e-09 0)
(0.126272 -5.79138e-09 0)
(0.126272 -7.32093e-09 0)
(0.126272 -7.50517e-09 0)
(0.126272 -8.09184e-09 0)
(0.126272 -7.5138e-09 0)
(0.126272 -1.08131e-08 0)
(0.126272 -1.21797e-08 0)
(0.126272 -1.95065e-08 0)
(0.126272 -1.99991e-08 0)
(0.126272 -2.34555e-08 0)
(0.126272 -2.76926e-08 0)
(0.126272 1.03996e-08 0)
(0.126965 2.32952e-08 0)
(0.126966 9.24916e-09 0)
(0.126966 6.24991e-09 0)
(0.126966 5.35469e-09 0)
(0.126966 2.53516e-09 0)
(0.126966 9.61258e-10 0)
(0.126966 1.27896e-09 0)
(0.126966 1.32991e-09 0)
(0.126966 -1.73442e-09 0)
(0.126965 -6.56571e-09 0)
(0.126965 -7.97844e-09 0)
(0.126965 -3.67193e-09 0)
(0.126965 4.52114e-09 0)
(0.126965 1.39118e-08 0)
(0.126965 2.11633e-08 0)
(0.126965 2.24797e-08 0)
(0.126965 1.75484e-08 0)
(0.126965 1.0877e-08 0)
(0.126965 5.74007e-09 0)
(0.126965 2.924e-09 0)
(0.126965 2.34018e-09 0)
(0.126966 2.74134e-09 0)
(0.126966 3.27432e-09 0)
(0.126966 3.11222e-09 0)
(0.126966 1.84419e-09 0)
(0.126966 -4.39734e-10 0)
(0.126966 -2.90475e-09 0)
(0.126966 -5.16449e-09 0)
(0.126966 -6.61896e-09 0)
(0.126966 -7.94075e-09 0)
(0.126966 -8.12428e-09 0)
(0.126966 -8.80563e-09 0)
(0.126966 -8.60925e-09 0)
(0.126966 -1.16285e-08 0)
(0.126966 -1.28021e-08 0)
(0.126966 -1.90819e-08 0)
(0.126966 -1.86924e-08 0)
(0.126965 -2.16032e-08 0)
(0.126966 -2.2343e-08 0)
(0.126966 1.19499e-08 0)
(0.127565 1.85058e-08 0)
(0.127565 4.29862e-09 0)
(0.127565 4.05198e-09 0)
(0.127565 6.00851e-09 0)
(0.127565 4.79196e-09 0)
(0.127565 3.78554e-09 0)
(0.127565 3.91733e-09 0)
(0.127565 3.47603e-09 0)
(0.127565 3.98382e-10 0)
(0.127565 -4.06946e-09 0)
(0.127565 -5.44901e-09 0)
(0.127565 -1.71628e-09 0)
(0.127565 5.58397e-09 0)
(0.127565 1.39064e-08 0)
(0.127565 2.00544e-08 0)
(0.127565 2.07154e-08 0)
(0.127565 1.58635e-08 0)
(0.127565 9.79262e-09 0)
(0.127565 5.13957e-09 0)
(0.127565 2.35996e-09 0)
(0.127565 1.39912e-09 0)
(0.127565 1.40961e-09 0)
(0.127565 1.75082e-09 0)
(0.127565 1.58391e-09 0)
(0.127565 3.93445e-10 0)
(0.127565 -1.71843e-09 0)
(0.127565 -4.0117e-09 0)
(0.127565 -6.07019e-09 0)
(0.127565 -7.44108e-09 0)
(0.127565 -8.53133e-09 0)
(0.127565 -8.69994e-09 0)
(0.127565 -9.33276e-09 0)
(0.127565 -9.24503e-09 0)
(0.127565 -1.185e-08 0)
(0.127565 -1.27862e-08 0)
(0.127565 -1.79751e-08 0)
(0.127565 -1.69656e-08 0)
(0.127565 -1.93241e-08 0)
(0.127565 -1.73033e-08 0)
(0.127565 1.32194e-08 0)
(0.128072 1.28768e-08 0)
(0.128072 -6.32185e-10 0)
(0.128072 1.73678e-09 0)
(0.128072 6.15408e-09 0)
(0.128072 6.37384e-09 0)
(0.128072 5.83751e-09 0)
(0.128072 5.80754e-09 0)
(0.128072 5.09453e-09 0)
(0.128072 2.12731e-09 0)
(0.128072 -1.76792e-09 0)
(0.128072 -3.05547e-09 0)
(0.128072 -7.06177e-12 0)
(0.128072 6.1809e-09 0)
(0.128072 1.32773e-08 0)
(0.128072 1.84353e-08 0)
(0.128072 1.85962e-08 0)
(0.128072 1.41899e-08 0)
(0.128072 8.95558e-09 0)
(0.128072 4.93224e-09 0)
(0.128072 2.42599e-09 0)
(0.128072 1.32903e-09 0)
(0.128072 1.13113e-09 0)
(0.128072 1.23154e-09 0)
(0.128072 8.00398e-10 0)
(0.128072 -4.29082e-10 0)
(0.128072 -2.46216e-09 0)
(0.128072 -4.71775e-09 0)
(0.128072 -6.67988e-09 0)
(0.128072 -8.00504e-09 0)
(0.128072 -8.94587e-09 0)
(0.128072 -9.04901e-09 0)
(0.128072 -9.47591e-09 0)
(0.128072 -9.43767e-09 0)
(0.128072 -1.15293e-08 0)
(0.128072 -1.21485e-08 0)
(0.128072 -1.62736e-08 0)
(0.128072 -1.49387e-08 0)
(0.128072 -1.68895e-08 0)
(0.128072 -1.34625e-08 0)
(0.128072 1.23773e-08 0)
(0.128488 7.47277e-09 0)
(0.128488 -4.99388e-09 0)
(0.128488 -6.69222e-10 0)
(0.128488 5.53864e-09 0)
(0.128488 6.85783e-09 0)
(0.128488 6.7386e-09 0)
(0.128488 6.69178e-09 0)
(0.128488 5.95091e-09 0)
(0.128488 3.50684e-09 0)
(0.128488 2.79895e-10 0)
(0.128488 -9.38512e-10 0)
(0.128488 1.40445e-09 0)
(0.128488 6.49097e-09 0)
(0.128488 1.23335e-08 0)
(0.128488 1.63892e-08 0)
(0.128488 1.63388e-08 0)
(0.128488 1.26251e-08 0)
(0.128488 8.22597e-09 0)
(0.128488 4.9503e-09 0)
(0.128488 2.87412e-09 0)
(0.128488 1.85554e-09 0)
(0.128488 1.51072e-09 0)
(0.128488 1.21478e-09 0)
(0.128488 5.51503e-10 0)
(0.128488 -7.98896e-10 0)
(0.128488 -2.81819e-09 0)
(0.128488 -4.98373e-09 0)
(0.128488 -6.92351e-09 0)
(0.128488 -8.20531e-09 0)
(0.128488 -8.97144e-09 0)
(0.128488 -8.99046e-09 0)
(0.128488 -9.20753e-09 0)
(0.128488 -9.05361e-09 0)
(0.128488 -1.05691e-08 0)
(0.128488 -1.09871e-08 0)
(0.128488 -1.42068e-08 0)
(0.128488 -1.2759e-08 0)
(0.128488 -1.44788e-08 0)
(0.128488 -1.06328e-08 0)
(0.128488 1.04364e-08 0)
(0.128809 3.20664e-09 0)
(0.128809 -7.79388e-09 0)
(0.128809 -2.73333e-09 0)
(0.128809 4.11701e-09 0)
(0.128809 6.09134e-09 0)
(0.128809 6.37515e-09 0)
(0.128809 6.48466e-09 0)
(0.128809 5.93259e-09 0)
(0.128809 4.09578e-09 0)
(0.128809 1.69459e-09 0)
(0.128809 7.72915e-10 0)
(0.128809 2.63293e-09 0)
(0.128809 6.62977e-09 0)
(0.128809 1.11268e-08 0)
(0.128809 1.42003e-08 0)
(0.128809 1.40455e-08 0)
(0.128809 1.10386e-08 0)
(0.128809 7.52458e-09 0)
(0.128809 4.95145e-09 0)
(0.128809 3.35002e-09 0)
(0.128809 2.45068e-09 0)
(0.128809 1.92018e-09 0)
(0.128809 1.36614e-09 0)
(0.128809 4.60265e-10 0)
(0.128809 -9.816e-10 0)
(0.128809 -2.91813e-09 0)
(0.128809 -4.98979e-09 0)
(0.128809 -6.77372e-09 0)
(0.128809 -7.88453e-09 0)
(0.128809 -8.44749e-09 0)
(0.128809 -8.35066e-09 0)
(0.128809 -8.31592e-09 0)
(0.128809 -8.11065e-09 0)
(0.128809 -9.12752e-09 0)
(0.128809 -9.35532e-09 0)
(0.128809 -1.1723e-08 0)
(0.128809 -1.04581e-08 0)
(0.128809 -1.19842e-08 0)
(0.128809 -8.39434e-09 0)
(0.128809 7.90979e-09 0)
(0.129031 2.01532e-10 0)
(0.129031 -7.97788e-09 0)
(0.129031 -3.50252e-09 0)
(0.129031 2.46994e-09 0)
(0.129031 4.46311e-09 0)
(0.129031 4.98128e-09 0)
(0.129031 5.19461e-09 0)
(0.129031 4.87744e-09 0)
(0.129031 3.71236e-09 0)
(0.129031 2.29442e-09 0)
(0.129031 1.99602e-09 0)
(0.129031 3.59904e-09 0)
(0.129031 6.61568e-09 0)
(0.129031 9.84975e-09 0)
(0.129031 1.19229e-08 0)
(0.129031 1.16855e-08 0)
(0.129031 9.39473e-09 0)
(0.129031 6.64423e-09 0)
(0.129031 4.64072e-09 0)
(0.129031 3.40857e-09 0)
(0.129031 2.60634e-09 0)
(0.129031 1.99882e-09 0)
(0.129031 1.28971e-09 0)
(0.129031 2.6782e-10 0)
(0.129031 -1.18858e-09 0)
(0.129031 -2.99791e-09 0)
(0.129031 -4.8212e-09 0)
(0.129031 -6.28895e-09 0)
(0.129031 -7.09889e-09 0)
(0.129031 -7.33544e-09 0)
(0.129031 -7.04774e-09 0)
(0.129031 -6.80662e-09 0)
(0.129031 -6.50087e-09 0)
(0.129031 -7.04435e-09 0)
(0.129031 -7.22652e-09 0)
(0.129031 -8.83457e-09 0)
(0.129031 -8.01931e-09 0)
(0.129031 -9.2744e-09 0)
(0.129031 -6.62766e-09 0)
(0.129031 4.47473e-09 0)
(0.129147 -2.07736e-09 0)
(0.129147 -5.01284e-09 0)
(0.129147 -2.26403e-09 0)
(0.129147 9.94989e-10 0)
(0.129147 2.26526e-09 0)
(0.129147 2.76454e-09 0)
(0.129147 2.98828e-09 0)
(0.129147 2.87749e-09 0)
(0.129147 2.41675e-09 0)
(0.129147 2.08492e-09 0)
(0.129147 2.62485e-09 0)
(0.129147 4.24236e-09 0)
(0.129147 6.43155e-09 0)
(0.129147 8.42753e-09 0)
(0.129147 9.53255e-09 0)
(0.129147 9.21662e-09 0)
(0.129147 7.54553e-09 0)
(0.129147 5.40322e-09 0)
(0.129147 3.74439e-09 0)
(0.129147 2.7445e-09 0)
(0.129147 2.09278e-09 0)
(0.129147 1.50443e-09 0)
(0.129147 7.64216e-10 0)
(0.129147 -2.4461e-10 0)
(0.129147 -1.57695e-09 0)
(0.129147 -3.11082e-09 0)
(0.129147 -4.53672e-09 0)
(0.129147 -5.50915e-09 0)
(0.129147 -5.81707e-09 0)
(0.129147 -5.57998e-09 0)
(0.129147 -5.01829e-09 0)
(0.129147 -4.51679e-09 0)
(0.129147 -4.17055e-09 0)
(0.129147 -4.33612e-09 0)
(0.129147 -4.57644e-09 0)
(0.129147 -5.47213e-09 0)
(0.129147 -5.42386e-09 0)
(0.129147 -6.12246e-09 0)
(0.129147 -4.90594e-09 0)
(0.129147 -3.5013e-10 0)
(0.129147 -4.19107e-09 0)
(0.129147 1.95457e-10 0)
(0.129147 5.71436e-10 0)
(0.129147 -2.06019e-10 0)
(0.129147 -1.65404e-10 0)
(0.129147 1.30121e-10 0)
(0.129147 2.55232e-10 0)
(0.129147 2.71274e-10 0)
(0.129147 4.45745e-10 0)
(0.129147 1.18042e-09 0)
(0.129147 2.67615e-09 0)
(0.129147 4.48194e-09 0)
(0.129147 5.94678e-09 0)
(0.129147 6.75555e-09 0)
(0.129147 6.93275e-09 0)
(0.129147 6.54725e-09 0)
(0.129147 5.40622e-09 0)
(0.129147 3.68362e-09 0)
(0.129147 2.23359e-09 0)
(0.129147 1.41975e-09 0)
(0.129147 9.16448e-10 0)
(0.129147 4.36448e-10 0)
(0.129147 -1.74738e-10 0)
(0.129147 -9.81951e-10 0)
(0.129147 -2.02011e-09 0)
(0.129147 -3.1346e-09 0)
(0.129147 -4.01905e-09 0)
(0.129147 -4.34163e-09 0)
(0.129147 -3.99249e-09 0)
(0.129147 -3.16803e-09 0)
(0.129147 -2.28743e-09 0)
(0.129147 -1.56068e-09 0)
(0.129147 -1.22559e-09 0)
(0.129147 -1.06839e-09 0)
(0.129147 -1.49596e-09 0)
(0.129147 -1.7475e-09 0)
(0.129147 -2.70138e-09 0)
(0.129147 -2.64223e-09 0)
(0.129147 -3.03947e-09 0)
(0.129147 -6.26169e-09 0)
(0.129031 -5.36324e-09 0)
(0.129031 4.68461e-09 0)
(0.129031 2.73795e-09 0)
(0.129031 -1.49688e-09 0)
(0.129031 -2.52467e-09 0)
(0.129031 -2.46352e-09 0)
(0.129031 -2.49055e-09 0)
(0.129031 -2.43606e-09 0)
(0.129031 -1.76612e-09 0)
(0.129031 -9.24198e-11 0)
(0.129031 2.31702e-09 0)
(0.129031 4.32267e-09 0)
(0.129031 5.08666e-09 0)
(0.129031 4.74953e-09 0)
(0.129031 4.07415e-09 0)
(0.129031 3.67245e-09 0)
(0.129031 2.98906e-09 0)
(0.129031 1.58995e-09 0)
(0.129031 3.13659e-10 0)
(0.129031 -2.84088e-10 0)
(0.129031 -5.76387e-10 0)
(0.129031 -8.52766e-10 0)
(0.129031 -1.17961e-09 0)
(0.129031 -1.61086e-09 0)
(0.129031 -2.20069e-09 0)
(0.129031 -2.82306e-09 0)
(0.129031 -3.08917e-09 0)
(0.129031 -2.67921e-09 0)
(0.129031 -1.64612e-09 0)
(0.129031 -2.83281e-10 0)
(0.129031 8.55787e-10 0)
(0.129031 1.75687e-09 0)
(0.129031 2.02558e-09 0)
(0.129031 2.43757e-09 0)
(0.129031 1.74952e-09 0)
(0.129031 2.0236e-09 0)
(0.129031 8.14277e-11 0)
(0.129031 6.45856e-10 0)
(0.129031 -1.3143e-09 0)
(0.129031 -1.09419e-08 0)
(0.128809 -6.27635e-09 0)
(0.128809 6.95006e-09 0)
(0.128809 3.3079e-09 0)
(0.128809 -2.87563e-09 0)
(0.128809 -4.56078e-09 0)
(0.128809 -4.67416e-09 0)
(0.128809 -4.86527e-09 0)
(0.128809 -4.8658e-09 0)
(0.128809 -3.86198e-09 0)
(0.128809 -1.44399e-09 0)
(0.128809 1.72566e-09 0)
(0.128809 3.8171e-09 0)
(0.128809 3.82569e-09 0)
(0.128809 2.36961e-09 0)
(0.128809 9.26912e-10 0)
(0.128809 6.15423e-10 0)
(0.128809 4.09418e-10 0)
(0.128809 -6.97724e-10 0)
(0.128809 -1.69699e-09 0)
(0.128809 -2.00674e-09 0)
(0.128809 -2.04487e-09 0)
(0.128809 -1.98871e-09 0)
(0.128809 -1.86286e-09 0)
(0.128809 -1.79081e-09 0)
(0.128809 -1.90931e-09 0)
(0.128809 -2.01246e-09 0)
(0.128809 -1.67707e-09 0)
(0.128809 -5.94088e-10 0)
(0.128809 1.02689e-09 0)
(0.128809 2.82639e-09 0)
(0.128809 4.08666e-09 0)
(0.128809 5.09174e-09 0)
(0.128809 5.26708e-09 0)
(0.128809 5.90126e-09 0)
(0.128809 4.95359e-09 0)
(0.128809 5.68806e-09 0)
(0.128809 2.89421e-09 0)
(0.128809 3.60593e-09 0)
(0.128809 4.16252e-10 0)
(0.128809 -1.40752e-08 0)
(0.128488 -7.72061e-09 0)
(0.128488 6.45281e-09 0)
(0.128488 2.28698e-09 0)
(0.128488 -4.51284e-09 0)
(0.128488 -6.29069e-09 0)
(0.128488 -6.38356e-09 0)
(0.128488 -6.71922e-09 0)
(0.128488 -6.83844e-09 0)
(0.128488 -5.65636e-09 0)
(0.128488 -2.66772e-09 0)
(0.128488 1.06809e-09 0)
(0.128488 3.04134e-09 0)
(0.128488 2.19079e-09 0)
(0.128488 -3.74593e-10 0)
(0.128488 -2.47066e-09 0)
(0.128488 -2.59095e-09 0)
(0.128488 -2.29285e-09 0)
(0.128488 -2.99846e-09 0)
(0.128488 -3.61581e-09 0)
(0.128488 -3.55773e-09 0)
(0.128488 -3.22356e-09 0)
(0.128488 -2.65773e-09 0)
(0.128488 -2.00051e-09 0)
(0.128488 -1.42338e-09 0)
(0.128488 -1.09865e-09 0)
(0.128488 -7.82687e-10 0)
(0.128488 4.38451e-11 0)
(0.128488 1.74808e-09 0)
(0.128488 3.82885e-09 0)
(0.128488 5.87738e-09 0)
(0.128488 7.16393e-09 0)
(0.128488 8.24709e-09 0)
(0.128488 8.33024e-09 0)
(0.128488 9.19417e-09 0)
(0.128488 7.97413e-09 0)
(0.128488 9.13499e-09 0)
(0.128488 5.66069e-09 0)
(0.128488 6.38575e-09 0)
(0.128488 2.48443e-09 0)
(0.128488 -1.59969e-08 0)
(0.128073 -9.78647e-09 0)
(0.128073 5.13001e-09 0)
(0.128073 -1.87324e-10 0)
(0.128073 -6.35576e-09 0)
(0.128073 -7.62473e-09 0)
(0.128073 -7.4732e-09 0)
(0.128073 -7.88406e-09 0)
(0.128073 -8.16565e-09 0)
(0.128073 -6.95002e-09 0)
(0.128073 -3.59465e-09 0)
(0.128073 4.67969e-10 0)
(0.128073 2.1096e-09 0)
(0.128073 2.98821e-10 0)
(0.128073 -3.3943e-09 0)
(0.128073 -6.10089e-09 0)
(0.128073 -5.86846e-09 0)
(0.128073 -4.99513e-09 0)
(0.128073 -5.19927e-09 0)
(0.128073 -5.28391e-09 0)
(0.128073 -4.76222e-09 0)
(0.128073 -3.8969e-09 0)
(0.128073 -2.82587e-09 0)
(0.128073 -1.66208e-09 0)
(0.128073 -6.46411e-10 0)
(0.128073 8.68642e-12 0)
(0.128073 6.15955e-10 0)
(0.128073 1.89583e-09 0)
(0.128073 4.07627e-09 0)
(0.128073 6.44359e-09 0)
(0.128073 8.69459e-09 0)
(0.128073 9.9422e-09 0)
(0.128073 1.11464e-08 0)
(0.128073 1.10771e-08 0)
(0.128073 1.21743e-08 0)
(0.128073 1.0709e-08 0)
(0.128073 1.22723e-08 0)
(0.128073 8.2406e-09 0)
(0.128073 8.95615e-09 0)
(0.128073 4.89107e-09 0)
(0.128073 -1.7081e-08 0)
(0.127565 -1.32818e-08 0)
(0.127565 1.80893e-09 0)
(0.127565 -2.3266e-09 0)
(0.127565 -7.96457e-09 0)
(0.127565 -8.33045e-09 0)
(0.127565 -7.74456e-09 0)
(0.127565 -8.16872e-09 0)
(0.127565 -8.68639e-09 0)
(0.127565 -7.5797e-09 0)
(0.127565 -4.05785e-09 0)
(0.127565 6.63507e-11 0)
(0.127565 1.15517e-09 0)
(0.127565 -1.733e-09 0)
(0.127565 -6.52472e-09 0)
(0.127565 -9.68536e-09 0)
(0.127565 -9.12378e-09 0)
(0.127565 -7.60593e-09 0)
(0.127565 -7.13938e-09 0)
(0.127565 -6.63233e-09 0)
(0.127565 -5.57242e-09 0)
(0.127565 -4.19307e-09 0)
(0.127565 -2.63767e-09 0)
(0.127565 -1.0883e-09 0)
(0.127565 2.42344e-10 0)
(0.127565 1.10781e-09 0)
(0.127565 1.9499e-09 0)
(0.127565 3.57406e-09 0)
(0.127565 6.15602e-09 0)
(0.127565 8.78364e-09 0)
(0.127565 1.11529e-08 0)
(0.127565 1.23372e-08 0)
(0.127565 1.36437e-08 0)
(0.127565 1.33954e-08 0)
(0.127565 1.47584e-08 0)
(0.127565 1.30117e-08 0)
(0.127565 1.49823e-08 0)
(0.127565 1.06066e-08 0)
(0.127565 1.13744e-08 0)
(0.127565 7.65771e-09 0)
(0.127565 -1.77607e-08 0)
(0.126966 -1.77454e-08 0)
(0.126966 -2.94718e-09 0)
(0.126966 -4.97126e-09 0)
(0.126966 -9.25566e-09 0)
(0.126966 -8.24729e-09 0)
(0.126966 -7.05505e-09 0)
(0.126966 -7.44916e-09 0)
(0.126966 -8.26972e-09 0)
(0.126966 -7.45766e-09 0)
(0.126966 -3.96072e-09 0)
(0.126966 -1.00111e-11 0)
(0.126966 3.18309e-10 0)
(0.126966 -3.63497e-09 0)
(0.126966 -9.45035e-09 0)
(0.126966 -1.31453e-08 0)
(0.126966 -1.22431e-08 0)
(0.126966 -9.95927e-09 0)
(0.126966 -8.81384e-09 0)
(0.126966 -7.69148e-09 0)
(0.126966 -6.08971e-09 0)
(0.126966 -4.30432e-09 0)
(0.126966 -2.4291e-09 0)
(0.126966 -6.70052e-10 0)
(0.126966 9.34389e-10 0)
(0.126966 1.96134e-09 0)
(0.126966 3.01111e-09 0)
(0.126966 4.90841e-09 0)
(0.126966 7.89198e-09 0)
(0.126966 1.06617e-08 0)
(0.126966 1.31105e-08 0)
(0.126966 1.4323e-08 0)
(0.126966 1.56984e-08 0)
(0.126966 1.52805e-08 0)
(0.126966 1.68893e-08 0)
(0.126966 1.48165e-08 0)
(0.126966 1.72528e-08 0)
(0.126966 1.27378e-08 0)
(0.126966 1.34646e-08 0)
(0.126966 1.08338e-08 0)
(0.126966 -1.78276e-08 0)
(0.126272 -2.24994e-08 0)
(0.126272 -8.16817e-09 0)
(0.126272 -8.80475e-09 0)
(0.126272 -1.00989e-08 0)
(0.126272 -7.36562e-09 0)
(0.126272 -5.40727e-09 0)
(0.126272 -5.73684e-09 0)
(0.126272 -6.94865e-09 0)
(0.126272 -6.51106e-09 0)
(0.126272 -3.19916e-09 0)
(0.126272 2.82091e-10 0)
(0.126272 -2.31816e-10 0)
(0.126272 -5.20466e-09 0)
(0.126272 -1.2043e-08 0)
(0.126272 -1.62083e-08 0)
(0.126272 -1.49648e-08 0)
(0.126272 -1.21448e-08 0)
(0.126272 -1.02002e-08 0)
(0.126272 -8.44935e-09 0)
(0.126272 -6.55732e-09 0)
(0.126272 -4.53169e-09 0)
(0.126272 -2.64089e-09 0)
(0.126272 -7.55613e-10 0)
(0.126272 1.09526e-09 0)
(0.126272 2.33868e-09 0)
(0.126272 3.58563e-09 0)
(0.126272 5.83157e-09 0)
(0.126272 9.09203e-09 0)
(0.126272 1.20184e-08 0)
(0.126272 1.47135e-08 0)
(0.126272 1.57804e-08 0)
(0.126272 1.72332e-08 0)
(0.126272 1.65835e-08 0)
(0.126272 1.84212e-08 0)
(0.126272 1.61331e-08 0)
(0.126272 1.895e-08 0)
(0.126272 1.45497e-08 0)
(0.126272 1.53472e-08 0)
(0.126272 1.46646e-08 0)
(0.126272 -1.71547e-08 0)
(0.125479 -2.74301e-08 0)
(0.12548 -1.50517e-08 0)
(0.12548 -1.22649e-08 0)
(0.12548 -1.02184e-08 0)
(0.12548 -5.66709e-09 0)
(0.12548 -2.91239e-09 0)
(0.12548 -3.21936e-09 0)
(0.12548 -4.79289e-09 0)
(0.12548 -4.80097e-09 0)
(0.12548 -1.9002e-09 0)
(0.12548 1.00939e-09 0)
(0.12548 -4.16352e-10 0)
(0.12548 -6.32367e-09 0)
(0.12548 -1.39708e-08 0)
(0.12548 -1.85668e-08 0)
(0.12548 -1.7349e-08 0)
(0.12548 -1.39751e-08 0)
(0.12548 -1.13131e-08 0)
(0.12548 -9.32024e-09 0)
(0.12548 -7.37167e-09 0)
(0.12548 -5.42485e-09 0)
(0.12548 -3.6065e-09 0)
(0.12548 -1.51353e-09 0)
(0.12548 6.58688e-10 0)
(0.12548 2.06971e-09 0)
(0.12548 3.6073e-09 0)
(0.12548 6.14739e-09 0)
(0.12548 9.82767e-09 0)
(0.12548 1.29325e-08 0)
(0.12548 1.56827e-08 0)
(0.12548 1.66581e-08 0)
(0.12548 1.81912e-08 0)
(0.12548 1.73735e-08 0)