/*--------------------------------*- C++ -*----------------------------------*\
  =========                 |
  \\      /  F ield         | OpenFOAM: The Open Source CFD Toolbox
   \\    /   O peration     | Website:  https://openfoam.org
    \\  /    A nd           | Version:  dev
     \\/     M anipulation  |

   OpenFOAM for Windows 20.09 (v1)
   Built by CFD Support, www.cfdsupport.com (based on Symscape).
\*---------------------------------------------------------------------------*/
FoamFile
{
    version     2.0;
    format      ascii;
    class       surfaceScalarField;
    location    "6";
    object      alphaPhi0.water;
}
// * * * * * * * * * * * * * * * * * * * * * * * * * * * * * * * * * * * * * //

dimensions      [0 3 -1 0 0 0 0];

internalField   nonuniform List<scalar> 
217
(
1.53624e-46
-1.34411e-51
1.1074e-46
4.27891e-52
1.58324e-46
-1.23007e-50
-8.58172e-51
1.60691e-46
8.90966e-49
-4.76991e-54
8.40052e-49
1.61622e-53
8.50539e-49
-6.24559e-53
-3.91078e-53
9.38333e-49
4.37737e-51
-1.06209e-56
4.22733e-51
2.39784e-56
4.32023e-51
-2.95041e-55
-1.59695e-55
4.7181e-51
1.98555e-53
8.5255e-60
1.96637e-53
1.20678e-58
2.01877e-53
-1.30754e-57
-5.92591e-58
2.11639e-53
8.49769e-56
2.59613e-61
8.5991e-56
5.52211e-61
8.7276e-56
-5.34852e-60
-1.97772e-60
8.68535e-56
3.41039e-58
1.81038e-63
3.49544e-58
2.31598e-63
3.453e-58
-2.04214e-62
-6.05186e-63
3.30633e-58
1.27853e-60
9.10365e-66
1.31661e-60
8.95467e-66
1.26993e-60
-7.28612e-65
-1.69244e-65
1.17305e-60
4.51344e-63
3.8523e-68
4.65392e-63
3.26589e-68
4.35532e-63
-2.482e-67
-4.53087e-68
3.89048e-63
1.50543e-65
1.48932e-70
1.55606e-65
1.19164e-70
1.42647e-65
-8.72221e-70
-1.23519e-70
1.23232e-65
5.06826e-68
5.95287e-73
5.36754e-68
4.99347e-73
4.82976e-68
-3.44881e-72
-3.71801e-73
4.05365e-68
1.98977e-70
3.02455e-75
2.11193e-70
2.47234e-75
1.83641e-70
-1.41735e-74
-1.17514e-75
1.43733e-70
8.06173e-73
1.4895e-77
8.67642e-73
1.18396e-77
7.28141e-73
-5.6539e-77
-3.98434e-78
5.21393e-73
3.44893e-75
7.01003e-80
3.37531e-75
5.50889e-80
2.82449e-75
-2.27501e-79
-1.40163e-80
1.97853e-75
1.44381e-77
2.9989e-82
1.39447e-77
2.55594e-82
1.11017e-77
-9.17137e-82
-5.32836e-83
7.45117e-78
5.93311e-80
5.51626e-80
4.42484e-80
2.94727e-80
9.4324e-46
1.25278e-48
8.2959e-46
-1.66935e-50
1.5203e-45
1.49094e-48
6.04001e-48
2.49963e-48
2.18889e-51
2.2152e-48
-5.96253e-53
3.70462e-48
9.51053e-52
2.27495e-50
7.92174e-51
4.89778e-54
7.21125e-51
-2.36948e-55
1.00138e-50
9.96638e-56
7.46341e-53
2.87305e-53
1.8963e-56
2.65299e-53
-9.70078e-58
3.21465e-53
1.22011e-57
2.28433e-55
1.11228e-55
9.95923e-59
1.02679e-55
-3.89159e-60
1.08468e-55
1.56344e-60
6.38145e-58
4.35303e-58
5.22942e-61
3.98201e-58
-1.50584e-62
3.80229e-58
4.9223e-63
1.57595e-60
1.69155e-60
2.59958e-63
1.53039e-60
-5.64246e-65
1.35958e-60
1.52701e-65
3.24649e-63
6.52331e-63
1.20221e-65
5.83274e-63
-2.03811e-67
4.83182e-63
4.65374e-68
4.51668e-66
2.48165e-65
5.48507e-68
2.19846e-65
-7.32059e-70
1.7191e-65
1.31899e-70
2.80446e-69
9.50658e-68
2.31142e-70
8.29689e-68
-2.67067e-72
6.70876e-68
3.50867e-73
9.94843e-73
3.73514e-70
9.78026e-73
3.17663e-70
-9.78191e-75
2.51528e-70
7.7005e-76
4.15548e-74
1.49375e-72
4.06823e-75
1.24273e-72
-3.54942e-77
9.93385e-73
1.25784e-78
1.48942e-77
6.02297e-75
1.70521e-77
4.9289e-75
-1.27401e-79
3.96478e-75
-2.32735e-81
3.29126e-80
2.44058e-77
6.97999e-80
1.98057e-77
-4.50314e-82
1.62758e-77
-3.56928e-83
5.08163e-83
9.87916e-80
8.03759e-80
6.75517e-80
)
;

boundaryField
{
    topWall
    {
        type            calculated;
        value           nonuniform List<scalar> 0();
    }
    botWall
    {
        type            calculated;
        value           nonuniform List<scalar> 0();
    }
    inlet
    {
        type            cyclic;
        value           nonuniform List<scalar> 
15
(
-2.77615e-45
-9.73555e-48
-3.27436e-50
-1.06759e-52
-3.36985e-55
-1.01909e-57
-2.93883e-60
-8.0904e-63
-2.15408e-65
-5.67621e-68
-2.06833e-70
-9.57269e-73
-3.87207e-75
-1.56994e-77
-6.51913e-80
)
;
    }
    outlet
    {
        type            cyclic;
        value           nonuniform List<scalar> 
15
(
2.77615e-45
9.73555e-48
3.27436e-50
1.06759e-52
3.36985e-55
1.01909e-57
2.93883e-60
8.0904e-63
2.15408e-65
5.67621e-68
2.06833e-70
9.57269e-73
3.87207e-75
1.56994e-77
6.51913e-80
)
;
    }
    fixWall
    {
        type            empty;
        value           nonuniform List<scalar> 0();
    }
    procBoundary5to4
    {
        type            processor;
        value           nonuniform List<scalar> 8(2.44519e-49 -1.13259e-48 2.34047e-48 1.67176e-48 -8.85547e-46 5.64358e-48 -7.18802e-46 -1.30696e-45);
    }
    procBoundary5to6
    {
        type            processor;
        value           nonuniform List<scalar> 8(1.09383e-84 9.34754e-85 -2.41465e-84 -1.09768e-85 3.79189e-82 -1.41623e-84 -2.36514e-85 -1.07565e-85);
    }
}


// ************************************************************************* //
