/*--------------------------------*- C++ -*----------------------------------*\
  =========                 |
  \\      /  F ield         | OpenFOAM: The Open Source CFD Toolbox
   \\    /   O peration     | Website:  https://openfoam.org
    \\  /    A nd           | Version:  dev
     \\/     M anipulation  |

   OpenFOAM for Windows 20.09 (v1)
   Built by CFD Support, www.cfdsupport.com (based on Symscape).
\*---------------------------------------------------------------------------*/
FoamFile
{
    version     2.0;
    format      ascii;
    class       volSymmTensorField;
    location    "6";
    object      devReff;
}
// * * * * * * * * * * * * * * * * * * * * * * * * * * * * * * * * * * * * * //

dimensions      [0 2 -2 0 0 0 0];

internalField   nonuniform List<symmTensor> 
120
(
(3.40949e-07 -0.000923014 -0 -6.18592e-07 -0 2.77643e-07)
(-1.11424e-07 -0.00090852 -0 1.72938e-07 -0 -6.15137e-08)
(1.94124e-07 -0.000915609 -0 -4.5319e-07 -0 2.59066e-07)
(1.99682e-06 -0.000917906 -0 -3.05345e-06 -0 1.05664e-06)
(4.26278e-07 -0.000767754 -0 -4.50846e-07 -0 2.45678e-08)
(2.93837e-07 -0.000755788 -0 -5.02188e-07 -0 2.08352e-07)
(-8.10078e-08 -0.000761989 -0 -2.16662e-08 -0 1.02674e-07)
(7.57302e-07 -0.000763499 -0 -5.75472e-07 -0 -1.8183e-07)
(5.00461e-07 -0.000635107 -0 -4.01174e-07 -0 -9.92876e-08)
(-4.6026e-08 -0.000624492 -0 2.35162e-07 -0 -1.89136e-07)
(-4.81436e-07 -0.000630703 -0 6.46394e-07 -0 -1.64957e-07)
(6.11169e-07 -0.000632006 -0 -2.80902e-07 -0 -3.30268e-07)
(8.51302e-07 -0.000522431 -0 -9.44817e-07 -0 9.35152e-08)
(4.57974e-07 -0.000513047 -0 -6.83989e-07 -0 2.26015e-07)
(-6.45848e-08 -0.000518394 -0 -2.994e-07 -0 3.63984e-07)
(1.64757e-06 -0.000519359 -0 -2.32557e-06 -0 6.77995e-07)
(7.1622e-07 -0.000425061 -0 -6.3396e-07 -0 -8.22606e-08)
(2.68089e-07 -0.000418487 -0 -2.57596e-07 -0 -1.0493e-08)
(-6.29778e-07 -0.000423002 -0 7.38775e-07 -0 -1.08997e-07)
(3.96376e-07 -0.000423882 -0 1.51172e-07 -0 -5.47548e-07)
(7.20471e-07 -0.000343574 -0 -6.79332e-07 -0 -4.11389e-08)
(1.79406e-07 -0.000338938 -0 -5.81316e-08 -0 -1.21275e-07)
(-6.75334e-07 -0.000342172 -0 7.48236e-07 -0 -7.29022e-08)
(1.01743e-06 -0.000342848 -0 -1.1019e-06 -0 8.44644e-08)
(8.3643e-07 -0.000275384 -0 -9.57513e-07 -0 1.21082e-07)
(3.21983e-07 -0.000272444 -0 -3.18693e-07 -0 -3.28941e-09)
(-5.42984e-07 -0.00027376 -0 4.41432e-07 -0 1.01552e-07)
(9.0913e-07 -0.000274295 -0 -1.00099e-06 -0 9.18623e-08)
(6.20782e-07 -0.000218719 -0 -5.64297e-07 -0 -5.64854e-08)
(3.35167e-07 -0.00021695 -0 -3.15182e-07 -0 -1.99848e-08)
(-6.89468e-07 -0.000216671 -0 7.21713e-07 -0 -3.22455e-08)
(6.42524e-07 -0.000216908 -0 -5.92046e-07 -0 -5.04775e-08)
(6.90571e-07 -0.000171491 -0 -7.30413e-07 -0 3.98417e-08)
(3.77543e-07 -0.000170834 -0 -3.61682e-07 -0 -1.58609e-08)
(-5.92698e-07 -0.000168506 -0 5.49605e-07 -0 4.30928e-08)
(5.58459e-07 -0.000168802 -0 -5.88386e-07 -0 2.99271e-08)
(6.23169e-07 -0.000132035 -0 -6.23603e-07 -0 4.34822e-10)
(4.3839e-07 -0.000132383 -0 -4.22276e-07 -0 -1.61137e-08)
(-5.72505e-07 -0.000128738 -0 5.63166e-07 -0 9.33876e-09)
(4.00138e-07 -0.000128885 -0 -3.93364e-07 -0 -6.77394e-09)
(6.00494e-07 -9.88461e-05 -0 -6.03057e-07 -0 2.56363e-09)
(4.7858e-07 -0.000100285 -0 -4.54405e-07 -0 -2.41748e-08)
(-5.01326e-07 -9.56057e-05 -0 4.91495e-07 -0 9.83164e-09)
(2.38815e-07 -9.57067e-05 -0 -2.23332e-07 -0 -1.54829e-08)
(5.67875e-07 -7.05783e-05 -0 -5.75642e-07 -0 7.7668e-09)
(5.56634e-07 -7.30995e-05 -0 -5.51461e-07 -0 -5.17226e-09)
(-4.12694e-07 -6.78962e-05 -0 4.04408e-07 -0 8.28667e-09)
(1.53101e-07 -6.70181e-05 -0 -1.52243e-07 -0 -8.57734e-10)
(5.24702e-07 -4.59451e-05 -0 -5.29231e-07 -0 4.52971e-09)
(5.37514e-07 -4.97601e-05 -0 -4.84012e-07 -0 -5.35021e-08)
(-3.1503e-07 -4.47031e-05 -0 3.30189e-07 -0 -1.51594e-08)
(7.18373e-08 -4.09618e-05 -0 -7.28336e-08 -0 9.9624e-10)
(4.80827e-07 -2.38077e-05 -0 -5.05387e-07 -0 2.45604e-08)
(6.09141e-07 -2.89732e-05 -0 -6.16497e-07 -0 7.35557e-09)
(-7.20906e-08 -2.41253e-05 -0 2.52093e-08 -0 4.68814e-08)
(1.53529e-07 -1.83129e-05 -0 -1.58629e-07 -0 5.10015e-09)
(3.83741e-07 -3.06221e-06 -0 -3.83062e-07 -0 -6.78873e-10)
(6.00712e-07 -9.87792e-06 -0 -6.22743e-07 -0 2.20305e-08)
(1.4072e-07 -5.6815e-06 -0 -2.17003e-07 -0 7.62823e-08)
(2.02855e-07 1.06573e-06 -0 -2.57615e-07 -0 5.476e-08)
(1.27595e-06 -0.000916713 -0 -2.06598e-06 -0 7.90035e-07)
(-5.71738e-07 -0.000916658 -0 1.49588e-07 -0 4.2215e-07)
(-1.44926e-07 -0.000918185 -0 -1.94427e-07 -0 3.39354e-07)
(9.66236e-07 -0.000929502 -0 -1.82885e-06 -0 8.62617e-07)
(2.45985e-07 -0.000761983 -0 2.25047e-08 -0 -2.6849e-07)
(-1.04589e-06 -0.000760923 -0 1.07134e-06 -0 -2.54473e-08)
(-8.7373e-07 -0.000760643 -0 1.01496e-06 -0 -1.41226e-07)
(-3.93961e-07 -0.000771862 -0 7.83747e-07 -0 -3.89787e-07)
(4.44415e-07 -0.000629859 -0 -3.21298e-07 -0 -1.23117e-07)
(-1.06831e-06 -0.000627529 -0 1.19116e-06 -0 -1.2285e-07)
(-9.38653e-07 -0.000623659 -0 1.0265e-06 -0 -8.78504e-08)
(-2.76573e-07 -0.000635177 -0 4.14063e-07 -0 -1.3749e-07)
(9.86473e-07 -0.000518337 -0 -1.31288e-06 -0 3.2641e-07)
(-5.90387e-07 -0.000514986 -0 3.70233e-07 -0 2.20155e-07)
(-9.75172e-07 -0.000507251 -0 9.61064e-07 -0 1.41081e-08)
(-1.53654e-07 -0.000519011 -0 -8.36876e-08 -0 2.37342e-07)
(2.99936e-07 -0.000424126 -0 1.08511e-07 -0 -4.08446e-07)
(-7.59511e-07 -0.000419392 -0 9.47407e-07 -0 -1.87895e-07)
(-1.18154e-06 -0.000408587 -0 1.377e-06 -0 -1.9546e-07)
(-1.1789e-06 -0.000418624 -0 1.70692e-06 -0 -5.28013e-07)
(9.01409e-07 -0.000345994 -0 -9.97751e-07 -0 9.63415e-08)
(-2.2086e-07 -0.000340002 -0 1.53404e-07 -0 6.74564e-08)
(-9.09108e-07 -0.000327052 -0 8.5397e-07 -0 5.51377e-08)
(-7.78379e-07 -0.000336475 -0 6.11426e-07 -0 1.66953e-07)
(8.85242e-07 -0.000280964 -0 -9.72552e-07 -0 8.73098e-08)
(1.17159e-07 -0.00027562 -0 -1.70422e-07 -0 5.32627e-08)
(-8.56e-07 -0.000262689 -0 8.43255e-07 -0 1.27447e-08)
(-1.07226e-06 -0.00026996 -0 9.38079e-07 -0 1.34179e-07)
(7.0301e-07 -0.000225342 -0 -6.50857e-07 -0 -5.21537e-08)
(3.11192e-07 -0.000222607 -0 -2.97067e-07 -0 -1.41249e-08)
(-8.12875e-07 -0.000211105 -0 8.50541e-07 -0 -3.7666e-08)
(-1.47288e-06 -0.000215071 -0 1.57228e-06 -0 -9.94073e-08)
(6.3074e-07 -0.000177089 -0 -6.59707e-07 -0 2.89671e-08)
(5.71854e-07 -0.000174935 -0 -6.01163e-07 -0 2.93083e-08)
(-6.34892e-07 -0.00016697 -0 6.53072e-07 -0 -1.81806e-08)
(-1.4317e-06 -0.000169267 -0 1.39892e-06 -0 3.27815e-08)
(5.32287e-07 -0.000136971 -0 -5.20367e-07 -0 -1.19198e-08)
(6.91226e-07 -0.000135443 -0 -7.15822e-07 -0 2.45961e-08)
(-6.01311e-07 -0.000129933 -0 6.17524e-07 -0 -1.62136e-08)
(-1.54903e-06 -0.000130881 -0 1.57001e-06 -0 -2.09816e-08)
(3.75736e-07 -0.000103198 -0 -3.75212e-07 -0 -5.2393e-10)
(7.85257e-07 -0.000101611 -0 -7.89823e-07 -0 4.5661e-09)
(-4.9497e-07 -9.84631e-05 -0 5.26908e-07 -0 -3.19382e-08)
(-1.54751e-06 -9.84954e-05 -0 1.55727e-06 -0 -9.76423e-09)
(3.31784e-07 -7.34126e-05 -0 -3.23288e-07 -0 -8.4961e-09)
(8.70197e-07 -7.26251e-05 -0 -9.12659e-07 -0 4.24614e-08)
(-4.75725e-07 -7.1621e-05 -0 4.72042e-07 -0 3.68276e-09)
(-1.56551e-06 -7.08672e-05 -0 1.58751e-06 -0 -2.20044e-08)
(1.81081e-07 -4.48826e-05 -0 -1.80228e-07 -0 -8.53131e-10)
(8.75138e-07 -4.60277e-05 -0 -9.07159e-07 -0 3.2021e-08)
(-3.85301e-07 -4.77873e-05 -0 3.68366e-07 -0 1.69345e-08)
(-1.46807e-06 -4.67512e-05 -0 1.43116e-06 -0 3.69068e-08)
(1.70202e-07 -2.18305e-05 -0 -1.76527e-07 -0 6.32534e-09)
(7.47691e-07 -2.38103e-05 -0 -7.62126e-07 -0 1.44341e-08)
(-5.55297e-07 -2.61615e-05 -0 6.09422e-07 -0 -5.41253e-08)
(-1.49318e-06 -2.50157e-05 -0 1.50289e-06 -0 -9.7081e-09)
(2.86289e-08 -4.07481e-06 -0 -6.62902e-08 -0 3.76613e-08)
(6.9729e-07 -5.46328e-06 -0 -6.94011e-07 -0 -3.2786e-09)
(-5.09052e-07 -5.97163e-06 -0 5.78278e-07 -0 -6.9226e-08)
(-1.45826e-06 -4.59375e-06 -0 1.48918e-06 -0 -3.09199e-08)
)
;

boundaryField
{
    topWall
    {
        type            calculated;
        value           nonuniform List<symmTensor> 0();
    }
    botWall
    {
        type            calculated;
        value           nonuniform List<symmTensor> 0();
    }
    inlet
    {
        type            cyclic;
    }
    outlet
    {
        type            cyclic;
    }
    fixWall
    {
        type            empty;
    }
    procBoundary5to4
    {
        type            processor;
        value           nonuniform List<symmTensor> 8((-4.08656e-07 -0.00110296 -0 5.19173e-07 -0 -1.10517e-07) (-6.34204e-07 -0.00109111 -0 1.10677e-06 -0 -4.72563e-07) (-4.63835e-07 -0.00109608 -0 1.05124e-06 -0 -5.87407e-07) (-1.94857e-07 -0.00109684 -0 1.36299e-06 -0 -1.16814e-06) (-1.03286e-07 -0.00109722 -0 6.83011e-07 -0 -5.79724e-07) (-1.29877e-06 -0.00109835 -0 1.62332e-06 -0 -3.2455e-07) (-3.20902e-07 -0.0010994 -0 3.39933e-07 -0 -1.90312e-08) (-2.43953e-08 -0.00110821 -0 2.11373e-07 -0 -1.86978e-07));
    }
    procBoundary5to6
    {
        type            processor;
        value           nonuniform List<symmTensor> 8((2.88605e-07 1.73782e-05 -0 -3.01101e-07 -0 1.24956e-08) (4.64422e-07 8.9143e-06 -0 -4.16509e-07 -0 -4.79137e-08) (2.62917e-07 1.24882e-05 -0 -2.711e-07 -0 8.18225e-09) (1.39375e-07 2.03749e-05 -0 -7.60152e-08 -0 -6.33593e-08) (-6.85845e-08 1.41661e-05 -0 7.5591e-08 -0 -7.00651e-09) (6.59557e-07 1.30554e-05 -0 -6.47544e-07 -0 -1.20127e-08) (-5.12522e-07 1.39205e-05 -0 5.55778e-07 -0 -4.32557e-08) (-1.39069e-06 1.56733e-05 -0 1.39474e-06 -0 -4.05146e-09));
    }
}


// ************************************************************************* //
