/*--------------------------------*- C++ -*----------------------------------*\
  =========                 |
  \\      /  F ield         | OpenFOAM: The Open Source CFD Toolbox
   \\    /   O peration     | Website:  https://openfoam.org
    \\  /    A nd           | Version:  dev
     \\/     M anipulation  |

   OpenFOAM for Windows 20.09 (v1)
   Built by CFD Support, www.cfdsupport.com (based on Symscape).
\*---------------------------------------------------------------------------*/
FoamFile
{
    version     2.0;
    format      ascii;
    class       volScalarField;
    location    "6";
    object      epsilon;
}
// * * * * * * * * * * * * * * * * * * * * * * * * * * * * * * * * * * * * * //

dimensions      [0 2 -3 0 0 0 0];

internalField   nonuniform List<scalar> 
120
(
1.15158e-15
1.15041e-15
1.15029e-15
1.15021e-15
1.0365e-15
1.0354e-15
1.0351e-15
1.03518e-15
9.37816e-16
9.36893e-16
9.36349e-16
9.36597e-16
8.53526e-16
8.52862e-16
8.52006e-16
8.52434e-16
7.81805e-16
7.81319e-16
7.80152e-16
7.80777e-16
7.20884e-16
7.20557e-16
7.19052e-16
7.19917e-16
6.69299e-16
6.69109e-16
6.67221e-16
6.68387e-16
6.2582e-16
6.25755e-16
6.2342e-16
6.24962e-16
5.89451e-16
5.89507e-16
5.86975e-16
5.88646e-16
5.59411e-16
5.59594e-16
5.57178e-16
5.58658e-16
5.35117e-16
5.35438e-16
5.33279e-16
5.3442e-16
5.16167e-16
5.1664e-16
5.14697e-16
5.15523e-16
5.02331e-16
5.02968e-16
5.01171e-16
5.0173e-16
4.93545e-16
4.94361e-16
4.92636e-16
4.92969e-16
4.9806e-16
4.9794e-16
4.97876e-16
4.97839e-16
1.15038e-15
1.14939e-15
1.14942e-15
1.15201e-15
1.03547e-15
1.03448e-15
1.03438e-15
1.03675e-15
9.36966e-16
9.35998e-16
9.35781e-16
9.37875e-16
8.52877e-16
8.5194e-16
8.51644e-16
8.53448e-16
7.81287e-16
7.80388e-16
7.80053e-16
7.81575e-16
7.20487e-16
7.19628e-16
7.1929e-16
7.20555e-16
6.69009e-16
6.68188e-16
6.67872e-16
6.68901e-16
6.25627e-16
6.24837e-16
6.24555e-16
6.25368e-16
5.89357e-16
5.88581e-16
5.88332e-16
5.88945e-16
5.59428e-16
5.58649e-16
5.5859e-16
5.58841e-16
5.35264e-16
5.34455e-16
5.34581e-16
5.34469e-16
5.16469e-16
5.15591e-16
5.15909e-16
5.1541e-16
5.02817e-16
5.01813e-16
5.02351e-16
5.01412e-16
4.94246e-16
4.9305e-16
4.93842e-16
4.92387e-16
4.97752e-16
4.9777e-16
4.97774e-16
4.97794e-16
)
;

boundaryField
{
    topWall
    {
        type            epsilonWallFunction;
        value           nonuniform List<scalar> 0();
    }
    botWall
    {
        type            epsilonWallFunction;
        value           nonuniform List<scalar> 0();
    }
    inlet
    {
        type            cyclic;
    }
    outlet
    {
        type            cyclic;
    }
    fixWall
    {
        type            empty;
    }
    procBoundary5to4
    {
        type            processor;
        value           nonuniform List<scalar> 8(1.28976e-15 1.28886e-15 1.28884e-15 1.28847e-15 1.2885e-15 1.2875e-15 1.28769e-15 1.29039e-15);
    }
    procBoundary5to6
    {
        type            processor;
        value           nonuniform List<scalar> 8(5.24542e-16 5.24424e-16 5.24385e-16 5.2434e-16 5.24239e-16 5.24267e-16 5.24275e-16 5.243e-16);
    }
}


// ************************************************************************* //
