/*--------------------------------*- C++ -*----------------------------------*\
  =========                 |
  \\      /  F ield         | OpenFOAM: The Open Source CFD Toolbox
   \\    /   O peration     | Website:  https://openfoam.org
    \\  /    A nd           | Version:  dev
     \\/     M anipulation  |

   OpenFOAM for Windows 20.09 (v1)
   Built by CFD Support, www.cfdsupport.com (based on Symscape).
\*---------------------------------------------------------------------------*/
FoamFile
{
    version     2.0;
    format      ascii;
    class       volVectorField;
    location    "6";
    object      gradp;
}
// * * * * * * * * * * * * * * * * * * * * * * * * * * * * * * * * * * * * * //

dimensions      [1 -2 -2 0 0 0 0];

internalField   nonuniform List<vector> 
120
(
(3.73803 -9.82023 0)
(-1.26574 -9.82131 0)
(-1.26155 -9.81614 0)
(-1.24914 -9.81101 0)
(3.73798 -9.8174 0)
(-1.26573 -9.82201 0)
(-1.26144 -9.81681 0)
(-1.24909 -9.80817 0)
(3.73793 -9.8161 0)
(-1.26573 -9.8214 0)
(-1.26132 -9.8169 0)
(-1.24904 -9.80788 0)
(3.73788 -9.81559 0)
(-1.26574 -9.81988 0)
(-1.26121 -9.81571 0)
(-1.24899 -9.80633 0)
(3.73787 -9.81566 0)
(-1.26573 -9.81794 0)
(-1.2611 -9.81442 0)
(-1.24895 -9.80596 0)
(3.7379 -9.81622 0)
(-1.26572 -9.8174 0)
(-1.26101 -9.81466 0)
(-1.24893 -9.80765 0)
(3.73793 -9.81619 0)
(-1.26571 -9.81752 0)
(-1.26094 -9.81483 0)
(-1.24891 -9.80795 0)
(3.73795 -9.816 0)
(-1.2657 -9.81762 0)
(-1.26085 -9.81487 0)
(-1.24888 -9.80809 0)
(3.73796 -9.81597 0)
(-1.26569 -9.81776 0)
(-1.26078 -9.81503 0)
(-1.24886 -9.80833 0)
(3.73797 -9.81585 0)
(-1.26568 -9.81789 0)
(-1.2607 -9.81511 0)
(-1.24883 -9.80848 0)
(3.73798 -9.81581 0)
(-1.26568 -9.81801 0)
(-1.26062 -9.81521 0)
(-1.2488 -9.80868 0)
(3.73797 -9.81574 0)
(-1.26567 -9.81804 0)
(-1.26054 -9.8152 0)
(-1.24877 -9.80877 0)
(3.73797 -9.81561 0)
(-1.26567 -9.81797 0)
(-1.26047 -9.81493 0)
(-1.24874 -9.8086 0)
(3.73796 -9.81541 0)
(-1.26566 -9.8176 0)
(-1.26039 -9.81405 0)
(-1.24871 -9.80818 0)
(3.73795 -9.81524 0)
(-1.26564 -9.81679 0)
(-1.26031 -9.8125 0)
(-1.24869 -9.80756 0)
(-1.23929 -9.81352 0)
(-1.23307 -9.81039 0)
(-1.23718 -9.81281 0)
(3.74795 -9.82063 0)
(-1.23929 -9.81079 0)
(-1.23306 -9.80759 0)
(-1.23725 -9.8092 0)
(3.74788 -9.81605 0)
(-1.23928 -9.81056 0)
(-1.23304 -9.80645 0)
(-1.23732 -9.80804 0)
(3.74781 -9.81587 0)
(-1.23926 -9.81005 0)
(-1.23302 -9.80562 0)
(-1.23741 -9.80797 0)
(3.74774 -9.81647 0)
(-1.23927 -9.8108 0)
(-1.233 -9.80547 0)
(-1.2375 -9.80874 0)
(3.74768 -9.81877 0)
(-1.23926 -9.81227 0)
(-1.23298 -9.80597 0)
(-1.23763 -9.80936 0)
(3.74763 -9.82089 0)
(-1.23924 -9.81221 0)
(-1.23296 -9.80594 0)
(-1.23775 -9.80911 0)
(3.74757 -9.82043 0)
(-1.23922 -9.812 0)
(-1.23293 -9.80599 0)
(-1.23787 -9.80879 0)
(3.74751 -9.81973 0)
(-1.23921 -9.8119 0)
(-1.2329 -9.80611 0)
(-1.23798 -9.80855 0)
(3.74745 -9.81923 0)
(-1.23919 -9.81175 0)
(-1.23287 -9.80614 0)
(-1.23809 -9.80829 0)
(3.74739 -9.81861 0)
(-1.23917 -9.81167 0)
(-1.23284 -9.80623 0)
(-1.23819 -9.8081 0)
(3.74732 -9.81808 0)
(-1.23915 -9.81156 0)
(-1.23281 -9.80631 0)
(-1.23829 -9.80796 0)
(3.74726 -9.81759 0)
(-1.23913 -9.81132 0)
(-1.23278 -9.80648 0)
(-1.23838 -9.80803 0)
(3.74719 -9.81701 0)
(-1.23911 -9.81084 0)
(-1.23276 -9.80702 0)
(-1.23846 -9.8088 0)
(3.74713 -9.81658 0)
(-1.23911 -9.81013 0)
(-1.23275 -9.80803 0)
(-1.23854 -9.81036 0)
(3.74708 -9.81662 0)
)
;

boundaryField
{
    topWall
    {
        type            extrapolatedCalculated;
        value           nonuniform List<vector> 0();
    }
    botWall
    {
        type            extrapolatedCalculated;
        value           nonuniform List<vector> 0();
    }
    inlet
    {
        type            cyclic;
    }
    outlet
    {
        type            cyclic;
    }
    fixWall
    {
        type            empty;
    }
    procBoundary5to4
    {
        type            processor;
        value           nonuniform List<vector> 8((3.73799 -9.82257 0) (-1.2658 -9.81799 0) (-1.26161 -9.81256 0) (-1.24914 -9.81013 0) (-1.2393 -9.81492 0) (-1.23307 -9.81225 0) (-1.23708 -9.81721 0) (3.748 -9.82592 0));
    }
    procBoundary5to6
    {
        type            processor;
        value           nonuniform List<vector> 8((3.73795 -9.81517 0) (-1.26561 -9.81599 0) (-1.26023 -9.81092 0) (-1.24867 -9.80718 0) (-1.23912 -9.80947 0) (-1.23276 -9.80933 0) (-1.2386 -9.81219 0) (3.74705 -9.81691 0));
    }
}


// ************************************************************************* //
