/*--------------------------------*- C++ -*----------------------------------*\
  =========                 |
  \\      /  F ield         | OpenFOAM: The Open Source CFD Toolbox
   \\    /   O peration     | Website:  https://openfoam.org
    \\  /    A nd           | Version:  dev
     \\/     M anipulation  |

   OpenFOAM for Windows 20.09 (v1)
   Built by CFD Support, www.cfdsupport.com (based on Symscape).
\*---------------------------------------------------------------------------*/
FoamFile
{
    version     2.0;
    format      ascii;
    class       volVectorField;
    location    "6";
    object      gradp_rgh;
}
// * * * * * * * * * * * * * * * * * * * * * * * * * * * * * * * * * * * * * //

dimensions      [1 -2 -2 0 0 0 0];

internalField   nonuniform List<vector> 
120
(
(-1.26197 -0.0102313 0)
(-1.26574 -0.0113088 0)
(-1.26155 -0.00613844 0)
(-1.24914 -0.00100998 0)
(-1.26202 -0.00740348 0)
(-1.26573 -0.0120092 0)
(-1.26144 -0.0068145 0)
(-1.24909 0.00183458 0)
(-1.26207 -0.00610171 0)
(-1.26573 -0.0114008 0)
(-1.26132 -0.00689768 0)
(-1.24904 0.00211689 0)
(-1.26212 -0.00559441 0)
(-1.26574 -0.00987728 0)
(-1.26121 -0.00570659 0)
(-1.24899 0.0036691 0)
(-1.26213 -0.0056625 0)
(-1.26573 -0.00793957 0)
(-1.2611 -0.00442344 0)
(-1.24895 0.00404445 0)
(-1.2621 -0.00621812 0)
(-1.26572 -0.00739601 0)
(-1.26101 -0.00465678 0)
(-1.24893 0.00235158 0)
(-1.26207 -0.00618767 0)
(-1.26571 -0.00751623 0)
(-1.26094 -0.00482716 0)
(-1.24891 0.00204833 0)
(-1.26205 -0.00599574 0)
(-1.2657 -0.00761747 0)
(-1.26085 -0.00487139 0)
(-1.24888 0.00190718 0)
(-1.26204 -0.00597018 0)
(-1.26569 -0.00775516 0)
(-1.26078 -0.00502963 0)
(-1.24886 0.00166835 0)
(-1.26203 -0.00585094 0)
(-1.26568 -0.00789007 0)
(-1.2607 -0.00510634 0)
(-1.24883 0.00151983 0)
(-1.26202 -0.00580647 0)
(-1.26568 -0.00800891 0)
(-1.26062 -0.00521001 0)
(-1.2488 0.00131538 0)
(-1.26203 -0.00574006 0)
(-1.26567 -0.00803609 0)
(-1.26054 -0.00520044 0)
(-1.24877 0.0012336 0)
(-1.26203 -0.00561349 0)
(-1.26567 -0.00797271 0)
(-1.26047 -0.00492529 0)
(-1.24874 0.00140233 0)
(-1.26204 -0.00540779 0)
(-1.26566 -0.00760057 0)
(-1.26039 -0.00404551 0)
(-1.24871 0.0018193 0)
(-1.26205 -0.00523669 0)
(-1.26564 -0.00679224 0)
(-1.26031 -0.00250406 0)
(-1.24869 0.00243513 0)
(-1.23929 -0.00351886 0)
(-1.23307 -0.000386364 0)
(-1.23718 -0.00280652 0)
(-1.25205 -0.0106255 0)
(-1.23929 -0.000787943 0)
(-1.23306 0.00241299 0)
(-1.23725 0.000803675 0)
(-1.25212 -0.0060539 0)
(-1.23928 -0.000557245 0)
(-1.23304 0.00354566 0)
(-1.23732 0.00195958 0)
(-1.25219 -0.00587133 0)
(-1.23926 -4.77199e-05 0)
(-1.23302 0.00438485 0)
(-1.23741 0.00203392 0)
(-1.25226 -0.00647303 0)
(-1.23927 -0.000798667 0)
(-1.233 0.00452632 0)
(-1.2375 0.00126191 0)
(-1.25232 -0.00876933 0)
(-1.23926 -0.00226617 0)
(-1.23298 0.00402818 0)
(-1.23763 0.000643145 0)
(-1.25237 -0.0108916 0)
(-1.23924 -0.00220952 0)
(-1.23296 0.0040551 0)
(-1.23775 0.000890392 0)
(-1.25243 -0.0104298 0)
(-1.23922 -0.00199513 0)
(-1.23293 0.00401395 0)
(-1.23787 0.00120635 0)
(-1.25249 -0.00973423 0)
(-1.23921 -0.00189797 0)
(-1.2329 0.0038937 0)
(-1.23798 0.00145297 0)
(-1.25255 -0.00923499 0)
(-1.23919 -0.00174958 0)
(-1.23287 0.00385545 0)
(-1.23809 0.00171342 0)
(-1.25261 -0.00860515 0)
(-1.23917 -0.00167134 0)
(-1.23284 0.00377154 0)
(-1.23819 0.00190425 0)
(-1.25268 -0.00808364 0)
(-1.23915 -0.00155774 0)
(-1.23281 0.00368991 0)
(-1.23829 0.00203688 0)
(-1.25274 -0.00758518 0)
(-1.23913 -0.00131726 0)
(-1.23278 0.00352474 0)
(-1.23838 0.00197127 0)
(-1.25281 -0.00700829 0)
(-1.23911 -0.000842467 0)
(-1.23276 0.00298292 0)
(-1.23846 0.00119961 0)
(-1.25287 -0.00658471 0)
(-1.23911 -0.00012837 0)
(-1.23275 0.00197276 0)
(-1.23854 -0.000361599 0)
(-1.25292 -0.00661927 0)
)
;

boundaryField
{
    topWall
    {
        type            extrapolatedCalculated;
        value           nonuniform List<vector> 0();
    }
    botWall
    {
        type            extrapolatedCalculated;
        value           nonuniform List<vector> 0();
    }
    inlet
    {
        type            cyclic;
    }
    outlet
    {
        type            cyclic;
    }
    fixWall
    {
        type            empty;
    }
    procBoundary5to4
    {
        type            processor;
        value           nonuniform List<vector> 8((-1.26201 -0.0125682 0) (-1.2658 -0.00798838 0) (-1.26161 -0.00256105 0) (-1.24914 -0.000130689 0) (-1.2393 -0.00491615 0) (-1.23307 -0.00224869 0) (-1.23708 -0.00721236 0) (-1.252 -0.0159205 0));
    }
    procBoundary5to6
    {
        type            processor;
        value           nonuniform List<vector> 8((-1.26205 -0.00516526 0) (-1.26561 -0.00598617 0) (-1.26023 -0.000919444 0) (-1.24867 0.00281815 0) (-1.23912 0.000532198 0) (-1.23276 0.00066594 0) (-1.2386 -0.00219343 0) (-1.25295 -0.00690781 0));
    }
}


// ************************************************************************* //
