/*--------------------------------*- C++ -*----------------------------------*\
  =========                 |
  \\      /  F ield         | OpenFOAM: The Open Source CFD Toolbox
   \\    /   O peration     | Website:  https://openfoam.org
    \\  /    A nd           | Version:  dev
     \\/     M anipulation  |

   OpenFOAM for Windows 20.09 (v1)
   Built by CFD Support, www.cfdsupport.com (based on Symscape).
\*---------------------------------------------------------------------------*/
FoamFile
{
    version     2.0;
    format      ascii;
    class       volTensorField;
    location    "6";
    object      gradU;
}
// * * * * * * * * * * * * * * * * * * * * * * * * * * * * * * * * * * * * * //

dimensions      [0 0 -1 0 0 0 0];

internalField   nonuniform List<tensor> 
120
(
(-0.000167763 -0.00035631 0 4.89233 0.00237502 0 0 0 0)
(0.000132262 -0.000287926 0 4.81544 -0.000621296 0 0 0 0)
(0.000172096 -0.000311693 0 4.85304 0.00188748 0 0 0 0)
(-0.00249147 0.000605694 0 4.8643 0.0108917 0 0 0 0)
(-0.00106453 -0.000333429 0 4.06943 0.00125985 0 0 0 0)
(-0.000226535 -0.000241427 0 4.00592 0.00188293 0 0 0 0)
(0.000486757 -0.000197831 0 4.03874 0.000329501 0 0 0 0)
(-0.0024887 0.000632245 0 4.04591 0.00104315 0 0 0 0)
(-0.00158933 -0.000273097 0 3.36634 0.000799998 0 0 0 0)
(-0.000379241 -0.000303432 0 3.31011 -0.00112439 0 0 0 0)
(0.00083867 -0.000325689 0 3.34305 -0.00215008 0 0 0 0)
(-0.00249481 0.00058735 0 3.34905 -0.000130821 0 0 0 0)
(-0.00200813 -0.000327809 0 2.76921 0.00275158 0 0 0 0)
(-0.000614692 -0.000290595 0 2.71944 0.00241151 0 0 0 0)
(0.00113571 -0.000181272 0 2.74767 0.00175797 0 0 0 0)
(-0.00256938 0.000676833 0 2.75193 0.00795945 0 0 0 0)
(-0.00211597 -0.000247084 0 2.25307 0.001462 0 0 0 0)
(-0.000738242 -0.000319992 0 2.2183 0.000654822 0 0 0 0)
(0.00138007 -0.000233224 0 2.24214 -0.0022466 0 0 0 0)
(-0.0025014 0.000630453 0 2.24594 -0.00185161 0 0 0 0)
(-0.00201827 -0.000218186 0 1.82116 0.00169121 0 0 0 0)
(-0.000796805 -0.000352405 0 1.79672 -0.000167329 0 0 0 0)
(0.00159644 -0.000223046 0 1.81374 -0.00217602 0 0 0 0)
(-0.00247236 0.000691444 0 1.8164 0.00314386 0 0 0 0)
(-0.00189567 -0.000230242 0 1.45977 0.00285828 0 0 0 0)
(-0.000861972 -0.000384446 0 1.44434 0.000835821 0 0 0 0)
(0.00170802 -0.000178037 0 1.45111 -0.000900682 0 0 0 0)
(-0.00216576 0.000715042 0 1.45305 0.00289606 0 0 0 0)
(-0.00179476 -0.00016875 0 1.15938 0.0013457 0 0 0 0)
(-0.000941152 -0.000415054 0 1.15025 0.000782272 0 0 0 0)
(0.00174164 -0.000188708 0 1.14855 -0.00199799 0 0 0 0)
(-0.00183645 0.000753266 0 1.14886 0.00143516 0 0 0 0)
(-0.00172443 -0.000143371 0 0.909046 0.00204117 0 0 0 0)
(-0.00104252 -0.000440174 0 0.905861 0.000916425 0 0 0 0)
(0.00168485 -0.000167156 0 0.893249 -0.00134226 0 0 0 0)
(-0.00140061 0.000774785 0 0.893876 0.00163853 0 0 0 0)
(-0.00165024 -9.31382e-05 0 0.699877 0.0016537 0 0 0 0)
(-0.00120444 -0.000471445 0 0.702101 0.00107633 0 0 0 0)
(0.00154188 -0.000176673 0 0.68249 -0.00146764 0 0 0 0)
(-0.00107832 0.000806054 0 0.682285 0.00102446 0 0 0 0)
(-0.00158451 -5.51632e-05 0 0.523939 0.0016049 0 0 0 0)
(-0.0013323 -0.000492196 0 0.532001 0.00114011 0 0 0 0)
(0.00135457 -0.00016802 0 0.506878 -0.00127641 0 0 0 0)
(-0.000673888 0.000821702 0 0.506424 0.000550799 0 0 0 0)
(-0.00148429 -4.92564e-06 0 0.37407 0.00154603 0 0 0 0)
(-0.00148879 -0.000519466 0 0.387947 0.00144767 0 0 0 0)
(0.0011156 -0.000186495 0 0.360037 -0.00104972 0 0 0 0)
(-0.000407991 0.000843876 0 0.354352 0.000401172 0 0 0 0)
(-0.00137846 4.00514e-05 0 0.243469 0.00141447 0 0 0 0)
(-0.00156619 -0.000535459 0 0.264264 0.00114085 0 0 0 0)
(0.000794657 -0.000185462 0 0.237112 -0.000915174 0 0 0 0)
(-0.000187729 0.000853101 0 0.216245 0.000195649 0 0 0 0)
(-0.00120911 7.56681e-05 0 0.126105 0.00140436 0 0 0 0)
(-0.00159473 -0.000558294 0 0.154116 0.00165321 0 0 0 0)
(0.000315276 -0.000202248 0 0.128066 5.74312e-05 0 0 0 0)
(-0.000393336 0.000867051 0 0.0961913 0.000433882 0 0 0 0)
(-0.00101871 0.000134411 0 0.0160953 0.00101332 0 0 0 0)
(-0.00153351 -0.000557908 0 0.0529109 0.00170865 0 0 0 0)
(-0.000170761 -0.000205784 0 0.0303177 0.000777205 0 0 0 0)
(-0.000392451 0.000860219 0 -0.0065086 0.000827794 0 0 0 0)
(-0.00128767 0.000107828 0 4.85847 0.00756845 0 0 0 0)
(0.0026338 4.08023e-05 0 4.85825 0.000722288 0 0 0 0)
(0.00128334 0.000560176 0 4.86582 0.00141452 0 0 0 0)
(-0.00027459 -0.00035857 0 4.92672 0.0071324 0 0 0 0)
(-0.00136336 -3.23398e-05 0 4.03854 -0.000771136 0 0 0 0)
(0.00270417 -4.75489e-05 0 4.03294 -0.00290648 0 0 0 0)
(0.00194114 0.0005636 0 4.03084 -0.00306388 0 0 0 0)
(1.10605e-05 -0.00034327 0 4.09121 -0.00310987 0 0 0 0)
(-0.00150396 4.20004e-05 0 3.33821 0.000525179 0 0 0 0)
(0.00250548 2.58981e-06 0 3.3259 -0.00348214 0 0 0 0)
(0.00225463 0.000556786 0 3.30484 -0.00295304 0 0 0 0)
(0.000368571 -0.000286508 0 3.36673 -0.00146161 0 0 0 0)
(-0.00174917 -8.81951e-05 0 2.74728 0.00434413 0 0 0 0)
(0.00214794 -0.000105519 0 2.72953 -0.000397708 0 0 0 0)
(0.00262159 0.000597276 0 2.68783 -0.00250943 0 0 0 0)
(0.00103614 -0.000280719 0 2.75104 0.000850728 0 0 0 0)
(-0.00187721 -9.72856e-05 0 2.24797 -0.00136994 0 0 0 0)
(0.00151478 -0.000111636 0 2.22289 -0.00300855 0 0 0 0)
(0.00261312 0.000577593 0 2.16493 -0.00416703 0 0 0 0)
(0.00172486 -0.000198825 0 2.21891 -0.00592256 0 0 0 0)
(-0.00213343 -0.000107477 0 1.83387 0.00289934 0 0 0 0)
(0.000764039 -0.000152137 0 1.80216 -0.000227761 0 0 0 0)
(0.00255525 0.000548709 0 1.73283 -0.00211691 0 0 0 0)
(0.00250513 -0.000186902 0 1.78351 -0.00117785 0 0 0 0)
(-0.00211452 -0.000153479 0 1.48926 0.00280863 0 0 0 0)
(-0.000169326 -0.00019524 0 1.46098 0.000592765 0 0 0 0)
(0.00230217 0.000561758 0 1.39169 -0.00220085 0 0 0 0)
(0.00319706 -0.000135356 0 1.43093 -0.00213034 0 0 0 0)
(-0.00200118 -0.000145866 0 1.19446 0.00158656 0 0 0 0)
(-0.00086209 -0.000235629 0 1.18005 0.000749796 0 0 0 0)
(0.0020543 0.000503324 0 1.11835 -0.00235375 0 0 0 0)
(0.00363969 -0.000102583 0 1.13998 -0.00442998 0 0 0 0)
(-0.0015947 -0.000164902 0 0.938737 0.00182499 0 0 0 0)
(-0.00143775 -0.000260912 0 0.927418 0.00167075 0 0 0 0)
(0.00163428 0.000475429 0 0.884468 -0.00177882 0 0 0 0)
(0.00388088 -7.36986e-05 0 0.897191 -0.00362026 0 0 0 0)
(-0.00144215 -0.000145329 0 0.726093 0.00134739 0 0 0 0)
(-0.00176657 -0.000295692 0 0.718141 0.00196211 0 0 0 0)
(0.00155051 0.00041514 0 0.688228 -0.00167941 0 0 0 0)
(0.00404932 -3.89166e-05 0 0.693706 -0.00421613 0 0 0 0)
(-0.000997088 -0.000149274 0 0.547098 0.000992923 0 0 0 0)
(-0.00206883 -0.000311359 0 0.538848 0.00210513 0 0 0 0)
(0.00122703 0.000372458 0 0.521482 -0.00148094 0 0 0 0)
(0.00407502 -1.81468e-05 0 0.522044 -0.00415264 0 0 0 0)
(-0.000901743 -0.000119423 0 0.389206 0.000834198 0 0 0 0)
(-0.0021935 -0.000336923 0 0.38525 0.00253107 0 0 0 0)
(0.00127043 0.000310844 0 0.37928 -0.00124115 0 0 0 0)
(0.00409028 1.2514e-05 0 0.375583 -0.00426521 0 0 0 0)
(-0.000482125 -0.000113776 0 0.237991 0.000475343 0 0 0 0)
(-0.00223426 -0.000345948 0 0.244293 0.00248883 0 0 0 0)
(0.00106592 0.000259187 0 0.253014 -0.000931295 0 0 0 0)
(0.00398818 2.83063e-05 0 0.247753 -0.00369477 0 0 0 0)
(-0.000434274 -8.12037e-05 0 0.115783 0.00048456 0 0 0 0)
(-0.00194313 -0.000360367 0 0.126555 0.00205788 0 0 0 0)
(0.0013281 0.000207784 0 0.138448 -0.0017584 0 0 0 0)
(0.0039312 5.161e-05 0 0.132532 -0.00400838 0 0 0 0)
(2.39359e-05 -8.67095e-05 0 0.0216832 0.000275472 0 0 0 0)
(-0.00185651 -0.000383331 0 0.0293387 0.00183044 0 0 0 0)
(0.00116554 0.000158082 0 0.0314916 -0.00171588 0 0 0 0)
(0.00378246 8.1019e-05 0 0.0242658 -0.00402828 0 0 0 0)
)
;

boundaryField
{
    topWall
    {
        type            extrapolatedCalculated;
        value           nonuniform List<tensor> 0();
    }
    botWall
    {
        type            extrapolatedCalculated;
        value           nonuniform List<tensor> 0();
    }
    inlet
    {
        type            cyclic;
    }
    outlet
    {
        type            cyclic;
    }
    fixWall
    {
        type            empty;
    }
    procBoundary5to4
    {
        type            processor;
        value           nonuniform List<tensor> 8((0.000790069 -0.000204201 0 5.84591 -0.00166868 0 0 0 0) (0.00042835 -0.000233301 0 5.78312 -0.00418522 0 0 0 0) (-0.000327465 -0.000389715 0 5.80962 -0.00434242 0 0 0 0) (-0.00257919 0.000537563 0 5.81269 -0.0067075 0 0 0 0) (-0.00126256 0.000137151 0 5.81512 -0.00334625 0 0 0 0) (0.00258169 5.50166e-05 0 5.82119 -0.00516186 0 0 0 0) (0.000799957 0.000456765 0 5.82639 -0.000951254 0 0 0 0) (-0.000430844 -0.000359278 0 5.87386 -0.00105563 0 0 0 0));
    }
    procBoundary5to6
    {
        type            processor;
        value           nonuniform List<tensor> 8((-0.00073169 0.000171284 0 -0.0922755 0.00083103 0 0 0 0) (-0.00135769 -0.000562229 0 -0.0466836 0.000976777 0 0 0 0) (-0.000675048 -0.000216929 0 -0.0659707 0.000740097 0 0 0 0) (-0.000537245 0.000858689 0 -0.108846 3.3538e-05 0 0 0 0) (0.000163182 -6.44929e-05 0 -0.0750157 -0.000218883 0 0 0 0) (-0.00177966 -0.000393557 0 -0.0688002 0.00168416 0 0 0 0) (0.00124356 0.000110139 0 -0.0738887 -0.00158744 0 0 0 0) (0.00367459 9.70967e-05 0 -0.0831655 -0.0037068 0 0 0 0));
    }
}


// ************************************************************************* //
