/*--------------------------------*- C++ -*----------------------------------*\
  =========                 |
  \\      /  F ield         | OpenFOAM: The Open Source CFD Toolbox
   \\    /   O peration     | Website:  https://openfoam.org
    \\  /    A nd           | Version:  dev
     \\/     M anipulation  |

   OpenFOAM for Windows 20.09 (v1)
   Built by CFD Support, www.cfdsupport.com (based on Symscape).
\*---------------------------------------------------------------------------*/
FoamFile
{
    version     2.0;
    format      ascii;
    class       volScalarField;
    location    "6";
    object      k;
}
// * * * * * * * * * * * * * * * * * * * * * * * * * * * * * * * * * * * * * //

dimensions      [0 2 -2 0 0 0 0];

internalField   nonuniform List<scalar> 
120
(
6.37524e-16
6.37068e-16
6.36954e-16
6.36847e-16
5.86163e-16
5.85719e-16
5.85534e-16
5.85525e-16
5.38472e-16
5.38084e-16
5.37802e-16
5.37895e-16
4.94537e-16
4.9426e-16
4.93836e-16
4.94038e-16
4.54349e-16
4.54151e-16
4.53569e-16
4.53893e-16
4.17732e-16
4.17614e-16
4.16849e-16
4.17322e-16
3.84509e-16
3.84464e-16
3.83489e-16
3.84141e-16
3.54475e-16
3.54499e-16
3.53283e-16
3.54148e-16
3.2743e-16
3.2752e-16
3.26211e-16
3.2714e-16
3.0318e-16
3.03337e-16
3.02113e-16
3.02925e-16
2.81549e-16
2.81775e-16
2.80713e-16
2.81327e-16
2.62381e-16
2.62679e-16
2.61753e-16
2.62189e-16
2.45543e-16
2.4591e-16
2.45081e-16
2.45371e-16
2.30918e-16
2.31354e-16
2.30586e-16
2.30758e-16
2.22045e-16
2.22045e-16
2.22045e-16
2.22045e-16
6.37026e-16
6.36533e-16
6.36674e-16
6.37743e-16
5.85739e-16
5.85258e-16
5.85334e-16
5.86356e-16
5.38145e-16
5.37676e-16
5.37688e-16
5.38634e-16
4.94325e-16
4.93868e-16
4.93828e-16
4.94677e-16
4.54216e-16
4.53774e-16
4.53698e-16
4.54438e-16
4.17677e-16
4.1725e-16
4.17154e-16
4.17784e-16
3.84522e-16
3.8411e-16
3.84006e-16
3.84526e-16
3.5455e-16
3.5415e-16
3.54047e-16
3.54459e-16
3.27563e-16
3.27168e-16
3.27068e-16
3.27376e-16
3.03373e-16
3.02976e-16
3.02968e-16
3.03081e-16
2.81805e-16
2.81395e-16
2.81474e-16
2.81399e-16
2.62705e-16
2.62266e-16
2.62434e-16
2.62169e-16
2.45939e-16
2.4545e-16
2.45713e-16
2.45246e-16
2.31394e-16
2.30829e-16
2.312e-16
2.3051e-16
2.22045e-16
2.22045e-16
2.22045e-16
2.22045e-16
)
;

boundaryField
{
    topWall
    {
        type            kqRWallFunction;
        value           nonuniform List<scalar> 0();
    }
    botWall
    {
        type            kqRWallFunction;
        value           nonuniform List<scalar> 0();
    }
    inlet
    {
        type            cyclic;
    }
    outlet
    {
        type            cyclic;
    }
    fixWall
    {
        type            empty;
    }
    procBoundary5to4
    {
        type            processor;
        value           nonuniform List<scalar> 8(6.92246e-16 6.91849e-16 6.91776e-16 6.91563e-16 6.91707e-16 6.91195e-16 6.91397e-16 6.92469e-16);
    }
    procBoundary5to6
    {
        type            processor;
        value           uniform 2.22045e-16;
    }
}


// ************************************************************************* //
