/*--------------------------------*- C++ -*----------------------------------*\
  =========                 |
  \\      /  F ield         | OpenFOAM: The Open Source CFD Toolbox
   \\    /   O peration     | Website:  https://openfoam.org
    \\  /    A nd           | Version:  dev
     \\/     M anipulation  |

   OpenFOAM for Windows 20.09 (v1)
   Built by CFD Support, www.cfdsupport.com (based on Symscape).
\*---------------------------------------------------------------------------*/
FoamFile
{
    version     2.0;
    format      ascii;
    class       volScalarField;
    location    "6";
    object      nut;
}
// * * * * * * * * * * * * * * * * * * * * * * * * * * * * * * * * * * * * * //

dimensions      [0 2 -1 0 0 0 0];

internalField   nonuniform List<scalar> 
120
(
3.17643e-17
3.17513e-17
3.17432e-17
3.17349e-17
2.98338e-17
2.98202e-17
2.98101e-17
2.9807e-17
2.7826e-17
2.78133e-17
2.78003e-17
2.78026e-17
2.57883e-17
2.57795e-17
2.57612e-17
2.57692e-17
2.37642e-17
2.37583e-17
2.37328e-17
2.37478e-17
2.17858e-17
2.17833e-17
2.17491e-17
2.17722e-17
1.98808e-17
1.98818e-17
1.98371e-17
1.98699e-17
1.80703e-17
1.80746e-17
1.8018e-17
1.80617e-17
1.63693e-17
1.63768e-17
1.63162e-17
1.63627e-17
1.47881e-17
1.47986e-17
1.4743e-17
1.47832e-17
1.33322e-17
1.33456e-17
1.32988e-17
1.33286e-17
1.20038e-17
1.202e-17
1.19804e-17
1.20011e-17
1.08021e-17
1.08207e-17
1.07864e-17
1.07999e-17
9.7237e-18
9.74434e-18
9.71361e-18
9.72156e-18
8.90925e-18
8.9114e-18
8.91254e-18
8.9132e-18
3.17479e-17
3.17261e-17
3.17394e-17
3.17744e-17
2.98205e-17
2.98e-17
2.98107e-17
2.98464e-17
2.78175e-17
2.77976e-17
2.78054e-17
2.7841e-17
2.57858e-17
2.57665e-17
2.57713e-17
2.58053e-17
2.3766e-17
2.37471e-17
2.37494e-17
2.37805e-17
2.1792e-17
2.17734e-17
2.17736e-17
2.18011e-17
1.98908e-17
1.98726e-17
1.98713e-17
1.98944e-17
1.80835e-17
1.80655e-17
1.80632e-17
1.80817e-17
1.63853e-17
1.63673e-17
1.63643e-17
1.6378e-17
1.48065e-17
1.47883e-17
1.47891e-17
1.47935e-17
1.33528e-17
1.33341e-17
1.33385e-17
1.33342e-17
1.20264e-17
1.20066e-17
1.20146e-17
1.20019e-17
1.08265e-17
1.08051e-17
1.08167e-17
1.07958e-17
9.74997e-18
9.72596e-18
9.74156e-18
9.71217e-18
8.91477e-18
8.91445e-18
8.91437e-18
8.91401e-18
)
;

boundaryField
{
    topWall
    {
        type            nutkWallFunction;
        Cmu             0.09;
        kappa           0.41;
        E               9.8;
        value           nonuniform List<scalar> 0();
    }
    botWall
    {
        type            nutkWallFunction;
        Cmu             0.09;
        kappa           0.41;
        E               9.8;
        value           nonuniform List<scalar> 0();
    }
    inlet
    {
        type            cyclic;
    }
    outlet
    {
        type            cyclic;
    }
    fixWall
    {
        type            empty;
    }
    procBoundary5to4
    {
        type            processor;
        value           nonuniform List<scalar> 8(3.3439e-17 3.34241e-17 3.34175e-17 3.34066e-17 3.34196e-17 3.33961e-17 3.34107e-17 3.34442e-17);
    }
    procBoundary5to6
    {
        type            processor;
        value           nonuniform List<scalar> 8(8.45946e-18 8.46136e-18 8.46199e-18 8.46272e-18 8.46435e-18 8.4639e-18 8.46377e-18 8.46337e-18);
    }
}


// ************************************************************************* //
