/*--------------------------------*- C++ -*----------------------------------*\
  =========                 |
  \\      /  F ield         | OpenFOAM: The Open Source CFD Toolbox
   \\    /   O peration     | Website:  https://openfoam.org
    \\  /    A nd           | Version:  dev
     \\/     M anipulation  |

   OpenFOAM for Windows 20.09 (v1)
   Built by CFD Support, www.cfdsupport.com (based on Symscape).
\*---------------------------------------------------------------------------*/
FoamFile
{
    version     2.0;
    format      ascii;
    class       volScalarField;
    location    "6";
    object      omega;
}
// * * * * * * * * * * * * * * * * * * * * * * * * * * * * * * * * * * * * * //

dimensions      [0 0 -1 0 0 0 0];

internalField   nonuniform List<scalar> 
120
(
20.0704
20.0643
20.0659
20.0677
19.6476
19.6417
19.6421
19.6439
19.3514
19.3463
19.3452
19.3469
19.1768
19.1726
19.1698
19.1716
19.1191
19.1155
19.1115
19.1131
19.1745
19.1713
19.1663
19.1676
19.3407
19.3374
19.3319
19.3328
19.6165
19.6131
19.6072
19.6077
20.0026
19.999
19.993
19.993
20.5016
20.4977
20.4919
20.4912
21.118
21.1137
21.1081
21.1071
21.8582
21.8535
21.8483
21.847
22.7311
22.726
22.7213
22.7198
23.748
23.7424
23.7384
23.7367
24.9229
24.9169
24.9137
24.9119
20.0652
20.0634
20.0594
20.0709
19.6422
19.6395
19.635
19.6458
19.3456
19.3425
19.3375
19.3468
19.1704
19.1671
19.1619
19.1696
19.112
19.1086
19.1036
19.1097
19.1665
19.1633
19.1587
19.1634
19.3316
19.3286
19.3247
19.3283
19.6063
19.6037
19.6005
19.6032
19.9913
19.9891
19.9867
19.9887
20.4892
20.4875
20.4859
20.4874
21.1046
21.1034
21.1024
21.1036
21.8441
21.8434
21.8429
21.8439
22.7164
22.7162
22.7162
22.7169
23.7328
23.7333
23.7333
23.7342
24.9075
24.9084
24.9086
24.9096
)
;

boundaryField
{
    topWall
    {
        beta1           0.075;
        blended         0;
        type            omegaWallFunction;
        value           nonuniform List<scalar> 0();
    }
    botWall
    {
        beta1           0.075;
        blended         0;
        type            omegaWallFunction;
        value           nonuniform List<scalar> 0();
    }
    inlet
    {
        type            cyclic;
    }
    outlet
    {
        type            cyclic;
    }
    fixWall
    {
        type            empty;
    }
    procBoundary5to4
    {
        type            processor;
        value           nonuniform List<scalar> 8(20.7018 20.6991 20.701 20.7014 20.6976 20.6969 20.6939 20.7052);
    }
    procBoundary5to6
    {
        type            processor;
        value           nonuniform List<scalar> 8(26.2481 26.2422 26.2402 26.238 26.2329 26.2343 26.2347 26.2359);
    }
}


// ************************************************************************* //
