/*--------------------------------*- C++ -*----------------------------------*\
  =========                 |
  \\      /  F ield         | OpenFOAM: The Open Source CFD Toolbox
   \\    /   O peration     | Website:  https://openfoam.org
    \\  /    A nd           | Version:  dev
     \\/     M anipulation  |

   OpenFOAM for Windows 20.09 (v1)
   Built by CFD Support, www.cfdsupport.com (based on Symscape).
\*---------------------------------------------------------------------------*/
FoamFile
{
    version     2.0;
    format      ascii;
    class       volScalarField;
    location    "6";
    object      p;
}
// * * * * * * * * * * * * * * * * * * * * * * * * * * * * * * * * * * * * * //

dimensions      [1 -1 -2 0 0 0 0];

internalField   nonuniform List<scalar> 
120
(
-5.01487
-5.07806
-5.14144
-5.20422
-5.02305
-5.08625
-5.14962
-5.21239
-5.03123
-5.09443
-5.1578
-5.22057
-5.03941
-5.10262
-5.16598
-5.22874
-5.04759
-5.1108
-5.17416
-5.23691
-5.05577
-5.11898
-5.18234
-5.24508
-5.06395
-5.12716
-5.19052
-5.25326
-5.07213
-5.13534
-5.1987
-5.26143
-5.08031
-5.14353
-5.20688
-5.2696
-5.08849
-5.15171
-5.21506
-5.27778
-5.09667
-5.15989
-5.22324
-5.28595
-5.10485
-5.16807
-5.23142
-5.29412
-5.11303
-5.17625
-5.23959
-5.3023
-5.12121
-5.18443
-5.24777
-5.31047
-5.12939
-5.19261
-5.25595
-5.31865
-5.26636
-5.32815
-5.38966
-5.45187
-5.27453
-5.33632
-5.39784
-5.46005
-5.28271
-5.34449
-5.40601
-5.46823
-5.29088
-5.35267
-5.41418
-5.47641
-5.29906
-5.36084
-5.42236
-5.48459
-5.30723
-5.36901
-5.43053
-5.49277
-5.31541
-5.37718
-5.43871
-5.50096
-5.32359
-5.38535
-5.44688
-5.50914
-5.33176
-5.39352
-5.45505
-5.51732
-5.33994
-5.4017
-5.46323
-5.5255
-5.34812
-5.40987
-5.4714
-5.53369
-5.35629
-5.41804
-5.47957
-5.54187
-5.36447
-5.42621
-5.48775
-5.55005
-5.37265
-5.43438
-5.49592
-5.55823
-5.38082
-5.44256
-5.5041
-5.56641
)
;

boundaryField
{
    topWall
    {
        type            calculated;
        value           nonuniform List<scalar> 0();
    }
    botWall
    {
        type            calculated;
        value           nonuniform List<scalar> 0();
    }
    inlet
    {
        type            cyclic;
    }
    outlet
    {
        type            cyclic;
    }
    fixWall
    {
        type            empty;
    }
    procBoundary5to4
    {
        type            processor;
        value           nonuniform List<scalar> 8(-5.00668 -5.06988 -5.13326 -5.19604 -5.25818 -5.31997 -5.38148 -5.44368);
    }
    procBoundary5to6
    {
        type            processor;
        value           nonuniform List<scalar> 8(-5.13757 -5.20079 -5.26413 -5.32682 -5.389 -5.45073 -5.51227 -5.57459);
    }
}


// ************************************************************************* //
