/*--------------------------------*- C++ -*----------------------------------*\
  =========                 |
  \\      /  F ield         | OpenFOAM: The Open Source CFD Toolbox
   \\    /   O peration     | Website:  https://openfoam.org
    \\  /    A nd           | Version:  dev
     \\/     M anipulation  |

   OpenFOAM for Windows 20.09 (v1)
   Built by CFD Support, www.cfdsupport.com (based on Symscape).
\*---------------------------------------------------------------------------*/
FoamFile
{
    version     2.0;
    format      ascii;
    class       volScalarField;
    location    "6";
    object      p_rgh;
}
// * * * * * * * * * * * * * * * * * * * * * * * * * * * * * * * * * * * * * //

dimensions      [1 -1 -2 0 0 0 0];

internalField   nonuniform List<scalar> 
120
(
-4.39765
-4.46085
-4.52423
-4.58701
-4.39766
-4.46086
-4.52423
-4.58701
-4.39767
-4.46087
-4.52424
-4.587
-4.39767
-4.46088
-4.52425
-4.587
-4.39768
-4.46089
-4.52425
-4.587
-4.39768
-4.46089
-4.52425
-4.587
-4.39769
-4.4609
-4.52426
-4.58699
-4.39769
-4.46091
-4.52426
-4.58699
-4.3977
-4.46091
-4.52427
-4.58699
-4.3977
-4.46092
-4.52427
-4.58699
-4.39771
-4.46093
-4.52427
-4.58699
-4.39771
-4.46093
-4.52428
-4.58699
-4.39772
-4.46094
-4.52428
-4.58699
-4.39772
-4.46095
-4.52429
-4.58698
-4.39772
-4.46095
-4.52429
-4.58698
-4.64914
-4.71094
-4.77245
-4.83465
-4.64914
-4.71093
-4.77245
-4.83466
-4.64914
-4.71093
-4.77245
-4.83466
-4.64914
-4.71093
-4.77245
-4.83467
-4.64914
-4.71092
-4.77244
-4.83467
-4.64915
-4.71092
-4.77244
-4.83468
-4.64915
-4.71092
-4.77244
-4.83469
-4.64915
-4.71091
-4.77244
-4.8347
-4.64915
-4.71091
-4.77244
-4.83471
-4.64915
-4.71091
-4.77244
-4.83472
-4.64915
-4.7109
-4.77244
-4.83472
-4.64916
-4.7109
-4.77244
-4.83473
-4.64916
-4.7109
-4.77244
-4.83474
-4.64916
-4.7109
-4.77243
-4.83474
-4.64916
-4.71089
-4.77243
-4.83475
)
;

boundaryField
{
    topWall
    {
        type            zeroGradient;
    }
    botWall
    {
        type            zeroGradient;
    }
    inlet
    {
        type            fixedJump;
        patchType       cyclic;
        jump            uniform -0.5;
        value           nonuniform List<scalar> 
15
(
-4.36615
-4.36616
-4.36617
-4.36617
-4.36618
-4.36618
-4.36619
-4.3662
-4.3662
-4.36621
-4.36621
-4.36622
-4.36623
-4.36623
-4.36624
)
;
    }
    outlet
    {
        type            fixedJump;
        patchType       cyclic;
        value           nonuniform List<scalar> 
15
(
-4.86615
-4.86616
-4.86617
-4.86617
-4.86618
-4.86618
-4.86619
-4.8662
-4.8662
-4.86621
-4.86621
-4.86622
-4.86623
-4.86623
-4.86624
)
;
    }
    fixWall
    {
        type            empty;
    }
    procBoundary5to4
    {
        type            processor;
        value           nonuniform List<scalar> 8(-4.39764 -4.46084 -4.52422 -4.587 -4.64914 -4.71093 -4.77244 -4.83464);
    }
    procBoundary5to6
    {
        type            processor;
        value           nonuniform List<scalar> 8(-4.39773 -4.46096 -4.52429 -4.58698 -4.64916 -4.71089 -4.77243 -4.83475);
    }
}


// ************************************************************************* //
