/*--------------------------------*- C++ -*----------------------------------*\
  =========                 |
  \\      /  F ield         | OpenFOAM: The Open Source CFD Toolbox
   \\    /   O peration     | Website:  https://openfoam.org
    \\  /    A nd           | Version:  dev
     \\/     M anipulation  |

   OpenFOAM for Windows 20.09 (v1)
   Built by CFD Support, www.cfdsupport.com (based on Symscape).
\*---------------------------------------------------------------------------*/
FoamFile
{
    version     2.0;
    format      ascii;
    class       surfaceScalarField;
    location    "6";
    object      phi;
}
// * * * * * * * * * * * * * * * * * * * * * * * * * * * * * * * * * * * * * //

dimensions      [0 3 -1 0 0 0 0];

internalField   nonuniform List<scalar> 
217
(
2.45597e-07
-5.45031e-10
2.45608e-07
2.9294e-10
2.4561e-07
-1.80837e-09
-1.13742e-09
2.45503e-07
2.48666e-07
-4.96394e-10
2.48662e-07
2.96674e-10
2.48677e-07
-1.82301e-09
-1.03136e-09
2.48571e-07
2.51205e-07
-4.26012e-10
2.51195e-07
3.06971e-10
2.51224e-07
-1.85225e-09
-9.25274e-10
2.51118e-07
2.53303e-07
-3.38308e-10
2.53283e-07
3.2724e-10
2.53324e-07
-1.89382e-09
-8.16339e-10
2.53215e-07
2.55017e-07
-2.46263e-10
2.54991e-07
3.52756e-10
2.55043e-07
-1.94545e-09
-7.10493e-10
2.54937e-07
2.56408e-07
-1.58521e-10
2.5638e-07
3.80784e-10
2.56441e-07
-2.00601e-09
-6.0609e-10
2.56336e-07
2.57529e-07
-7.6112e-11
2.57498e-07
4.1157e-10
2.57563e-07
-2.07112e-09
-5.147e-10
2.57472e-07
2.58425e-07
1.87121e-12
2.58391e-07
4.45709e-10
2.58457e-07
-2.13755e-09
-4.37275e-10
2.5838e-07
2.59133e-07
7.67114e-11
2.59095e-07
4.84116e-10
2.59159e-07
-2.20153e-09
-3.7824e-10
2.591e-07
2.59685e-07
1.48261e-10
2.5964e-07
5.29322e-10
2.59698e-07
-2.25948e-09
-3.32851e-10
2.59653e-07
2.60107e-07
2.16892e-10
2.60056e-07
5.79912e-10
2.60106e-07
-2.30956e-09
-3.0452e-10
2.60078e-07
2.60419e-07
2.81185e-10
2.60362e-07
6.37087e-10
2.60402e-07
-2.34963e-09
-2.87452e-10
2.60385e-07
2.60636e-07
3.40927e-10
2.60576e-07
6.97557e-10
2.60602e-07
-2.37626e-09
-2.79732e-10
2.60595e-07
2.60772e-07
3.93488e-10
2.6071e-07
7.59298e-10
2.60716e-07
-2.38285e-09
-2.63611e-10
2.607e-07
2.60831e-07
2.60772e-07
2.60758e-07
2.60742e-07
2.45452e-07
1.15865e-09
2.45554e-07
-9.04884e-10
2.45614e-07
1.16597e-09
1.78837e-09
2.48516e-07
1.21379e-09
2.48622e-07
-1.01066e-09
2.48709e-07
1.07849e-09
1.78272e-09
2.51057e-07
1.27495e-09
2.51154e-07
-1.10822e-09
2.51255e-07
9.77757e-10
1.76233e-09
2.53144e-07
1.34651e-09
2.53226e-07
-1.19095e-09
2.53342e-07
8.61654e-10
1.71424e-09
2.5486e-07
1.42369e-09
2.54916e-07
-1.24739e-09
2.55032e-07
7.45853e-10
1.63768e-09
2.56248e-07
1.51183e-09
2.56274e-07
-1.2727e-09
2.56387e-07
6.32348e-10
1.52894e-09
2.57384e-07
1.59946e-09
2.57371e-07
-1.2593e-09
2.57474e-07
5.29305e-10
1.39165e-09
2.58297e-07
1.68264e-09
2.58255e-07
-1.21716e-09
2.58347e-07
4.36403e-10
1.23619e-09
2.59033e-07
1.74911e-09
2.58967e-07
-1.15115e-09
2.59043e-07
3.60819e-10
1.07094e-09
2.59592e-07
1.80942e-09
2.59513e-07
-1.07157e-09
2.59585e-07
2.88571e-10
8.98925e-10
2.60036e-07
1.8514e-09
2.59944e-07
-9.79508e-10
2.60003e-07
2.29642e-10
7.26076e-10
2.60346e-07
1.88961e-09
2.60249e-07
-8.82355e-10
2.6031e-07
1.68781e-10
5.52817e-10
2.60574e-07
1.91055e-09
2.60475e-07
-7.83582e-10
2.60527e-07
1.16314e-10
3.84038e-10
2.60681e-07
1.92966e-09
2.60595e-07
-6.97009e-10
2.60658e-07
5.28558e-11
2.1783e-10
2.60742e-07
2.60659e-07
2.60716e-07
)
;

boundaryField
{
    topWall
    {
        type            calculated;
        value           nonuniform List<scalar> 0();
    }
    botWall
    {
        type            calculated;
        value           nonuniform List<scalar> 0();
    }
    inlet
    {
        type            cyclic;
        value           nonuniform List<scalar> 
15
(
-2.45608e-07
-2.48715e-07
-2.51275e-07
-2.53391e-07
-2.55109e-07
-2.56496e-07
-2.57611e-07
-2.58503e-07
-2.59208e-07
-2.59757e-07
-2.60176e-07
-2.60483e-07
-2.60696e-07
-2.60824e-07
-2.60875e-07
)
;
    }
    outlet
    {
        type            cyclic;
        value           nonuniform List<scalar> 
15
(
2.45608e-07
2.48715e-07
2.51275e-07
2.53391e-07
2.55109e-07
2.56496e-07
2.57611e-07
2.58503e-07
2.59208e-07
2.59757e-07
2.60176e-07
2.60483e-07
2.60696e-07
2.60824e-07
2.60875e-07
)
;
    }
    fixWall
    {
        type            empty;
        value           nonuniform List<scalar> 0();
    }
    procBoundary5to4
    {
        type            processor;
        value           nonuniform List<scalar> 8(5.57046e-10 -3.04178e-10 1.80901e-09 1.24396e-09 -1.10472e-09 8.00791e-10 -1.22316e-09 -1.78244e-09);
    }
    procBoundary5to6
    {
        type            processor;
        value           nonuniform List<scalar> 8(4.38735e-10 8.1781e-10 -2.36927e-09 -2.46561e-10 1.92935e-09 -6.13813e-10 -4.98635e-12 5.84616e-11);
    }
}


// ************************************************************************* //
