/*--------------------------------*- C++ -*----------------------------------*\
  =========                 |
  \\      /  F ield         | OpenFOAM: The Open Source CFD Toolbox
   \\    /   O peration     | Website:  https://openfoam.org
    \\  /    A nd           | Version:  dev
     \\/     M anipulation  |

   OpenFOAM for Windows 20.09 (v1)
   Built by CFD Support, www.cfdsupport.com (based on Symscape).
\*---------------------------------------------------------------------------*/
FoamFile
{
    version     2.0;
    format      ascii;
    class       volSymmTensorField;
    location    "6";
    object      R;
}
// * * * * * * * * * * * * * * * * * * * * * * * * * * * * * * * * * * * * * //

dimensions      [0 2 -2 0 0 0 0];

internalField   nonuniform List<symmTensor> 
120
(
(4.25073e-16 -1.5539e-16 -0 4.24912e-16 -0 4.25063e-16)
(4.24693e-16 -1.52887e-16 -0 4.24741e-16 -0 4.24701e-16)
(4.24669e-16 -1.54041e-16 -0 4.2456e-16 -0 4.2468e-16)
(4.24901e-16 -1.54387e-16 -0 4.24051e-16 -0 4.24742e-16)
(3.90843e-16 -1.21397e-16 -0 3.90704e-16 -0 3.90779e-16)
(3.90526e-16 -1.1945e-16 -0 3.904e-16 -0 3.90512e-16)
(3.90343e-16 -1.2039e-16 -0 3.90352e-16 -0 3.90372e-16)
(3.90469e-16 -1.20615e-16 -0 3.90259e-16 -0 3.90321e-16)
(3.59055e-16 -9.36643e-17 -0 3.58922e-16 -0 3.58967e-16)
(3.58716e-16 -9.20567e-17 -0 3.58757e-16 -0 3.58695e-16)
(3.58464e-16 -9.2929e-17 -0 3.5863e-16 -0 3.58511e-16)
(3.58687e-16 -9.31286e-17 -0 3.58556e-16 -0 3.58548e-16)
(3.29808e-16 -7.14049e-17 -0 3.29562e-16 -0 3.29704e-16)
(3.29569e-16 -7.00984e-17 -0 3.29413e-16 -0 3.29538e-16)
(3.29215e-16 -7.07785e-17 -0 3.29183e-16 -0 3.29274e-16)
(3.29583e-16 -7.09325e-17 -0 3.29041e-16 -0 3.29451e-16)
(3.02989e-16 -5.35365e-17 -0 3.02819e-16 -0 3.02889e-16)
(3.02801e-16 -5.26954e-17 -0 3.02735e-16 -0 3.02766e-16)
(3.023e-16 -5.32069e-17 -0 3.02472e-16 -0 3.02365e-16)
(3.02646e-16 -5.33512e-17 -0 3.02615e-16 -0 3.02527e-16)
(2.78571e-16 -3.96706e-17 -0 2.7841e-16 -0 2.78484e-16)
(2.7843e-16 -3.9131e-17 -0 2.78403e-16 -0 2.78395e-16)
(2.77822e-16 -3.94422e-17 -0 2.77986e-16 -0 2.77891e-16)
(2.78332e-16 -3.95622e-17 -0 2.78088e-16 -0 2.78225e-16)
(2.56427e-16 -2.90168e-17 -0 2.56238e-16 -0 2.56352e-16)
(2.56343e-16 -2.87084e-17 -0 2.56275e-16 -0 2.56309e-16)
(2.55602e-16 -2.87822e-17 -0 2.55706e-16 -0 2.5567e-16)
(2.56189e-16 -2.88861e-17 -0 2.55988e-16 -0 2.56103e-16)
(2.36376e-16 -2.09473e-17 -0 2.36263e-16 -0 2.36311e-16)
(2.36365e-16 -2.07828e-17 -0 2.36302e-16 -0 2.36331e-16)
(2.35456e-16 -2.06911e-17 -0 2.35591e-16 -0 2.35519e-16)
(2.3616e-16 -2.07639e-17 -0 2.36042e-16 -0 2.36094e-16)
(2.18346e-16 -1.48781e-17 -0 2.18223e-16 -0 2.1829e-16)
(2.18379e-16 -1.48279e-17 -0 2.18315e-16 -0 2.18345e-16)
(2.17423e-16 -1.45717e-17 -0 2.17521e-16 -0 2.17477e-16)
(2.18142e-16 -1.46389e-17 -0 2.18042e-16 -0 2.18096e-16)
(2.02169e-16 -1.03485e-17 -0 2.02071e-16 -0 2.0212e-16)
(2.02259e-16 -1.03831e-17 -0 2.02191e-16 -0 2.02223e-16)
(2.01364e-16 -1.00594e-17 -0 2.01453e-16 -0 2.01409e-16)
(2.01981e-16 -1.00982e-17 -0 2.01919e-16 -0 2.0195e-16)
(1.87742e-16 -6.98452e-18 -0 1.87657e-16 -0 1.87699e-16)
(1.87884e-16 -7.09332e-18 -0 1.87818e-16 -0 1.87849e-16)
(1.87107e-16 -6.73865e-18 -0 1.87177e-16 -0 1.87143e-16)
(1.87568e-16 -6.76086e-18 -0 1.87536e-16 -0 1.8755e-16)
(1.74957e-16 -4.4902e-18 -0 1.74884e-16 -0 1.74921e-16)
(1.75155e-16 -4.65687e-18 -0 1.75084e-16 -0 1.75119e-16)
(1.74475e-16 -4.31116e-18 -0 1.74527e-16 -0 1.74502e-16)
(1.74802e-16 -4.26276e-18 -0 1.74783e-16 -0 1.74792e-16)
(1.63725e-16 -2.6304e-18 -0 1.63665e-16 -0 1.63695e-16)
(1.63971e-16 -2.85372e-18 -0 1.63912e-16 -0 1.63937e-16)
(1.63369e-16 -2.55559e-18 -0 1.63406e-16 -0 1.63387e-16)
(1.63585e-16 -2.34463e-18 -0 1.63577e-16 -0 1.63581e-16)
(1.5397e-16 -1.22694e-18 -0 1.53919e-16 -0 1.53947e-16)
(1.54267e-16 -1.49632e-18 -0 1.54204e-16 -0 1.54236e-16)
(1.5372e-16 -1.24202e-18 -0 1.53725e-16 -0 1.53726e-16)
(1.53847e-16 -9.43559e-19 -0 1.5383e-16 -0 1.53839e-16)
(1.48048e-16 -1.44594e-19 -0 1.48012e-16 -0 1.4803e-16)
(1.48058e-16 -4.66538e-19 -0 1.48e-16 -0 1.48031e-16)
(1.48036e-16 -2.68374e-19 -0 1.48019e-16 -0 1.48033e-16)
(1.48039e-16 5.03451e-20 -0 1.48018e-16 -0 1.48032e-16)
(4.24899e-16 -1.54249e-16 -0 4.24336e-16 -0 4.24817e-16)
(4.24259e-16 -1.54135e-16 -0 4.2438e-16 -0 4.24426e-16)
(4.24425e-16 -1.54456e-16 -0 4.24417e-16 -0 4.24506e-16)
(4.25325e-16 -1.56532e-16 -0 4.24854e-16 -0 4.25307e-16)
(3.90531e-16 -1.2043e-16 -0 3.90496e-16 -0 3.9045e-16)
(3.90007e-16 -1.2018e-16 -0 3.90341e-16 -0 3.90168e-16)
(3.90085e-16 -1.20179e-16 -0 3.90383e-16 -0 3.902e-16)
(3.90842e-16 -1.22098e-16 -0 3.91028e-16 -0 3.90842e-16)
(3.58829e-16 -9.28618e-17 -0 3.58716e-16 -0 3.58745e-16)
(3.58293e-16 -9.24522e-17 -0 3.58626e-16 -0 3.58432e-16)
(3.5832e-16 -9.19078e-17 -0 3.5861e-16 -0 3.58446e-16)
(3.59048e-16 -9.3725e-17 -0 3.5915e-16 -0 3.59069e-16)
(3.29685e-16 -7.08385e-17 -0 3.2937e-16 -0 3.29594e-16)
(3.29165e-16 -7.03277e-17 -0 3.29296e-16 -0 3.29275e-16)
(3.29086e-16 -6.92844e-17 -0 3.2935e-16 -0 3.29221e-16)
(3.29764e-16 -7.09843e-17 -0 3.29773e-16 -0 3.29817e-16)
(3.02848e-16 -5.34229e-17 -0 3.02824e-16 -0 3.02759e-16)
(3.0242e-16 -5.27845e-17 -0 3.02635e-16 -0 3.02492e-16)
(3.02317e-16 -5.14295e-17 -0 3.02639e-16 -0 3.02441e-16)
(3.0281e-16 -5.27621e-17 -0 3.03174e-16 -0 3.02892e-16)
(2.78555e-16 -3.99614e-17 -0 2.78336e-16 -0 2.78462e-16)
(2.78141e-16 -3.92359e-17 -0 2.78184e-16 -0 2.78174e-16)
(2.77997e-16 -3.77418e-17 -0 2.78201e-16 -0 2.78109e-16)
(2.78432e-16 -3.88783e-17 -0 2.78593e-16 -0 2.78542e-16)
(2.56441e-16 -2.96196e-17 -0 2.56245e-16 -0 2.56357e-16)
(2.56085e-16 -2.90296e-17 -0 2.56055e-16 -0 2.56079e-16)
(2.55914e-16 -2.76659e-17 -0 2.56093e-16 -0 2.56006e-16)
(2.56238e-16 -2.84648e-17 -0 2.5645e-16 -0 2.56365e-16)
(2.36434e-16 -2.15973e-17 -0 2.36305e-16 -0 2.36362e-16)
(2.3613e-16 -2.13139e-17 -0 2.36071e-16 -0 2.36099e-16)
(2.35954e-16 -2.02101e-17 -0 2.36113e-16 -0 2.36028e-16)
(2.36165e-16 -2.06108e-17 -0 2.36457e-16 -0 2.36296e-16)
(2.1843e-16 -1.53788e-17 -0 2.18318e-16 -0 2.18378e-16)
(2.18162e-16 -1.51751e-17 -0 2.1806e-16 -0 2.18114e-16)
(2.17991e-16 -1.44815e-17 -0 2.18102e-16 -0 2.18044e-16)
(2.18126e-16 -1.4693e-17 -0 2.18372e-16 -0 2.18253e-16)
(2.0229e-16 -1.07487e-17 -0 2.02208e-16 -0 2.02247e-16)
(2.02038e-16 -1.06157e-17 -0 2.01928e-16 -0 2.01986e-16)
(2.01931e-16 -1.01844e-17 -0 2.02027e-16 -0 2.01977e-16)
(2.01932e-16 -1.02618e-17 -0 2.02177e-16 -0 2.02052e-16)
(1.87896e-16 -7.30328e-18 -0 1.87843e-16 -0 1.8787e-16)
(1.87652e-16 -7.18089e-18 -0 1.87541e-16 -0 1.87597e-16)
(1.87615e-16 -6.96075e-18 -0 1.87687e-16 -0 1.87647e-16)
(1.8749e-16 -6.96079e-18 -0 1.8771e-16 -0 1.87599e-16)
(1.75158e-16 -4.67931e-18 -0 1.75116e-16 -0 1.75136e-16)
(1.74899e-16 -4.62151e-18 -0 1.74786e-16 -0 1.74847e-16)
(1.74926e-16 -4.56064e-18 -0 1.74986e-16 -0 1.74956e-16)
(1.7468e-16 -4.50788e-18 -0 1.7488e-16 -0 1.74778e-16)
(1.6397e-16 -2.57538e-18 -0 1.63949e-16 -0 1.63959e-16)
(1.63684e-16 -2.63586e-18 -0 1.63582e-16 -0 1.63635e-16)
(1.63787e-16 -2.73956e-18 -0 1.6383e-16 -0 1.6381e-16)
(1.63414e-16 -2.67499e-18 -0 1.63579e-16 -0 1.635e-16)
(1.54271e-16 -1.12809e-18 -0 1.54254e-16 -0 1.54263e-16)
(1.53925e-16 -1.22736e-18 -0 1.53847e-16 -0 1.53887e-16)
(1.54104e-16 -1.35073e-18 -0 1.54165e-16 -0 1.5413e-16)
(1.53597e-16 -1.28767e-18 -0 1.53751e-16 -0 1.53673e-16)
(1.48031e-16 -1.92528e-19 -0 1.48027e-16 -0 1.48032e-16)
(1.48063e-16 -2.58121e-19 -0 1.47997e-16 -0 1.4803e-16)
(1.48006e-16 -2.82137e-19 -0 1.48057e-16 -0 1.48026e-16)
(1.47961e-16 -2.17028e-19 -0 1.481e-16 -0 1.48028e-16)
)
;

boundaryField
{
    topWall
    {
        type            kqRWallFunction;
        value           nonuniform List<symmTensor> 0();
    }
    botWall
    {
        type            kqRWallFunction;
        value           nonuniform List<symmTensor> 0();
    }
    inlet
    {
        type            cyclic;
    }
    outlet
    {
        type            cyclic;
    }
    fixWall
    {
        type            empty;
    }
    procBoundary5to4
    {
        type            processor;
        value           nonuniform List<symmTensor> 8((4.61425e-16 -1.95475e-16 -0 4.6159e-16 -0 4.61478e-16) (4.61121e-16 -1.93288e-16 -0 4.61429e-16 -0 4.61149e-16) (4.61102e-16 -1.9413e-16 -0 4.6137e-16 -0 4.6108e-16) (4.61008e-16 -1.942e-16 -0 4.61283e-16 -0 4.60835e-16) (4.6112e-16 -1.94344e-16 -0 4.61259e-16 -0 4.61035e-16) (4.60567e-16 -1.94407e-16 -0 4.61084e-16 -0 4.60739e-16) (4.60875e-16 -1.94679e-16 -0 4.60992e-16 -0 4.60928e-16) (4.61642e-16 -1.96434e-16 -0 4.61683e-16 -0 4.61613e-16));
    }
    procBoundary5to6
    {
        type            processor;
        value           nonuniform List<symmTensor> 8((1.48043e-16 7.79152e-19 -0 1.48016e-16 -0 1.4803e-16) (1.48051e-16 3.99764e-19 -0 1.48011e-16 -0 1.48028e-16) (1.48042e-16 5.6008e-19 -0 1.48018e-16 -0 1.4803e-16) (1.48036e-16 9.13865e-19 -0 1.48026e-16 -0 1.48027e-16) (1.48027e-16 6.35505e-19 -0 1.48033e-16 -0 1.48029e-16) (1.48059e-16 5.85649e-19 -0 1.48001e-16 -0 1.48029e-16) (1.48007e-16 6.24445e-19 -0 1.48055e-16 -0 1.48028e-16) (1.47967e-16 7.03039e-19 -0 1.48092e-16 -0 1.4803e-16));
    }
}


// ************************************************************************* //
