/*--------------------------------*- C++ -*----------------------------------*\
  =========                 |
  \\      /  F ield         | OpenFOAM: The Open Source CFD Toolbox
   \\    /   O peration     | Website:  https://openfoam.org
    \\  /    A nd           | Version:  dev
     \\/     M anipulation  |

   OpenFOAM for Windows 20.09 (v1)
   Built by CFD Support, www.cfdsupport.com (based on Symscape).
\*---------------------------------------------------------------------------*/
FoamFile
{
    version     2.0;
    format      ascii;
    class       volVectorField;
    location    "6";
    object      U;
}
// * * * * * * * * * * * * * * * * * * * * * * * * * * * * * * * * * * * * * //

dimensions      [0 1 -1 0 0 0 0];

internalField   nonuniform List<vector> 
120
(
(0.29473 -1.09711e-05 0)
(0.294702 9.8674e-07 0)
(0.294744 -3.97637e-05 0)
(0.294719 -3.01826e-05 0)
(0.298444 -9.52338e-06 0)
(0.298354 8.05078e-06 0)
(0.298422 -3.36661e-05 0)
(0.298403 -1.17324e-05 0)
(0.301513 -8.87136e-06 0)
(0.301378 4.12496e-06 0)
(0.301475 -3.92145e-05 0)
(0.301462 -2.8444e-05 0)
(0.304055 -8.19005e-06 0)
(0.303871 6.1768e-06 0)
(0.303994 -3.72495e-05 0)
(0.303984 -1.19504e-05 0)
(0.306128 -4.28539e-06 0)
(0.30591 8.14414e-06 0)
(0.306054 -3.62846e-05 0)
(0.306048 -1.51782e-05 0)
(0.30781 -5.75338e-06 0)
(0.307568 7.26817e-06 0)
(0.30773 -4.09939e-05 0)
(0.307728 -1.50364e-05 0)
(0.309163 -1.46671e-06 0)
(0.308905 7.86526e-06 0)
(0.309077 -3.99113e-05 0)
(0.309076 -9.93848e-06 0)
(0.310243 -9.89587e-07 0)
(0.309975 8.6612e-06 0)
(0.310149 -4.2495e-05 0)
(0.310149 -1.02096e-05 0)
(0.311096 7.76126e-07 0)
(0.310822 9.16904e-06 0)
(0.310992 -4.32413e-05 0)
(0.310991 -7.54656e-06 0)
(0.311758 2.41237e-06 0)
(0.311485 1.01886e-05 0)
(0.311638 -4.47321e-05 0)
(0.311639 -7.47874e-06 0)
(0.312262 3.5323e-06 0)
(0.311992 1.09629e-05 0)
(0.312129 -4.56873e-05 0)
(0.312128 -5.83911e-06 0)
(0.312631 5.0872e-06 0)
(0.312372 1.20888e-05 0)
(0.312483 -4.68594e-05 0)
(0.312483 -6.56074e-06 0)
(0.312886 6.10902e-06 0)
(0.312639 1.33757e-05 0)
(0.312729 -4.74369e-05 0)
(0.312718 -5.17049e-06 0)
(0.313037 7.44464e-06 0)
(0.312812 1.39902e-05 0)
(0.312878 -4.83847e-05 0)
(0.312844 -6.23466e-06 0)
(0.313096 8.44962e-06 0)
(0.312896 1.61311e-05 0)
(0.312943 -4.73412e-05 0)
(0.312879 -4.44736e-06 0)
(0.294495 2.08057e-05 0)
(0.29459 -1.93998e-05 0)
(0.294758 2.48859e-05 0)
(0.294718 3.66178e-05 0)
(0.298173 2.95585e-05 0)
(0.298266 -1.49663e-05 0)
(0.298443 2.48036e-05 0)
(0.298461 4.13937e-05 0)
(0.301225 1.95205e-05 0)
(0.301312 -2.4244e-05 0)
(0.301476 1.97795e-05 0)
(0.301537 3.14346e-05 0)
(0.303737 3.04338e-05 0)
(0.30381 -2.07699e-05 0)
(0.303951 1.98819e-05 0)
(0.304072 3.89577e-05 0)
(0.305804 2.67607e-05 0)
(0.305861 -2.49068e-05 0)
(0.305956 1.55971e-05 0)
(0.306122 3.28525e-05 0)
(0.307483 2.81506e-05 0)
(0.307514 -2.57841e-05 0)
(0.30756 1.29368e-05 0)
(0.30777 2.90867e-05 0)
(0.308861 3.15929e-05 0)
(0.308864 -2.52864e-05 0)
(0.308844 1.20689e-05 0)
(0.309095 3.08894e-05 0)
(0.309965 3.28316e-05 0)
(0.309949 -2.47962e-05 0)
(0.309879 9.26873e-06 0)
(0.310155 2.55362e-05 0)
(0.310851 3.42372e-05 0)
(0.310831 -2.40367e-05 0)
(0.310708 8.14599e-06 0)
(0.310995 2.35061e-05 0)
(0.31153 3.58733e-05 0)
(0.311495 -2.20116e-05 0)
(0.311353 6.30403e-06 0)
(0.31165 1.95024e-05 0)
(0.312062 3.64829e-05 0)
(0.312028 -2.07666e-05 0)
(0.311855 5.34698e-06 0)
(0.312151 1.64793e-05 0)
(0.312442 3.75281e-05 0)
(0.312393 -1.85031e-05 0)
(0.312222 3.83579e-06 0)
(0.31252 1.25813e-05 0)
(0.31271 3.78732e-05 0)
(0.31267 -1.65481e-05 0)
(0.312487 3.27839e-06 0)
(0.312777 9.37057e-06 0)
(0.312838 3.83204e-05 0)
(0.3128 -1.4355e-05 0)
(0.312644 2.28364e-06 0)
(0.312933 6.42337e-06 0)
(0.312903 3.86808e-05 0)
(0.312881 -1.31183e-05 0)
(0.312718 3.47722e-07 0)
(0.312998 2.68993e-06 0)
)
;

boundaryField
{
    topWall
    {
        type            noSlip;
    }
    botWall
    {
        type            noSlip;
    }
    inlet
    {
        type            cyclic;
    }
    outlet
    {
        type            cyclic;
    }
    fixWall
    {
        type            empty;
    }
    procBoundary5to4
    {
        type            processor;
        value           nonuniform List<vector> 8((0.290291 -1.34818e-05 0) (0.290328 9.08627e-06 0) (0.290333 -3.68119e-05 0) (0.290296 -2.98853e-05 0) (0.290076 1.69444e-05 0) (0.290169 -1.61701e-05 0) (0.290334 2.24461e-05 0) (0.290249 2.95063e-05 0));
    }
    procBoundary5to6
    {
        type            processor;
        value           nonuniform List<vector> 8((0.313064 9.1335e-06 0) (0.3129 1.68379e-05 0) (0.312928 -4.70894e-05 0) (0.312833 -4.855e-06 0) (0.312875 3.87795e-05 0) (0.312849 -1.13043e-05 0) (0.312697 -5.76172e-07 0) (0.312974 -2.90426e-07 0));
    }
}


// ************************************************************************* //
