/*--------------------------------*- C++ -*----------------------------------*\
  =========                 |
  \\      /  F ield         | OpenFOAM: The Open Source CFD Toolbox
   \\    /   O peration     | Website:  https://openfoam.org
    \\  /    A nd           | Version:  dev
     \\/     M anipulation  |

   OpenFOAM for Windows 20.09 (v1)
   Built by CFD Support, www.cfdsupport.com (based on Symscape).
\*---------------------------------------------------------------------------*/
FoamFile
{
    version     2.0;
    format      ascii;
    class       volVectorField;
    location    "6";
    object      UMean;
}
// * * * * * * * * * * * * * * * * * * * * * * * * * * * * * * * * * * * * * //

dimensions      [0 1 -1 0 0 0 0];

internalField   nonuniform List<vector> 
120
(
(0.22389 -5.08263e-06 0)
(0.223802 -2.50082e-07 0)
(0.223896 5.34135e-07 0)
(0.223933 -7.53347e-06 0)
(0.225949 -4.7955e-06 0)
(0.22583 1.50475e-06 0)
(0.225941 6.33263e-08 0)
(0.225982 -3.9912e-06 0)
(0.227598 -3.03985e-06 0)
(0.227453 1.41636e-06 0)
(0.227579 -1.74131e-06 0)
(0.227623 -5.36e-06 0)
(0.228912 -2.74581e-06 0)
(0.228744 7.61607e-07 0)
(0.228883 -3.05838e-06 0)
(0.228929 -3.47727e-06 0)
(0.229951 -7.64512e-07 0)
(0.229765 3.21735e-06 0)
(0.229914 -4.12021e-06 0)
(0.229961 -8.7449e-07 0)
(0.230767 7.52206e-08 0)
(0.230566 1.66545e-06 0)
(0.230723 -6.54762e-06 0)
(0.230772 -3.02015e-06 0)
(0.231403 1.37676e-06 0)
(0.231192 3.3636e-06 0)
(0.231353 -7.79863e-06 0)
(0.231401 5.33746e-07 0)
(0.231895 2.98732e-06 0)
(0.231677 2.99256e-06 0)
(0.231839 -9.51025e-06 0)
(0.231887 -8.54588e-07 0)
(0.232271 3.73198e-06 0)
(0.23205 4.03011e-06 0)
(0.232209 -1.14921e-05 0)
(0.232255 9.84394e-07 0)
(0.232554 5.69772e-06 0)
(0.232334 4.5384e-06 0)
(0.232487 -1.27318e-05 0)
(0.232533 3.98204e-07 0)
(0.232762 6.55878e-06 0)
(0.232545 5.28983e-06 0)
(0.232691 -1.47939e-05 0)
(0.232733 1.22708e-06 0)
(0.232909 7.28092e-06 0)
(0.232702 5.18434e-06 0)
(0.232836 -1.59762e-05 0)
(0.232877 4.37154e-07 0)
(0.233007 9.34519e-06 0)
(0.23281 7.26301e-06 0)
(0.232933 -1.71607e-05 0)
(0.232966 1.13857e-06 0)
(0.233061 9.44018e-06 0)
(0.232883 6.24903e-06 0)
(0.232991 -1.8684e-05 0)
(0.233017 2.81362e-07 0)
(0.233079 1.0459e-05 0)
(0.232919 8.18426e-06 0)
(0.233011 -1.93167e-05 0)
(0.233023 7.73358e-07 0)
(0.223774 1.03971e-05 0)
(0.22383 -1.52516e-05 0)
(0.223881 -9.21611e-07 0)
(0.223882 1.56478e-05 0)
(0.225816 1.35672e-05 0)
(0.225869 -1.55603e-05 0)
(0.225908 -1.59045e-06 0)
(0.225941 1.6645e-05 0)
(0.227454 1.08214e-05 0)
(0.227495 -1.78837e-05 0)
(0.227518 -2.8587e-06 0)
(0.227584 1.4393e-05 0)
(0.228759 1.57019e-05 0)
(0.228793 -1.64898e-05 0)
(0.228797 -2.98641e-06 0)
(0.228892 1.43696e-05 0)
(0.229799 1.40572e-05 0)
(0.229823 -1.84713e-05 0)
(0.229801 -4.92124e-06 0)
(0.229922 1.37926e-05 0)
(0.230615 1.67484e-05 0)
(0.23063 -1.70232e-05 0)
(0.230584 -5.34567e-06 0)
(0.230727 1.05131e-05 0)
(0.231264 1.67449e-05 0)
(0.23127 -1.79062e-05 0)
(0.231192 -5.86197e-06 0)
(0.231354 1.0862e-05 0)
(0.231766 1.91282e-05 0)
(0.231764 -1.55583e-05 0)
(0.231665 -6.44529e-06 0)
(0.23184 7.54213e-06 0)
(0.232163 1.86941e-05 0)
(0.232161 -1.6423e-05 0)
(0.232031 -7.07077e-06 0)
(0.232211 6.52569e-06 0)
(0.232454 2.07255e-05 0)
(0.232445 -1.33328e-05 0)
(0.232306 -7.18547e-06 0)
(0.232492 3.83627e-06 0)
(0.232678 2.02674e-05 0)
(0.232673 -1.40567e-05 0)
(0.232516 -7.64022e-06 0)
(0.232699 2.79089e-06 0)
(0.232832 2.11447e-05 0)
(0.232817 -1.09374e-05 0)
(0.232664 -8.49462e-06 0)
(0.232847 -1.45613e-06 0)
(0.232943 2.18918e-05 0)
(0.232937 -1.04005e-05 0)
(0.232773 -6.32591e-06 0)
(0.232946 -7.19487e-07 0)
(0.232996 2.13329e-05 0)
(0.232981 -8.84946e-06 0)
(0.232835 -9.16264e-06 0)
(0.233003 -5.22588e-06 0)
(0.233023 2.21801e-05 0)
(0.233019 -6.99451e-06 0)
(0.232869 -6.83426e-06 0)
(0.233025 -5.6138e-06 0)
)
;

boundaryField
{
    topWall
    {
        type            calculated;
        value           nonuniform List<vector> 0();
    }
    botWall
    {
        type            calculated;
        value           nonuniform List<vector> 0();
    }
    inlet
    {
        type            cyclic;
    }
    outlet
    {
        type            cyclic;
    }
    fixWall
    {
        type            empty;
    }
    procBoundary5to4
    {
        type            processor;
        value           nonuniform List<vector> 8((0.221339 -6.20595e-06 0) (0.221285 2.70689e-06 0) (0.221357 1.13533e-06 0) (0.221387 -7.92931e-06 0) (0.221239 8.94752e-06 0) (0.221301 -1.56055e-05 0) (0.221357 -2.96486e-06 0) (0.221327 1.56439e-05 0));
    }
    procBoundary5to6
    {
        type            processor;
        value           nonuniform List<vector> 8((0.233059 1.20452e-05 0) (0.232929 9.09211e-06 0) (0.233002 -2.02425e-05 0) (0.233005 8.09977e-07 0) (0.233011 2.24388e-05 0) (0.232993 -6.22262e-06 0) (0.232862 -8.04555e-06 0) (0.233009 -6.07711e-06 0));
    }
}


// ************************************************************************* //
