/*--------------------------------*- C++ -*----------------------------------*\
  =========                 |
  \\      /  F ield         | OpenFOAM: The Open Source CFD Toolbox
   \\    /   O peration     | Website:  https://openfoam.org
    \\  /    A nd           | Version:  dev
     \\/     M anipulation  |

   OpenFOAM for Windows 20.09 (v1)
   Built by CFD Support, www.cfdsupport.com (based on Symscape).
\*---------------------------------------------------------------------------*/
FoamFile
{
    version     2.0;
    format      ascii;
    class       volSymmTensorField;
    location    "6";
    object      UPrime2Mean;
}
// * * * * * * * * * * * * * * * * * * * * * * * * * * * * * * * * * * * * * //

dimensions      [0 2 -2 0 0 0 0];

internalField   nonuniform List<symmTensor> 
120
(
(0.00231719 -8.77923e-08 0 1.46097e-11 0 0)
(0.00231907 4.35235e-10 0 1.64836e-12 0 0)
(0.00231767 -7.91396e-07 0 5.55264e-10 0 0)
(0.00231586 -4.51897e-07 0 1.7378e-10 0 0)
(0.00242012 -9.82068e-08 0 7.51327e-12 0 0)
(0.00242036 1.80175e-07 0 1.48706e-11 0 0)
(0.0024196 -6.65305e-07 0 3.93452e-10 0 0)
(0.00241793 -1.28056e-07 0 2.36063e-11 0 0)
(0.00250955 -5.89641e-08 0 2.0042e-11 0 0)
(0.00250866 4.5214e-08 0 2.92554e-12 0 0)
(0.00250872 -7.64014e-07 0 4.81868e-10 0 0)
(0.00250716 -4.82729e-07 0 1.80192e-10 0 0)
(0.00258714 -1.22796e-07 0 9.77515e-12 0 0)
(0.00258477 1.56912e-07 0 1.03439e-11 0 0)
(0.00258567 -7.29296e-07 0 3.94926e-10 0 0)
(0.0025842 -1.51191e-07 0 2.74437e-11 0 0)
(0.00265292 5.87502e-09 0 1.53356e-11 0 0)
(0.00264953 1.04005e-07 0 8.31383e-12 0 0)
(0.00265115 -6.86403e-07 0 3.52089e-10 0 0)
(0.00264975 -2.81496e-07 0 7.33363e-11 0 0)
(0.0027081 -1.16414e-07 0 1.21694e-11 0 0)
(0.00270397 1.74154e-07 0 1.16854e-11 0 0)
(0.00270627 -7.74912e-07 0 3.95604e-10 0 0)
(0.00270497 -2.47588e-07 0 5.05548e-11 0 0)
(0.00275386 2.18045e-08 0 1.37685e-11 0 0)
(0.00274917 9.51374e-08 0 7.02887e-12 0 0)
(0.00275188 -7.36545e-07 0 3.42396e-10 0 0)
(0.00275065 -2.04562e-07 0 4.02015e-11 0 0)
(0.00279131 -4.38561e-08 0 9.28978e-12 0 0)
(0.00278628 1.6709e-07 0 1.11019e-11 0 0)
(0.0027891 -7.78272e-07 0 3.58485e-10 0 0)
(0.00278795 -1.92585e-07 0 3.10463e-11 0 0)
(0.00282159 1.26663e-08 0 1.25942e-11 0 0)
(0.00281624 1.28802e-07 0 8.59579e-12 0 0)
(0.00281902 -7.703e-07 0 3.30021e-10 0 0)
(0.00281789 -1.77174e-07 0 2.5777e-11 0 0)
(0.0028456 8.09049e-09 0 1.41685e-11 0 0)
(0.00284011 1.61674e-07 0 1.0709e-11 0 0)
(0.00284238 -7.92379e-07 0 3.34128e-10 0 0)
(0.00284138 -1.76684e-07 0 2.1004e-11 0 0)
(0.00286421 1.26015e-08 0 1.31705e-11 0 0)
(0.00285861 1.68544e-07 0 1.10643e-11 0 0)
(0.00286049 -7.81969e-07 0 3.10607e-10 0 0)
(0.00285953 -1.65391e-07 0 1.65905e-11 0 0)
(0.0028781 4.5903e-08 0 1.45733e-11 0 0)
(0.00287254 1.87193e-07 0 1.5585e-11 0 0)
(0.00287365 -8.02546e-07 0 3.10099e-10 0 0)
(0.00287288 -1.70771e-07 0 1.60529e-11 0 0)
(0.00288783 3.41358e-08 0 2.05755e-11 0 0)
(0.00288241 1.77906e-07 0 1.26056e-11 0 0)
(0.00288312 -8.02422e-07 0 2.98372e-10 0 0)
(0.00288212 -1.73528e-07 0 1.30625e-11 0 0)
(0.00289383 6.60601e-08 0 1.83782e-11 0 0)
(0.00288865 2.31569e-07 0 2.06219e-11 0 0)
(0.00288878 -7.95851e-07 0 2.87531e-10 0 0)
(0.00288715 -1.74692e-07 0 1.38422e-11 0 0)
(0.00289625 6.43718e-08 0 1.80159e-11 0 0)
(0.00289163 2.06814e-07 0 2.05318e-11 0 0)
(0.0028917 -7.96073e-07 0 2.60982e-10 0 0)
(0.00288921 -1.54921e-07 0 9.32159e-12 0 0)
(0.00231191 4.12033e-07 0 7.87156e-11 0 0)
(0.00231417 -3.78681e-07 0 1.22494e-10 0 0)
(0.00231911 4.49613e-07 0 2.47229e-10 0 0)
(0.00231675 5.22299e-07 0 1.45227e-10 0 0)
(0.00241376 5.51986e-07 0 1.26571e-10 0 0)
(0.00241615 -2.96824e-07 0 1.35778e-10 0 0)
(0.00242197 4.6681e-07 0 2.60538e-10 0 0)
(0.00242098 6.3591e-07 0 2.02994e-10 0 0)
(0.00250291 3.56799e-07 0 5.45265e-11 0 0)
(0.0025057 -4.63024e-07 0 1.44369e-10 0 0)
(0.00251139 3.89816e-07 0 1.99188e-10 0 0)
(0.00251097 4.49088e-07 0 9.65331e-11 0 0)
(0.00257949 5.6506e-07 0 1.26977e-10 0 0)
(0.002582 -4.06949e-07 0 1.27626e-10 0 0)
(0.0025872 4.16393e-07 0 1.97018e-10 0 0)
(0.00258846 6.558e-07 0 2.00559e-10 0 0)
(0.00264525 4.58331e-07 0 7.96561e-11 0 0)
(0.00264736 -4.76068e-07 0 1.44358e-10 0 0)
(0.00265089 3.59621e-07 0 1.6565e-10 0 0)
(0.00265349 5.13167e-07 0 1.20302e-10 0 0)
(0.00270038 4.8613e-07 0 9.41979e-11 0 0)
(0.00270157 -5.12491e-07 0 1.3543e-10 0 0)
(0.00270336 3.2299e-07 0 1.3197e-10 0 0)
(0.00270742 5.17383e-07 0 1.15657e-10 0 0)
(0.00274713 5.27885e-07 0 1.01442e-10 0 0)
(0.0027473 -4.85207e-07 0 1.30921e-10 0 0)
(0.0027466 3.2261e-07 0 1.2605e-10 0 0)
(0.00275209 5.34993e-07 0 1.31458e-10 0 0)
(0.00278548 5.41856e-07 0 1.07992e-10 0 0)
(0.00278492 -4.96295e-07 0 1.13473e-10 0 0)
(0.00278238 2.86288e-07 0 9.64604e-11 0 0)
(0.00278878 4.93341e-07 0 1.06826e-10 0 0)
(0.00281693 5.48819e-07 0 1.06977e-10 0 0)
(0.00281617 -4.65236e-07 0 1.09851e-10 0 0)
(0.00281167 2.79914e-07 0 9.02359e-11 0 0)
(0.00281854 4.49892e-07 0 9.40225e-11 0 0)
(0.00284134 5.64646e-07 0 1.12576e-10 0 0)
(0.00284007 -4.46169e-07 0 8.60669e-11 0 0)
(0.00283491 2.60334e-07 0 6.84402e-11 0 0)
(0.00284225 4.16356e-07 0 8.00087e-11 0 0)
(0.00286053 5.49789e-07 0 1.0672e-10 0 0)
(0.00285923 -4.07905e-07 0 8.25381e-11 0 0)
(0.00285322 2.55011e-07 0 6.27677e-11 0 0)
(0.0028607 3.58e-07 0 6.09419e-11 0 0)
(0.0028744 5.96469e-07 0 1.23795e-10 0 0)
(0.0028726 -3.74958e-07 0 5.80771e-11 0 0)
(0.00286682 2.43496e-07 0 5.64656e-11 0 0)
(0.00287455 3.37599e-07 0 6.48995e-11 0 0)
(0.00288375 5.34501e-07 0 1.00716e-10 0 0)
(0.00288213 -3.37426e-07 0 5.11799e-11 0 0)
(0.00287664 2.19165e-07 0 3.10809e-11 0 0)
(0.00288433 2.5583e-07 0 3.31451e-11 0 0)
(0.00288841 5.89648e-07 0 1.20917e-10 0 0)
(0.00288699 -3.02166e-07 0 4.09645e-11 0 0)
(0.00288255 2.27784e-07 0 4.84989e-11 0 0)
(0.00289044 2.52767e-07 0 4.71891e-11 0 0)
(0.00289023 5.76588e-07 0 1.15394e-10 0 0)
(0.00288925 -2.7925e-07 0 2.99197e-11 0 0)
(0.00288522 1.76122e-07 0 1.69011e-11 0 0)
(0.00289305 1.76527e-07 0 2.4323e-11 0 0)
)
;

boundaryField
{
    topWall
    {
        type            calculated;
        value           nonuniform List<symmTensor> 0();
    }
    botWall
    {
        type            calculated;
        value           nonuniform List<symmTensor> 0();
    }
    inlet
    {
        type            cyclic;
    }
    outlet
    {
        type            cyclic;
    }
    fixWall
    {
        type            empty;
    }
    procBoundary5to4
    {
        type            processor;
        value           nonuniform List<symmTensor> 8((0.00220129 -1.27077e-07 0 1.91911e-11 0 0) (0.00220465 1.75371e-07 0 1.48118e-11 0 0) (0.00220245 -6.98466e-07 0 5.03651e-10 0 0) (0.00220036 -4.39964e-07 0 1.60834e-10 0 0) (0.0021963 3.13801e-07 0 4.85144e-11 0 0) (0.00219808 -3.28681e-07 0 1.52336e-10 0 0) (0.00220268 3.99538e-07 0 2.54167e-10 0 0) (0.00219983 3.69003e-07 0 6.7676e-11 0 0));
    }
    procBoundary5to6
    {
        type            processor;
        value           nonuniform List<symmTensor> 8((0.0028954 6.28192e-08 0 2.6329e-11 0 0) (0.00289136 2.44133e-07 0 2.17559e-11 0 0) (0.00289138 -7.61477e-07 0 2.39336e-10 0 0) (0.00288811 -1.70254e-07 0 1.10946e-11 0 0) (0.00288875 5.44318e-07 0 1.04488e-10 0 0) (0.00288774 -2.6598e-07 0 3.0457e-11 0 0) (0.00288437 1.66665e-07 0 1.90502e-11 0 0) (0.00289239 1.15216e-07 0 1.24123e-11 0 0));
    }
}


// ************************************************************************* //
