/*--------------------------------*- C++ -*----------------------------------*\
  =========                 |
  \\      /  F ield         | OpenFOAM: The Open Source CFD Toolbox
   \\    /   O peration     | Website:  https://openfoam.org
    \\  /    A nd           | Version:  dev
     \\/     M anipulation  |

   OpenFOAM for Windows 20.09 (v1)
   Built by CFD Support, www.cfdsupport.com (based on Symscape).
\*---------------------------------------------------------------------------*/
FoamFile
{
    version     2.0;
    format      ascii;
    class       surfaceScalarField;
    location    "10";
    object      alphaPhi0.water;
}
// * * * * * * * * * * * * * * * * * * * * * * * * * * * * * * * * * * * * * //

dimensions      [0 3 -1 0 0 0 0];

internalField   nonuniform List<scalar> 
217
(
4.23206e-82
1.46275e-87
3.93362e-82
-9.04124e-88
3.9442e-82
-5.8027e-87
2.5298e-87
3.4572e-82
1.75279e-84
6.33461e-90
1.69876e-84
-4.78602e-90
1.71088e-84
-3.13944e-89
1.92831e-89
1.72877e-84
8.29682e-87
2.06301e-92
8.18188e-87
-2.15959e-92
8.25424e-87
-1.41792e-91
8.10295e-92
8.45347e-87
3.46934e-89
3.7669e-95
3.38923e-89
-1.07801e-94
3.41223e-89
-6.08441e-94
3.24773e-94
3.4504e-89
1.42308e-91
-7.34035e-98
1.38872e-91
-4.5817e-97
1.39455e-91
-2.53264e-96
1.26124e-96
1.39322e-91
5.72371e-94
-1.26149e-99
5.64347e-94
-1.95323e-99
5.62998e-94
-9.95493e-99
4.9508e-99
5.56192e-94
2.252e-96
-8.5951e-102
2.24146e-96
-7.68099e-102
2.22121e-96
-3.82238e-101
1.85578e-101
2.19958e-96
8.64551e-99
-4.51096e-104
8.6577e-99
-3.08705e-104
8.56993e-99
-1.37202e-103
6.99866e-104
8.45873e-99
3.19812e-101
-1.96162e-106
3.2092e-101
-1.09758e-106
3.18286e-101
-4.60817e-106
2.42893e-106
3.09949e-101
1.11796e-103
-7.57359e-109
1.12022e-103
-3.81781e-109
1.11223e-103
-1.44068e-108
7.83769e-109
1.0514e-103
3.6991e-106
-2.47448e-111
3.70042e-106
-1.19928e-111
3.66179e-106
-4.24292e-111
2.3669e-111
3.37639e-106
1.14824e-108
-7.43288e-114
1.14621e-108
-3.55548e-114
1.12749e-108
-1.16051e-113
6.68056e-114
1.02335e-108
3.31409e-111
-1.86936e-116
3.3073e-111
-9.47319e-117
3.26524e-111
-2.9875e-116
1.76754e-116
2.96205e-111
8.92604e-114
-4.52435e-119
8.93195e-114
-2.24015e-119
8.85796e-114
-6.73753e-119
4.19822e-119
7.94707e-114
2.19499e-116
2.1972e-116
2.17674e-116
1.91441e-116
4.05966e-82
7.66374e-87
4.12616e-82
1.94751e-87
4.41474e-82
-7.08545e-87
-6.36959e-87
1.53994e-84
7.30825e-89
1.57668e-84
1.13183e-89
1.71058e-84
-3.20732e-89
-3.23823e-89
7.49356e-87
2.93356e-91
7.47487e-87
7.19114e-92
7.83681e-87
-1.18643e-91
-1.46079e-91
3.12601e-89
8.17027e-94
3.15993e-89
3.10514e-94
3.2942e-89
-4.60517e-94
-6.23947e-94
1.28458e-91
3.24414e-96
1.28873e-91
1.41339e-96
1.3451e-91
-1.59071e-96
-2.59916e-96
5.09866e-94
1.2763e-98
5.1458e-94
6.12493e-99
5.38578e-94
-5.79717e-99
-1.0489e-98
2.01242e-96
4.93116e-101
2.0201e-96
2.60673e-101
2.10369e-96
-1.93257e-101
-4.12017e-101
7.7258e-99
7.52875e-103
7.75826e-99
1.04331e-103
8.03171e-99
-6.62866e-104
-1.56758e-103
2.88121e-101
4.33508e-105
2.89018e-101
3.92955e-106
2.98326e-101
-2.12177e-106
-5.70509e-106
1.02774e-103
2.14055e-107
1.03235e-103
1.38207e-108
1.06672e-103
-6.5865e-109
-1.94031e-108
3.47605e-106
8.88927e-110
3.48802e-106
4.48161e-111
3.59975e-106
-1.91091e-111
-6.08393e-111
1.0979e-108
3.00241e-112
1.09982e-108
1.35057e-113
1.12951e-108
-5.11852e-114
-1.7527e-113
3.24471e-111
9.03065e-115
3.24774e-111
3.65502e-116
3.28707e-111
-1.31059e-116
-4.5907e-116
8.80279e-114
2.55187e-117
8.74955e-114
9.00159e-119
8.743e-114
-2.90851e-119
-1.09794e-118
2.16518e-116
2.14706e-116
2.11191e-116
)
;

boundaryField
{
    topWall
    {
        type            calculated;
        value           nonuniform List<scalar> 0();
    }
    botWall
    {
        type            calculated;
        value           nonuniform List<scalar> 0();
    }
    inlet
    {
        type            cyclic;
        value           nonuniform List<scalar> 
15
(
-4.55376e-82
-1.78621e-84
-8.17224e-87
-3.41598e-89
-1.40304e-91
-5.64024e-94
-2.21238e-96
-8.44456e-99
-3.12609e-101
-1.10441e-103
-3.68243e-106
-1.14707e-108
-3.31719e-111
-8.89315e-114
-2.17493e-116
)
;
    }
    outlet
    {
        type            cyclic;
        value           nonuniform List<scalar> 
15
(
4.55376e-82
1.78621e-84
8.17224e-87
3.41598e-89
1.40304e-91
5.64024e-94
2.21238e-96
8.44456e-99
3.12609e-101
1.10441e-103
3.68243e-106
1.14707e-108
3.31719e-111
8.89315e-114
2.17493e-116
)
;
    }
    fixWall
    {
        type            empty;
        value           nonuniform List<scalar> 0();
    }
    procBoundary6to5
    {
        type            processor;
        value           nonuniform List<scalar> 8(-5.7209e-85 2.5175e-85 1.14665e-84 -1.02832e-84 -5.92199e-83 -4.30853e-85 2.03148e-84 1.37611e-84);
    }
    procBoundary6to7
    {
        type            processor;
        value           nonuniform List<scalar> 8(-6.24941e-122 -3.37851e-122 -9.58748e-122 7.073e-122 1.51018e-119 1.79549e-121 -5.50201e-122 -2.06058e-121);
    }
}


// ************************************************************************* //
