/*--------------------------------*- C++ -*----------------------------------*\
  =========                 |
  \\      /  F ield         | OpenFOAM: The Open Source CFD Toolbox
   \\    /   O peration     | Website:  https://openfoam.org
    \\  /    A nd           | Version:  dev
     \\/     M anipulation  |

   OpenFOAM for Windows 20.09 (v1)
   Built by CFD Support, www.cfdsupport.com (based on Symscape).
\*---------------------------------------------------------------------------*/
FoamFile
{
    version     2.0;
    format      ascii;
    class       volSymmTensorField;
    location    "10";
    object      devReff;
}
// * * * * * * * * * * * * * * * * * * * * * * * * * * * * * * * * * * * * * //

dimensions      [0 2 -2 0 0 0 0];

internalField   nonuniform List<symmTensor> 
120
(
(-2.26371e-07 9.95893e-05 -0 3.3902e-07 -0 -1.12649e-07)
(-1.18313e-07 8.5901e-05 -0 2.05832e-07 -0 -8.75187e-08)
(-1.07608e-06 8.99418e-05 -0 1.06355e-06 -0 1.25211e-08)
(2.66568e-07 9.3827e-05 -0 -2.03465e-07 -0 -6.31023e-08)
(-2.41746e-07 0.000202929 -0 2.0855e-07 -0 3.31964e-08)
(-4.86476e-08 0.00018714 -0 1.38797e-08 -0 3.47679e-08)
(-9.23926e-07 0.000194099 -0 8.88949e-07 -0 3.49778e-08)
(-4.55898e-08 0.000199705 -0 -4.02443e-09 -0 4.96142e-08)
(-4.20023e-07 0.000305781 -0 4.44859e-07 -0 -2.48353e-08)
(-2.9984e-07 0.000290372 -0 2.74205e-07 -0 2.56344e-08)
(-6.76723e-07 0.000301947 -0 6.8786e-07 -0 -1.11364e-08)
(2.74536e-07 0.00030836 -0 -2.13476e-07 -0 -6.10591e-08)
(-6.77878e-07 0.000417317 -0 6.92592e-07 -0 -1.47138e-08)
(-2.13977e-07 0.000404655 -0 2.16213e-07 -0 -2.23606e-09)
(-3.07444e-07 0.00041914 -0 2.60146e-07 -0 4.72972e-08)
(1.28965e-08 0.000425752 -0 -4.1093e-08 -0 2.81965e-08)
(-7.48741e-07 0.000540786 -0 7.0916e-07 -0 3.95816e-08)
(-1.86267e-07 0.000534545 -0 1.07548e-07 -0 7.87187e-08)
(2.91629e-08 0.000546383 -0 -1.60905e-08 -0 -1.30724e-08)
(1.37183e-07 0.000548032 -0 -6.52563e-08 -0 -7.19264e-08)
(-8.32204e-07 0.000673274 -0 8.74599e-07 -0 -4.23946e-08)
(-7.77678e-08 0.000671873 -0 1.29895e-07 -0 -5.21268e-08)
(1.13388e-07 0.000678532 -0 -1.27436e-07 -0 1.40475e-08)
(-1.48948e-07 0.000677725 -0 1.22892e-07 -0 2.6057e-08)
(-7.84236e-07 0.000819545 -0 8.01998e-07 -0 -1.77621e-08)
(-8.28516e-08 0.000818245 -0 7.56737e-08 -0 7.17784e-09)
(2.37396e-07 0.000818389 -0 -2.33024e-07 -0 -4.3728e-09)
(-1.4149e-07 0.000822078 -0 1.48749e-07 -0 -7.25853e-09)
(-6.84745e-07 0.000978192 -0 7.05811e-07 -0 -2.10666e-08)
(-5.94375e-08 0.000979342 -0 5.42876e-08 -0 5.14983e-09)
(2.4439e-07 0.000976538 -0 -2.57484e-07 -0 1.30945e-08)
(-5.33807e-08 0.000983069 -0 4.70838e-08 -0 6.29688e-09)
(-5.72615e-07 0.00115482 -0 5.75751e-07 -0 -3.1364e-09)
(-1.32554e-07 0.00115757 -0 1.19601e-07 -0 1.29535e-08)
(3.68879e-07 0.00115498 -0 -3.67679e-07 -0 -1.20016e-09)
(-2.24501e-08 0.00116085 -0 4.61552e-08 -0 -2.37052e-08)
(-2.89692e-07 0.00134814 -0 3.13009e-07 -0 -2.33175e-08)
(-5.97339e-08 0.00135409 -0 5.96871e-08 -0 4.67695e-11)
(3.63753e-07 0.00135109 -0 -3.83139e-07 -0 1.93862e-08)
(-5.93053e-08 0.00135478 -0 6.49866e-08 -0 -5.68131e-09)
(-5.69554e-08 0.00156382 -0 4.83756e-08 -0 8.57974e-09)
(-3.81522e-08 0.00156919 -0 2.87423e-08 -0 9.40993e-09)
(3.92862e-07 0.00156606 -0 -3.8917e-07 -0 -3.6921e-09)
(-1.06995e-07 0.00156893 -0 1.18152e-07 -0 -1.1157e-08)
(2.35611e-07 0.00180061 -0 -1.68269e-07 -0 -6.73427e-08)
(6.9229e-10 0.0018015 -0 1.30047e-08 -0 -1.3697e-08)
(3.58949e-07 0.00180213 -0 -3.78825e-07 -0 1.9876e-08)
(-1.67136e-07 0.00180397 -0 1.8027e-07 -0 -1.31345e-08)
(1.66942e-07 0.00206207 -0 -2.19167e-07 -0 5.22257e-08)
(1.85106e-08 0.00206187 -0 -3.43308e-08 -0 1.58202e-08)
(4.68673e-07 0.00206152 -0 -4.55328e-07 -0 -1.33443e-08)
(-2.10476e-07 0.00206309 -0 2.19262e-07 -0 -8.78661e-09)
(4.41361e-07 0.00234668 -0 -3.81281e-07 -0 -6.00801e-08)
(2.39733e-08 0.00234613 -0 -5.2467e-08 -0 2.84938e-08)
(4.30209e-07 0.00234867 -0 -4.77685e-07 -0 4.7476e-08)
(-1.83376e-07 0.0023505 -0 1.94333e-07 -0 -1.09574e-08)
(2.01665e-07 0.00266648 -0 -2.33615e-07 -0 3.19495e-08)
(5.29467e-08 0.00266673 -0 -3.6972e-08 -0 -1.59747e-08)
(6.06425e-07 0.0026676 -0 -5.82399e-07 -0 -2.40263e-08)
(-1.97087e-07 0.00266784 -0 2.12018e-07 -0 -1.49309e-08)
(8.22926e-07 9.20953e-05 -0 -7.03722e-07 -0 -1.19204e-07)
(8.08647e-07 9.05041e-05 -0 -8.70901e-07 -0 6.22542e-08)
(3.14141e-07 8.47439e-05 -0 -3.68094e-07 -0 5.39523e-08)
(-1.05564e-06 9.53557e-05 -0 1.06601e-06 -0 -1.03724e-08)
(2.53974e-07 0.000194307 -0 -3.12482e-07 -0 5.85082e-08)
(8.84363e-07 0.000193752 -0 -7.66012e-07 -0 -1.18351e-07)
(9.39102e-07 0.000185365 -0 -8.39824e-07 -0 -9.92786e-08)
(-7.88231e-07 0.000195506 -0 7.52368e-07 -0 3.5863e-08)
(6.8993e-07 0.000304364 -0 -6.4227e-07 -0 -4.76601e-08)
(5.79692e-07 0.000302915 -0 -7.11983e-07 -0 1.32291e-07)
(4.26677e-07 0.000291669 -0 -5.3017e-07 -0 1.03493e-07)
(-4.52886e-07 0.000301944 -0 4.4825e-07 -0 4.63517e-09)
(1.32059e-08 0.000415373 -0 -1.87146e-08 -0 5.50863e-09)
(4.39169e-07 0.000415533 -0 -3.00318e-07 -0 -1.38852e-07)
(8.5992e-07 0.000410509 -0 -7.09632e-07 -0 -1.50288e-07)
(-3.51286e-07 0.000416378 -0 3.51591e-07 -0 -3.05126e-10)
(3.2519e-07 0.000541614 -0 -2.59856e-07 -0 -6.53342e-08)
(3.66392e-07 0.000543138 -0 -4.48997e-07 -0 8.2605e-08)
(4.69597e-07 0.000535034 -0 -5.83631e-07 -0 1.14034e-07)
(-2.05088e-07 0.000538284 -0 1.82265e-07 -0 2.28224e-08)
(-5.23052e-08 0.000668255 -0 -5.70239e-08 -0 1.09329e-07)
(3.53504e-07 0.000669582 -0 -3.49993e-07 -0 -3.51106e-09)
(7.62003e-07 0.00067038 -0 -6.71903e-07 -0 -9.01002e-08)
(-1.46648e-07 0.000671164 -0 1.36927e-07 -0 9.72099e-09)
(5.01356e-08 0.000821868 -0 1.24503e-08 -0 -6.25859e-08)
(3.50779e-07 0.00082233 -0 -3.4873e-07 -0 -2.04855e-09)
(4.55724e-07 0.000817371 -0 -4.99465e-07 -0 4.3741e-08)
(-1.25083e-07 0.000814423 -0 1.21599e-07 -0 3.48367e-09)
(-1.32948e-07 0.000980621 -0 1.06586e-07 -0 2.6362e-08)
(2.30687e-07 0.000974835 -0 -2.56215e-07 -0 2.55277e-08)
(5.42101e-07 0.000976114 -0 -4.92509e-07 -0 -4.95915e-08)
(-6.42437e-08 0.000973399 -0 4.75931e-08 -0 1.66506e-08)
(-1.85642e-07 0.00115518 -0 2.03429e-07 -0 -1.7787e-08)
(1.86472e-07 0.0011523 -0 -1.72434e-07 -0 -1.40375e-08)
(3.90643e-07 0.00115216 -0 -4.14031e-07 -0 2.33881e-08)
(-5.03767e-08 0.00114563 -0 4.44968e-08 -0 5.87986e-09)
(-4.28763e-07 0.00134819 -0 4.07583e-07 -0 2.11807e-08)
(1.21913e-07 0.00134257 -0 -1.41356e-07 -0 1.9443e-08)
(3.36374e-07 0.00134448 -0 -3.00797e-07 -0 -3.55772e-08)
(2.40866e-08 0.00133896 -0 -3.72383e-08 -0 1.31517e-08)
(-5.92378e-07 0.00156306 -0 6.04375e-07 -0 -1.1997e-08)
(6.99158e-08 0.00155862 -0 -6.53797e-08 -0 -4.53605e-09)
(2.60241e-07 0.00155766 -0 -2.7112e-07 -0 1.08789e-08)
(7.52899e-08 0.0015521 -0 -8.16314e-08 -0 6.34158e-09)
(-7.88568e-07 0.00179897 -0 7.78149e-07 -0 1.04193e-08)
(-5.6788e-08 0.00179372 -0 3.3713e-08 -0 2.3075e-08)
(1.29688e-07 0.00179555 -0 -1.02416e-07 -0 -2.72723e-08)
(2.27394e-07 0.00179608 -0 -2.35314e-07 -0 7.91941e-09)
(-9.34106e-07 0.00206098 -0 9.41033e-07 -0 -6.92628e-09)
(-6.38457e-08 0.00205695 -0 8.59019e-08 -0 -2.20562e-08)
(2.87834e-07 0.00205506 -0 -2.45221e-07 -0 -4.26131e-08)
(2.82087e-07 0.00205591 -0 -3.23386e-07 -0 4.12988e-08)
(-1.01747e-06 0.00234927 -0 1.02623e-06 -0 -8.76193e-09)
(-2.58352e-07 0.00234525 -0 2.373e-07 -0 2.1052e-08)
(1.58924e-07 0.0023437 -0 -1.93318e-07 -0 3.43945e-08)
(4.48008e-07 0.00234447 -0 -4.39673e-07 -0 -8.33483e-09)
(-1.10634e-06 0.00266785 -0 1.10614e-06 -0 2.01052e-10)
(-2.46532e-07 0.00266521 -0 2.63535e-07 -0 -1.70037e-08)
(2.94106e-07 0.00266268 -0 -2.81837e-07 -0 -1.22684e-08)
(3.67275e-07 0.00266316 -0 -3.91788e-07 -0 2.45125e-08)
)
;

boundaryField
{
    topWall
    {
        type            calculated;
        value           nonuniform List<symmTensor> 0();
    }
    botWall
    {
        type            calculated;
        value           nonuniform List<symmTensor> 0();
    }
    inlet
    {
        type            cyclic;
    }
    outlet
    {
        type            cyclic;
    }
    fixWall
    {
        type            empty;
    }
    procBoundary6to5
    {
        type            processor;
        value           nonuniform List<symmTensor> 8((5.99898e-08 -2.48487e-06 -0 -7.72263e-08 -0 1.72365e-08) (2.19563e-07 -1.42618e-05 -0 -2.00654e-07 -0 -1.89095e-08) (-1.27132e-06 -1.1771e-05 -0 1.3155e-06 -0 -4.41829e-08) (-8.78619e-08 -8.28383e-06 -0 9.56485e-09 -0 7.82971e-08) (5.49857e-07 -9.53498e-06 -0 -7.87455e-07 -0 2.37597e-07) (1.31071e-06 -9.92741e-06 -0 -1.37268e-06 -0 6.19702e-08) (8.35851e-07 -1.38884e-05 -0 -7.99578e-07 -0 -3.62733e-08) (-1.2764e-06 -5.79792e-06 -0 1.23175e-06 -0 4.46535e-08));
    }
    procBoundary6to7
    {
        type            processor;
        value           nonuniform List<symmTensor> 8((5.51029e-07 0.00301662 -0 -4.81641e-07 -0 -6.93878e-08) (4.91457e-08 0.00301706 -0 -6.57574e-08 -0 1.66118e-08) (4.76375e-07 0.00301709 -0 -5.30689e-07 -0 5.43133e-08) (-1.73146e-07 0.0030169 -0 1.81729e-07 -0 -8.58308e-09) (-1.10349e-06 0.00301789 -0 1.10655e-06 -0 -3.0603e-09) (-4.18767e-07 0.0030155 -0 3.84051e-07 -0 3.47163e-08) (1.08192e-07 0.00301357 -0 -1.58432e-07 -0 5.02403e-08) (5.70953e-07 0.00301426 -0 -5.56394e-07 -0 -1.45594e-08));
    }
}


// ************************************************************************* //
