/*--------------------------------*- C++ -*----------------------------------*\
  =========                 |
  \\      /  F ield         | OpenFOAM: The Open Source CFD Toolbox
   \\    /   O peration     | Website:  https://openfoam.org
    \\  /    A nd           | Version:  dev
     \\/     M anipulation  |

   OpenFOAM for Windows 20.09 (v1)
   Built by CFD Support, www.cfdsupport.com (based on Symscape).
\*---------------------------------------------------------------------------*/
FoamFile
{
    version     2.0;
    format      ascii;
    class       volScalarField;
    location    "10";
    object      epsilon;
}
// * * * * * * * * * * * * * * * * * * * * * * * * * * * * * * * * * * * * * //

dimensions      [0 2 -3 0 0 0 0];

internalField   nonuniform List<scalar> 
120
(
4.78716e-13
5.12509e-13
5.18333e-13
5.11522e-13
4.35777e-13
4.62979e-13
4.69005e-13
4.62506e-13
3.97887e-13
4.20086e-13
4.26159e-13
4.20017e-13
3.64039e-13
3.82684e-13
3.88613e-13
3.82857e-13
3.34012e-13
3.49789e-13
3.55419e-13
3.50066e-13
3.07132e-13
3.2057e-13
3.25809e-13
3.20876e-13
2.8286e-13
2.94364e-13
2.99168e-13
2.9467e-13
2.60752e-13
2.70647e-13
2.75003e-13
2.70943e-13
2.4045e-13
2.48993e-13
2.52924e-13
2.49276e-13
2.21659e-13
2.2906e-13
2.32637e-13
2.29326e-13
2.04141e-13
2.10567e-13
2.13788e-13
2.10826e-13
1.877e-13
1.93288e-13
1.96169e-13
1.93543e-13
1.72176e-13
1.77045e-13
1.79605e-13
1.77291e-13
1.5744e-13
1.61688e-13
1.6395e-13
1.61923e-13
1.43392e-13
1.47108e-13
1.49085e-13
1.4732e-13
4.838e-13
5.18327e-13
5.19467e-13
5.06e-13
4.34903e-13
4.69349e-13
4.7041e-13
4.57901e-13
3.93192e-13
4.26791e-13
4.27785e-13
4.15846e-13
3.57203e-13
3.89489e-13
3.90428e-13
3.78545e-13
3.25855e-13
3.56497e-13
3.57405e-13
3.46863e-13
2.98315e-13
3.27045e-13
3.27948e-13
3.19102e-13
2.73922e-13
3.0053e-13
3.01433e-13
2.94208e-13
2.52117e-13
2.76443e-13
2.77353e-13
2.71491e-13
2.32444e-13
2.54393e-13
2.55295e-13
2.50527e-13
2.14518e-13
2.34048e-13
2.34918e-13
2.31051e-13
1.98001e-13
2.15147e-13
2.15971e-13
2.12841e-13
1.82592e-13
1.97498e-13
1.98239e-13
1.95718e-13
1.68005e-13
1.80885e-13
1.81552e-13
1.79519e-13
1.54061e-13
1.65167e-13
1.65771e-13
1.64124e-13
1.40677e-13
1.5023e-13
1.50775e-13
1.49436e-13
)
;

boundaryField
{
    topWall
    {
        type            epsilonWallFunction;
        value           nonuniform List<scalar> 0();
    }
    botWall
    {
        type            epsilonWallFunction;
        value           nonuniform List<scalar> 0();
    }
    inlet
    {
        type            cyclic;
    }
    outlet
    {
        type            cyclic;
    }
    fixWall
    {
        type            empty;
    }
    procBoundary6to5
    {
        type            processor;
        value           nonuniform List<scalar> 8(5.28762e-13 5.70994e-13 5.76506e-13 5.69429e-13 5.42204e-13 5.7612e-13 5.77318e-13 5.6255e-13);
    }
    procBoundary6to7
    {
        type            processor;
        value           nonuniform List<scalar> 8(1.30329e-13 1.3358e-13 1.3532e-13 1.33772e-13 1.28165e-13 1.36383e-13 1.36888e-13 1.35772e-13);
    }
}


// ************************************************************************* //
