/*--------------------------------*- C++ -*----------------------------------*\
  =========                 |
  \\      /  F ield         | OpenFOAM: The Open Source CFD Toolbox
   \\    /   O peration     | Website:  https://openfoam.org
    \\  /    A nd           | Version:  dev
     \\/     M anipulation  |

   OpenFOAM for Windows 20.09 (v1)
   Built by CFD Support, www.cfdsupport.com (based on Symscape).
\*---------------------------------------------------------------------------*/
FoamFile
{
    version     2.0;
    format      ascii;
    class       volVectorField;
    location    "10";
    object      gradp;
}
// * * * * * * * * * * * * * * * * * * * * * * * * * * * * * * * * * * * * * //

dimensions      [1 -2 -2 0 0 0 0];

internalField   nonuniform List<vector> 
120
(
(3.74824 -9.80927 0)
(-1.25309 -9.80938 0)
(-1.25009 -9.81039 0)
(-1.24884 -9.81031 0)
(3.74824 -9.81003 0)
(-1.25309 -9.81025 0)
(-1.25009 -9.81042 0)
(-1.24884 -9.81007 0)
(3.74824 -9.81026 0)
(-1.25309 -9.81041 0)
(-1.25009 -9.81031 0)
(-1.24883 -9.81002 0)
(3.74824 -9.81022 0)
(-1.25309 -9.81024 0)
(-1.25009 -9.8101 0)
(-1.24883 -9.81018 0)
(3.74824 -9.80985 0)
(-1.25309 -9.80981 0)
(-1.25009 -9.80994 0)
(-1.24884 -9.81046 0)
(3.74825 -9.80954 0)
(-1.2531 -9.80962 0)
(-1.2501 -9.80996 0)
(-1.24885 -9.81066 0)
(3.74825 -9.80948 0)
(-1.2531 -9.80977 0)
(-1.25011 -9.81005 0)
(-1.24885 -9.81057 0)
(3.74826 -9.80946 0)
(-1.25311 -9.80987 0)
(-1.25011 -9.81016 0)
(-1.24886 -9.81046 0)
(3.74826 -9.8094 0)
(-1.25311 -9.80992 0)
(-1.25012 -9.81024 0)
(-1.24886 -9.81043 0)
(3.74826 -9.80934 0)
(-1.25312 -9.80997 0)
(-1.25012 -9.81027 0)
(-1.24887 -9.81048 0)
(3.74826 -9.8093 0)
(-1.25313 -9.81004 0)
(-1.25012 -9.81025 0)
(-1.24887 -9.81052 0)
(3.74826 -9.80939 0)
(-1.25314 -9.81009 0)
(-1.25013 -9.81019 0)
(-1.24888 -9.81056 0)
(3.74826 -9.80937 0)
(-1.25314 -9.81001 0)
(-1.25013 -9.8101 0)
(-1.24888 -9.81055 0)
(3.74826 -9.80936 0)
(-1.25315 -9.80973 0)
(-1.25014 -9.80989 0)
(-1.24889 -9.81044 0)
(3.74826 -9.80949 0)
(-1.25315 -9.80947 0)
(-1.25014 -9.80972 0)
(-1.24889 -9.81023 0)
(-1.24921 -9.81044 0)
(-1.24815 -9.81188 0)
(-1.24894 -9.81181 0)
(3.75007 -9.81034 0)
(-1.24922 -9.81014 0)
(-1.24816 -9.81158 0)
(-1.24893 -9.81191 0)
(3.75009 -9.81033 0)
(-1.24924 -9.81014 0)
(-1.24818 -9.81152 0)
(-1.24892 -9.81196 0)
(3.7501 -9.81029 0)
(-1.24924 -9.81049 0)
(-1.24819 -9.81168 0)
(-1.24891 -9.81215 0)
(3.75012 -9.81032 0)
(-1.24926 -9.81087 0)
(-1.2482 -9.81196 0)
(-1.24889 -9.81228 0)
(3.75014 -9.81029 0)
(-1.24927 -9.81084 0)
(-1.24821 -9.81182 0)
(-1.24888 -9.81223 0)
(3.75016 -9.81023 0)
(-1.24928 -9.81069 0)
(-1.24823 -9.81177 0)
(-1.24887 -9.81232 0)
(3.75018 -9.81021 0)
(-1.24929 -9.81075 0)
(-1.24824 -9.81167 0)
(-1.24885 -9.81235 0)
(3.7502 -9.81018 0)
(-1.2493 -9.81075 0)
(-1.24825 -9.81159 0)
(-1.24884 -9.81243 0)
(3.75023 -9.81014 0)
(-1.24931 -9.81072 0)
(-1.24827 -9.81154 0)
(-1.24883 -9.81247 0)
(3.75025 -9.8101 0)
(-1.24932 -9.81069 0)
(-1.24828 -9.81148 0)
(-1.24882 -9.81254 0)
(3.75028 -9.81005 0)
(-1.24933 -9.81069 0)
(-1.2483 -9.81143 0)
(-1.2488 -9.81256 0)
(3.75031 -9.80997 0)
(-1.24933 -9.81071 0)
(-1.24831 -9.81144 0)
(-1.24879 -9.81255 0)
(3.75033 -9.80982 0)
(-1.24934 -9.81076 0)
(-1.24833 -9.81144 0)
(-1.24878 -9.8121 0)
(3.75036 -9.8098 0)
(-1.24935 -9.8107 0)
(-1.24834 -9.81133 0)
(-1.24877 -9.81127 0)
(3.75038 -9.81 0)
)
;

boundaryField
{
    topWall
    {
        type            extrapolatedCalculated;
        value           nonuniform List<vector> 0();
    }
    botWall
    {
        type            extrapolatedCalculated;
        value           nonuniform List<vector> 0();
    }
    inlet
    {
        type            cyclic;
    }
    outlet
    {
        type            cyclic;
    }
    fixWall
    {
        type            empty;
    }
    procBoundary6to5
    {
        type            processor;
        value           nonuniform List<vector> 8((3.74823 -9.80843 0) (-1.25307 -9.80827 0) (-1.25008 -9.81 0) (-1.24884 -9.81067 0) (-1.24919 -9.81144 0) (-1.24813 -9.81286 0) (-1.24895 -9.812 0) (3.75004 -9.81039 0));
    }
    procBoundary6to7
    {
        type            processor;
        value           nonuniform List<vector> 8((3.74826 -9.80976 0) (-1.25315 -9.8093 0) (-1.25015 -9.80963 0) (-1.2489 -9.80996 0) (-1.24936 -9.81053 0) (-1.24834 -9.81112 0) (-1.24876 -9.81028 0) (3.75039 -9.81033 0));
    }
}


// ************************************************************************* //
