/*--------------------------------*- C++ -*----------------------------------*\
  =========                 |
  \\      /  F ield         | OpenFOAM: The Open Source CFD Toolbox
   \\    /   O peration     | Website:  https://openfoam.org
    \\  /    A nd           | Version:  dev
     \\/     M anipulation  |

   OpenFOAM for Windows 20.09 (v1)
   Built by CFD Support, www.cfdsupport.com (based on Symscape).
\*---------------------------------------------------------------------------*/
FoamFile
{
    version     2.0;
    format      ascii;
    class       volVectorField;
    location    "10";
    object      gradp_rgh;
}
// * * * * * * * * * * * * * * * * * * * * * * * * * * * * * * * * * * * * * //

dimensions      [1 -2 -2 0 0 0 0];

internalField   nonuniform List<vector> 
120
(
(-1.25176 0.000727427 0)
(-1.25309 0.000618281 0)
(-1.25009 -0.000388802 0)
(-1.24884 -0.00030647 0)
(-1.25176 -2.74592e-05 0)
(-1.25309 -0.000248018 0)
(-1.25009 -0.000419291 0)
(-1.24884 -7.3712e-05 0)
(-1.25176 -0.000255857 0)
(-1.25309 -0.000414215 0)
(-1.25009 -0.000307588 0)
(-1.24883 -1.55937e-05 0)
(-1.25176 -0.000223347 0)
(-1.25309 -0.000236287 0)
(-1.25009 -0.000101386 0)
(-1.24883 -0.000179323 0)
(-1.25176 0.00014949 0)
(-1.25309 0.00018863 0)
(-1.25009 5.75817e-05 0)
(-1.24884 -0.000456863 0)
(-1.25175 0.000461735 0)
(-1.2531 0.000382372 0)
(-1.2501 3.95933e-05 0)
(-1.24885 -0.000661569 0)
(-1.25175 0.000518276 0)
(-1.2531 0.000228263 0)
(-1.25011 -4.80283e-05 0)
(-1.24885 -0.000574988 0)
(-1.25174 0.000541517 0)
(-1.25311 0.000129993 0)
(-1.25011 -0.000160021 0)
(-1.24886 -0.000458485 0)
(-1.25174 0.000600551 0)
(-1.25311 7.86433e-05 0)
(-1.25012 -0.000242458 0)
(-1.24886 -0.000426418 0)
(-1.25174 0.000658205 0)
(-1.25312 2.60312e-05 0)
(-1.25012 -0.000266615 0)
(-1.24887 -0.000477299 0)
(-1.25174 0.000696469 0)
(-1.25313 -3.73444e-05 0)
(-1.25012 -0.000250296 0)
(-1.24887 -0.000521085 0)
(-1.25174 0.0006112 0)
(-1.25314 -9.07488e-05 0)
(-1.25013 -0.000192434 0)
(-1.24888 -0.000562713 0)
(-1.25174 0.000626716 0)
(-1.25314 -1.1975e-05 0)
(-1.25013 -9.66151e-05 0)
(-1.24888 -0.000549057 0)
(-1.25174 0.000641603 0)
(-1.25315 0.000273813 0)
(-1.25014 0.000106255 0)
(-1.24889 -0.000444519 0)
(-1.25174 0.000508304 0)
(-1.25315 0.00053132 0)
(-1.25014 0.00028199 0)
(-1.24889 -0.000233924 0)
(-1.24921 -0.000438293 0)
(-1.24815 -0.00188086 0)
(-1.24894 -0.00181452 0)
(-1.24993 -0.000338444 0)
(-1.24922 -0.000142231 0)
(-1.24816 -0.0015833 0)
(-1.24893 -0.00190716 0)
(-1.24991 -0.000334506 0)
(-1.24924 -0.000137508 0)
(-1.24818 -0.00151588 0)
(-1.24892 -0.00196311 0)
(-1.2499 -0.000285906 0)
(-1.24924 -0.000488263 0)
(-1.24819 -0.00168498 0)
(-1.24891 -0.00215116 0)
(-1.24988 -0.000316012 0)
(-1.24926 -0.000874108 0)
(-1.2482 -0.00195716 0)
(-1.24889 -0.00228052 0)
(-1.24986 -0.000294256 0)
(-1.24927 -0.00084196 0)
(-1.24821 -0.00182432 0)
(-1.24888 -0.0022304 0)
(-1.24984 -0.000229818 0)
(-1.24928 -0.000689674 0)
(-1.24823 -0.00177265 0)
(-1.24887 -0.00232115 0)
(-1.24982 -0.000208488 0)
(-1.24929 -0.000752998 0)
(-1.24824 -0.00166554 0)
(-1.24885 -0.00235426 0)
(-1.2498 -0.00017867 0)
(-1.2493 -0.000748503 0)
(-1.24825 -0.00159028 0)
(-1.24884 -0.00242612 0)
(-1.24977 -0.000137945 0)
(-1.24931 -0.000724068 0)
(-1.24827 -0.00154489 0)
(-1.24883 -0.00247471 0)
(-1.24975 -9.91235e-05 0)
(-1.24932 -0.000687964 0)
(-1.24828 -0.00148408 0)
(-1.24882 -0.0025402 0)
(-1.24972 -4.79754e-05 0)
(-1.24933 -0.000694057 0)
(-1.2483 -0.00143255 0)
(-1.2488 -0.00256323 0)
(-1.24969 2.73627e-05 0)
(-1.24933 -0.000713962 0)
(-1.24831 -0.00144374 0)
(-1.24879 -0.00254858 0)
(-1.24967 0.000180235 0)
(-1.24934 -0.00075852 0)
(-1.24833 -0.00143988 0)
(-1.24878 -0.00210076 0)
(-1.24964 0.000201794 0)
(-1.24935 -0.000697824 0)
(-1.24834 -0.00132754 0)
(-1.24877 -0.00127314 0)
(-1.24962 1.35243e-06 0)
)
;

boundaryField
{
    topWall
    {
        type            extrapolatedCalculated;
        value           nonuniform List<vector> 0();
    }
    botWall
    {
        type            extrapolatedCalculated;
        value           nonuniform List<vector> 0();
    }
    inlet
    {
        type            cyclic;
    }
    outlet
    {
        type            cyclic;
    }
    fixWall
    {
        type            empty;
    }
    procBoundary6to5
    {
        type            processor;
        value           nonuniform List<vector> 8((-1.25177 0.00157463 0) (-1.25307 0.00173024 0) (-1.25008 4.14884e-06 0) (-1.24884 -0.000667751 0) (-1.24919 -0.00144052 0) (-1.24813 -0.00285934 0) (-1.24895 -0.00200424 0) (-1.24996 -0.000392386 0));
    }
    procBoundary6to7
    {
        type            processor;
        value           nonuniform List<vector> 8((-1.25174 0.000237555 0) (-1.25315 0.000695664 0) (-1.25015 0.00036963 0) (-1.2489 3.95724e-05 0) (-1.24936 -0.000528157 0) (-1.24834 -0.00111963 0) (-1.24876 -0.000281601 0) (-1.24961 -0.000326934 0));
    }
}


// ************************************************************************* //
