/*--------------------------------*- C++ -*----------------------------------*\
  =========                 |
  \\      /  F ield         | OpenFOAM: The Open Source CFD Toolbox
   \\    /   O peration     | Website:  https://openfoam.org
    \\  /    A nd           | Version:  dev
     \\/     M anipulation  |

   OpenFOAM for Windows 20.09 (v1)
   Built by CFD Support, www.cfdsupport.com (based on Symscape).
\*---------------------------------------------------------------------------*/
FoamFile
{
    version     2.0;
    format      ascii;
    class       volTensorField;
    location    "10";
    object      gradU;
}
// * * * * * * * * * * * * * * * * * * * * * * * * * * * * * * * * * * * * * //

dimensions      [0 0 -1 0 0 0 0];

internalField   nonuniform List<tensor> 
120
(
(0.000301365 0.00014111 0 -0.527964 -0.00119692 0 0 0 0)
(8.1605e-05 -0.000181674 0 -0.455093 -0.000777379 0 0 0 0)
(0.00288478 9.24755e-05 0 -0.476784 -0.00278524 0 0 0 0)
(-0.000873625 0.000459566 0 -0.497742 0.000371962 0 0 0 0)
(0.000728597 0.000156835 0 -1.07568 -0.000464686 0 0 0 0)
(0.000221051 -0.000192224 0 -0.991648 5.53538e-05 0 0 0 0)
(0.0025411 0.000102666 0 -1.02883 -0.00226302 0 0 0 0)
(0.00025229 0.000471843 0 -1.05891 0.000142142 0 0 0 0)
(0.00104725 0.000173678 0 -1.62081 -0.00124469 0 0 0 0)
(0.000862507 -0.000211647 0 -1.53876 -0.000658713 0 0 0 0)
(0.00176381 9.39219e-05 0 -1.60041 -0.00185234 0 0 0 0)
(-0.000889326 0.000513669 0 -1.63482 0.000403906 0 0 0 0)
(0.00175739 0.000165449 0 -2.21194 -0.00187436 0 0 0 0)
(0.000561113 -0.000202351 0 -2.14447 -0.00057889 0 0 0 0)
(0.000940063 0.000120376 0 -2.22156 -0.000564051 0 0 0 0)
(4.05449e-05 0.000528978 0 -2.25701 0.000183617 0 0 0 0)
(0.00208906 0.000179572 0 -2.86635 -0.00177438 0 0 0 0)
(0.000702212 -0.000189808 0 -2.8329 -7.63991e-05 0 0 0 0)
(-0.000111924 0.00010663 0 -2.89594 7.9981e-06 0 0 0 0)
(-0.000554139 0.000524139 0 -2.9051 -1.76758e-05 0 0 0 0)
(0.002093 0.000171218 0 -3.56852 -0.00243003 0 0 0 0)
(6.79486e-05 -0.000172645 0 -3.56075 -0.000482356 0 0 0 0)
(-0.000263253 0.000121355 0 -3.59634 0.00037493 0 0 0 0)
(0.000463765 0.000537436 0 -3.59248 -0.000256611 0 0 0 0)
(0.00203115 0.000177151 0 -4.34377 -0.00217236 0 0 0 0)
(0.000238578 -0.000143059 0 -4.33656 -0.000181514 0 0 0 0)
(-0.000640688 0.000110393 0 -4.33757 0.000605925 0 0 0 0)
(0.000355715 0.000525238 0 -4.35754 -0.00041342 0 0 0 0)
(0.00175875 0.000173409 0 -5.18459 -0.00192623 0 0 0 0)
(0.000171156 -0.00012634 0 -5.19039 -0.000130215 0 0 0 0)
(-0.000612932 0.00011749 0 -5.17577 0.000717033 0 0 0 0)
(0.000158146 0.000524023 0 -5.21079 -0.000108085 0 0 0 0)
(0.00150912 0.000176347 0 -6.12074 -0.00153405 0 0 0 0)
(0.000385596 -9.90044e-05 0 -6.13503 -0.000282616 0 0 0 0)
(-0.000980709 0.000110762 0 -6.12151 0.000971168 0 0 0 0)
(-3.32611e-06 0.000509744 0 -6.153 -0.00018513 0 0 0 0)
(0.000705892 0.000170405 0 -7.14532 -0.000891266 0 0 0 0)
(0.000158419 -8.45863e-05 0 -7.1766 -0.000158047 0 0 0 0)
(-0.000912573 0.000119115 0 -7.16089 0.00106669 0 0 0 0)
(0.000142104 0.000498066 0 -7.18081 -0.00018727 0 0 0 0)
(0.000173668 0.000171487 0 -8.28842 -0.000105459 0 0 0 0)
(0.00012604 -6.63718e-05 0 -8.31664 -5.12307e-05 0 0 0 0)
(-0.00105087 0.000110275 0 -8.30021 0.00102152 0 0 0 0)
(0.000253971 0.0004749 0 -8.3158 -0.000342669 0 0 0 0)
(-0.000802828 0.000165665 0 -9.5434 0.000267454 0 0 0 0)
(-3.81316e-05 -6.58034e-05 0 -9.54789 -7.07595e-05 0 0 0 0)
(-0.000898543 0.000114257 0 -9.55139 0.00105656 0 0 0 0)
(0.000408103 0.000453818 0 -9.56148 -0.000512522 0 0 0 0)
(-0.000303998 0.000159565 0 -10.9291 0.000719192 0 0 0 0)
(-7.12936e-06 -5.32201e-05 0 -10.9279 0.0001329 0 0 0 0)
(-0.00127734 0.000102912 0 -10.9261 0.00117126 0 0 0 0)
(0.000534476 0.000423382 0 -10.9348 -0.00060433 0 0 0 0)
(-0.00132882 0.000151773 0 -12.4375 0.000851183 0 0 0 0)
(1.19794e-05 -5.82689e-05 0 -12.4344 0.000214546 0 0 0 0)
(-0.00101424 0.00010197 0 -12.4481 0.00139168 0 0 0 0)
(0.000456908 0.000392429 0 -12.458 -0.000544019 0 0 0 0)
(-0.000449747 0.00014409 0 -14.1325 0.000703745 0 0 0 0)
(-0.000182642 -4.42118e-05 0 -14.1336 5.56429e-05 0 0 0 0)
(-0.0016707 9.02691e-05 0 -14.1384 0.00147969 0 0 0 0)
(0.000482714 0.000354476 0 -14.1399 -0.000601415 0 0 0 0)
(-0.00249664 -3.89031e-05 0 -0.488066 0.00154897 0 0 0 0)
(-0.00197794 -0.000499663 0 -0.479172 0.00247286 0 0 0 0)
(-0.000689501 -0.000194682 0 -0.448948 0.00111842 0 0 0 0)
(0.00276996 0.000221771 0 -0.505607 -0.00285242 0 0 0 0)
(-0.000517984 -5.79068e-05 0 -1.02977 0.000983125 0 0 0 0)
(-0.00265719 -0.000500014 0 -1.02638 0.0017163 0 0 0 0)
(-0.00275171 -0.000201594 0 -0.982231 0.00196244 0 0 0 0)
(0.00218385 0.000220395 0 -1.0364 -0.00189874 0 0 0 0)
(-0.00195461 -1.26671e-05 0 -1.61312 0.00157572 0 0 0 0)
(-0.00118561 -0.000483341 0 -1.60497 0.00223733 0 0 0 0)
(-0.00085644 -0.000254933 0 -1.54559 0.00167921 0 0 0 0)
(0.00121243 0.000181319 0 -1.60049 -0.00117558 0 0 0 0)
(-2.03979e-05 -2.73498e-05 0 -2.20145 6.41915e-05 0 0 0 0)
(-0.00153176 -0.00049829 0 -2.20183 0.000427884 0 0 0 0)
(-0.00267705 -0.000258475 0 -2.17544 0.00148226 0 0 0 0)
(0.000930099 0.000171663 0 -2.20698 -0.000932524 0 0 0 0)
(-0.00103489 -8.59602e-06 0 -2.87054 0.000515482 0 0 0 0)
(-0.000752035 -0.000459706 0 -2.87817 0.00140875 0 0 0 0)
(-0.000942243 -0.000277606 0 -2.8354 0.00184881 0 0 0 0)
(0.000603962 0.000125375 0 -2.85303 -0.000422524 0 0 0 0)
(0.000428331 -3.57614e-06 0 -3.54175 0.000440835 0 0 0 0)
(-0.000946091 -0.000476067 0 -3.54831 0.000918178 0 0 0 0)
(-0.00225807 -0.000288997 0 -3.55273 0.00154178 0 0 0 0)
(0.000414378 0.000111276 0 -3.55728 -0.000337096 0 0 0 0)
(-0.000298712 1.09838e-05 0 -4.35591 -0.000198846 0 0 0 0)
(-0.000934993 -0.000441357 0 -4.35791 0.000918707 0 0 0 0)
(-0.00109175 -0.000298527 0 -4.33177 0.0014395 0 0 0 0)
(0.000340701 5.91782e-05 0 -4.3165 -0.000313005 0 0 0 0)
(0.00042217 1.8626e-05 0 -5.19731 -0.000212592 0 0 0 0)
(-0.000543672 -0.000448762 0 -5.16618 0.000746617 0 0 0 0)
(-0.00156798 -0.000309525 0 -5.17309 0.00117373 0 0 0 0)
(0.00021437 5.10787e-05 0 -5.15906 -8.19978e-05 0 0 0 0)
(0.000444815 2.52288e-05 0 -6.12247 -0.000586222 0 0 0 0)
(-0.00053135 -0.000418252 0 -6.10679 0.000419751 0 0 0 0)
(-0.000973224 -0.000312338 0 -6.10614 0.00115916 0 0 0 0)
(0.00014908 7.51226e-06 0 -6.07185 -0.000102335 0 0 0 0)
(0.00119235 2.87073e-05 0 -7.14545 -0.00102397 0 0 0 0)
(-0.000271545 -0.000419672 0 -7.11522 0.000426117 0 0 0 0)
(-0.000985671 -0.000318227 0 -7.12541 0.000702833 0 0 0 0)
(-2.89773e-05 6.19188e-06 0 -7.09648 0.000133534 0 0 0 0)
(0.00153801 3.5452e-05 0 -8.28425 -0.00163339 0 0 0 0)
(-0.000197297 -0.000389472 0 -8.2603 0.000161236 0 0 0 0)
(-0.00066081 -0.000317214 0 -8.25526 0.000747297 0 0 0 0)
(-0.000182713 -1.90561e-05 0 -8.22612 0.000233128 0 0 0 0)
(0.00211732 3.71057e-05 0 -9.53456 -0.00203448 0 0 0 0)
(0.000211637 -0.000379994 0 -9.50633 -2.81909e-05 0 0 0 0)
(-0.000415944 -0.000317028 0 -9.51608 0.00019913 0 0 0 0)
(-0.000581608 -8.02073e-06 0 -9.51923 0.000644568 0 0 0 0)
(0.00245703 4.35241e-05 0 -10.9232 -0.00251209 0 0 0 0)
(0.000110742 -0.000352245 0 -10.9015 -0.000286089 0 0 0 0)
(-0.000875685 -0.000306001 0 -10.8915 0.000536911 0 0 0 0)
(-0.000638089 -1.79173e-05 0 -10.8963 0.000966414 0 0 0 0)
(0.00267306 4.24097e-05 0 -12.4512 -0.00274272 0 0 0 0)
(0.00074042 -0.000329177 0 -12.4295 -0.000573057 0 0 0 0)
(-0.000330002 -0.000296153 0 -12.4213 0.000603438 0 0 0 0)
(-0.00120931 -4.98272e-06 0 -12.4257 0.00114305 0 0 0 0)
(0.00293233 4.30402e-05 0 -14.1396 -0.00293074 0 0 0 0)
(0.000608249 -0.000296476 0 -14.1253 -0.000743428 0 0 0 0)
(-0.000811891 -0.0002774 0 -14.1119 0.000714358 0 0 0 0)
(-0.000908321 -1.37882e-05 0 -14.1147 0.0011032 0 0 0 0)
)
;

boundaryField
{
    topWall
    {
        type            extrapolatedCalculated;
        value           nonuniform List<tensor> 0();
    }
    botWall
    {
        type            extrapolatedCalculated;
        value           nonuniform List<tensor> 0();
    }
    inlet
    {
        type            cyclic;
    }
    outlet
    {
        type            cyclic;
    }
    fixWall
    {
        type            empty;
    }
    procBoundary6to5
    {
        type            processor;
        value           nonuniform List<tensor> 8((-0.000113296 0.000122251 0 0.0130476 0.000250327 0 0 0 0) (-0.000631953 -0.000165752 0 0.0757534 0.000481623 0 0 0 0) (0.00325191 8.35102e-05 0 0.0623026 -0.00360317 0 0 0 0) (0.000440321 0.000399607 0 0.0435047 0.00018214 0 0 0 0) (-0.000827489 -9.29218e-05 0 0.0506283 0.00271639 0 0 0 0) (-0.00330916 -0.000492839 0 0.0531081 0.00380182 0 0 0 0) (-0.00231113 -0.000112839 0 0.0737213 0.00202276 0 0 0 0) (0.00350079 0.000258984 0 0.03047 -0.00314579 0 0 0 0));
    }
    procBoundary6to7
    {
        type            processor;
        value           nonuniform List<tensor> 8((-0.0016441 0.000134314 0 -15.9882 0.00109247 0 0 0 0) (-8.62148e-05 -4.53366e-05 0 -15.9904 0.000218278 0 0 0 0) (-0.00111846 9.10192e-05 0 -15.9907 0.00155026 0 0 0 0) (0.000436091 0.000318922 0 -15.9899 -0.000504327 0 0 0 0) (0.00291614 4.00429e-05 0 -15.9948 -0.00294047 0 0 0 0) (0.00120173 -0.000268426 0 -15.9819 -0.000925737 0 0 0 0) (-0.000153571 -0.000265376 0 -15.9717 0.000552981 0 0 0 0) (-0.00155161 -5.15959e-06 0 -15.9756 0.00143586 0 0 0 0));
    }
}


// ************************************************************************* //
