/*--------------------------------*- C++ -*----------------------------------*\
  =========                 |
  \\      /  F ield         | OpenFOAM: The Open Source CFD Toolbox
   \\    /   O peration     | Website:  https://openfoam.org
    \\  /    A nd           | Version:  dev
     \\/     M anipulation  |

   OpenFOAM for Windows 20.09 (v1)
   Built by CFD Support, www.cfdsupport.com (based on Symscape).
\*---------------------------------------------------------------------------*/
FoamFile
{
    version     2.0;
    format      ascii;
    class       volScalarField;
    location    "10";
    object      k;
}
// * * * * * * * * * * * * * * * * * * * * * * * * * * * * * * * * * * * * * //

dimensions      [0 2 -2 0 0 0 0];

internalField   nonuniform List<scalar> 
120
(
1.89663e-13
2.0296e-13
2.05112e-13
2.02307e-13
1.63387e-13
1.73514e-13
1.75646e-13
1.7313e-13
1.40273e-13
1.48042e-13
1.50079e-13
1.47854e-13
1.19955e-13
1.26049e-13
1.27919e-13
1.25978e-13
1.02288e-13
1.07075e-13
1.08735e-13
1.07062e-13
8.6946e-14
9.07079e-14
9.21454e-14
9.07225e-14
7.36409e-14
7.65967e-14
7.78177e-14
7.66235e-14
6.2119e-14
6.44399e-14
6.54615e-14
6.44725e-14
5.21582e-14
5.39785e-14
5.48228e-14
5.40138e-14
4.35638e-14
4.4989e-14
4.56792e-14
4.50251e-14
3.61658e-14
3.72787e-14
3.78372e-14
3.73142e-14
2.98154e-14
3.06812e-14
3.11289e-14
3.0715e-14
2.43824e-14
2.50531e-14
2.54083e-14
2.50841e-14
1.97531e-14
2.02698e-14
2.05486e-14
2.02975e-14
1.58281e-14
1.62235e-14
1.64398e-14
1.62473e-14
1.91553e-13
2.05195e-13
2.05671e-13
2.0022e-13
1.62999e-13
1.75854e-13
1.76301e-13
1.71478e-13
1.38555e-13
1.5038e-13
1.50795e-13
1.4644e-13
1.17632e-13
1.28282e-13
1.28663e-13
1.24603e-13
9.97225e-14
1.09131e-13
1.09475e-13
1.06119e-13
8.43893e-14
9.25511e-14
9.28568e-14
9.02535e-14
7.1261e-14
7.82151e-14
7.84828e-14
7.65334e-14
6.00166e-14
6.58356e-14
6.60682e-14
6.4631e-14
5.03833e-14
5.51644e-14
5.53644e-14
5.43103e-14
4.2128e-14
4.59833e-14
4.61537e-14
4.53848e-14
3.50509e-14
3.81028e-14
3.82463e-14
3.76886e-14
2.89813e-14
3.13566e-14
3.14764e-14
3.10742e-14
2.37728e-14
2.56004e-14
2.56991e-14
2.54102e-14
1.93132e-14
2.07079e-14
2.07883e-14
2.05818e-14
1.55151e-14
1.65695e-14
1.66341e-14
1.6487e-14
)
;

boundaryField
{
    topWall
    {
        type            kqRWallFunction;
        value           nonuniform List<scalar> 0();
    }
    botWall
    {
        type            kqRWallFunction;
        value           nonuniform List<scalar> 0();
    }
    inlet
    {
        type            cyclic;
    }
    outlet
    {
        type            cyclic;
    }
    fixWall
    {
        type            empty;
    }
    procBoundary6to5
    {
        type            processor;
        value           nonuniform List<scalar> 8(2.19522e-13 2.36934e-13 2.39034e-13 2.35958e-13 2.24895e-13 2.38968e-13 2.39463e-13 2.33234e-13);
    }
    procBoundary6to7
    {
        type            processor;
        value           nonuniform List<scalar> 8(1.25204e-14 1.28203e-14 1.29857e-14 1.284e-14 1.23011e-14 1.30893e-14 1.31405e-14 1.30363e-14);
    }
}


// ************************************************************************* //
