/*--------------------------------*- C++ -*----------------------------------*\
  =========                 |
  \\      /  F ield         | OpenFOAM: The Open Source CFD Toolbox
   \\    /   O peration     | Website:  https://openfoam.org
    \\  /    A nd           | Version:  dev
     \\/     M anipulation  |

   OpenFOAM for Windows 20.09 (v1)
   Built by CFD Support, www.cfdsupport.com (based on Symscape).
\*---------------------------------------------------------------------------*/
FoamFile
{
    version     2.0;
    format      ascii;
    class       volScalarField;
    location    "10";
    object      nut;
}
// * * * * * * * * * * * * * * * * * * * * * * * * * * * * * * * * * * * * * //

dimensions      [0 2 -1 0 0 0 0];

internalField   nonuniform List<scalar> 
120
(
6.76288e-15
7.23373e-15
7.30495e-15
7.20115e-15
5.51329e-15
5.85263e-15
5.9203e-15
5.83269e-15
4.45075e-15
4.69539e-15
4.75675e-15
4.68426e-15
3.55736e-15
3.73661e-15
3.78963e-15
3.73074e-15
2.81923e-15
2.94991e-15
2.99392e-15
2.9469e-15
2.21522e-15
2.30999e-15
2.34545e-15
2.30853e-15
1.72548e-15
1.79382e-15
1.82173e-15
1.79321e-15
1.33188e-15
1.38086e-15
1.40242e-15
1.38074e-15
1.01827e-15
1.05316e-15
1.06949e-15
1.05334e-15
7.70564e-16
7.95254e-16
8.07235e-16
7.95607e-16
5.76645e-16
5.93982e-16
6.02696e-16
5.94381e-16
4.26245e-16
4.3831e-16
4.44568e-16
4.38699e-16
3.10758e-16
3.19067e-16
3.235e-16
3.19414e-16
2.23046e-16
2.28699e-16
2.31791e-16
2.2899e-16
1.57245e-16
1.61027e-16
1.63154e-16
1.61266e-16
6.82583e-15
7.31096e-15
7.32874e-15
7.13032e-15
5.4982e-15
5.92993e-15
5.94667e-15
5.77944e-15
4.39424e-15
4.76877e-15
4.78402e-15
4.64118e-15
3.48641e-15
3.80259e-15
3.81604e-15
3.69129e-15
2.74666e-15
3.00668e-15
3.01795e-15
2.92196e-15
2.14854e-15
2.35721e-15
2.36627e-15
2.29742e-15
1.66847e-15
1.83205e-15
1.83908e-15
1.7918e-15
1.28583e-15
1.4111e-15
1.41643e-15
1.38474e-15
9.82873e-16
1.0766e-15
1.08059e-15
1.05962e-15
7.44596e-16
8.13088e-16
8.16093e-16
8.02337e-16
5.58437e-16
6.07324e-16
6.09572e-16
6.00629e-16
4.13998e-16
4.48062e-16
4.49805e-16
4.44029e-16
3.02747e-16
3.26087e-16
3.27397e-16
3.23706e-16
2.17899e-16
2.33664e-16
2.34624e-16
2.32292e-16
1.54003e-16
1.64477e-16
1.65162e-16
1.63709e-16
)
;

boundaryField
{
    topWall
    {
        type            nutkWallFunction;
        Cmu             0.09;
        kappa           0.41;
        E               9.8;
        value           nonuniform List<scalar> 0();
    }
    botWall
    {
        type            nutkWallFunction;
        Cmu             0.09;
        kappa           0.41;
        E               9.8;
        value           nonuniform List<scalar> 0();
    }
    inlet
    {
        type            cyclic;
    }
    outlet
    {
        type            cyclic;
    }
    fixWall
    {
        type            empty;
    }
    procBoundary6to5
    {
        type            processor;
        value           nonuniform List<scalar> 8(8.20237e-15 8.84843e-15 8.91984e-15 8.79981e-15 8.39535e-15 8.92088e-15 8.9393e-15 8.70292e-15);
    }
    procBoundary6to7
    {
        type            processor;
        value           nonuniform List<scalar> 8(1.08254e-16 1.10737e-16 1.12153e-16 1.1092e-16 1.06257e-16 1.13061e-16 1.13527e-16 1.12654e-16);
    }
}


// ************************************************************************* //
