/*--------------------------------*- C++ -*----------------------------------*\
  =========                 |
  \\      /  F ield         | OpenFOAM: The Open Source CFD Toolbox
   \\    /   O peration     | Website:  https://openfoam.org
    \\  /    A nd           | Version:  dev
     \\/     M anipulation  |

   OpenFOAM for Windows 20.09 (v1)
   Built by CFD Support, www.cfdsupport.com (based on Symscape).
\*---------------------------------------------------------------------------*/
FoamFile
{
    version     2.0;
    format      ascii;
    class       volScalarField;
    location    "10";
    object      omega;
}
// * * * * * * * * * * * * * * * * * * * * * * * * * * * * * * * * * * * * * //

dimensions      [0 0 -1 0 0 0 0];

internalField   nonuniform List<scalar> 
120
(
28.0448
28.0575
28.0785
28.0938
29.635
29.6472
29.6685
29.6827
31.5168
31.5291
31.5507
31.564
33.7201
33.7334
33.7551
33.7676
36.2823
36.2976
36.3186
36.3305
39.2494
39.2676
39.2869
39.2988
42.6785
42.7004
42.7164
42.7299
46.6402
46.6665
46.6776
46.6941
51.2223
51.2536
51.2609
51.2783
56.535
56.5719
56.5873
56.5921
62.7177
62.7606
62.78
62.7782
69.949
69.9988
70.0205
70.0138
78.4611
78.5198
78.5418
78.5317
88.5604
88.6309
88.6516
88.6391
100.659
100.751
100.762
100.748
28.063
28.0668
28.0636
28.0802
29.6459
29.6553
29.647
29.6703
31.5311
31.5343
31.5206
31.5523
33.7401
33.7355
33.7165
33.7558
36.3069
36.2964
36.2746
36.3179
39.2775
39.263
39.2418
39.2847
42.7103
42.6928
42.675
42.7131
46.6755
46.6555
46.6442
46.6736
51.2613
51.2393
51.2354
51.2543
56.5783
56.5539
56.5545
56.5658
62.7661
62.7389
62.7428
62.7486
70.0035
69.9828
69.9779
69.9823
78.5235
78.508
78.495
78.498
88.6333
88.6227
88.6026
88.6029
100.746
100.74
100.714
100.709
)
;

boundaryField
{
    topWall
    {
        beta1           0.075;
        blended         0;
        type            omegaWallFunction;
        value           nonuniform List<scalar> 0();
    }
    botWall
    {
        beta1           0.075;
        blended         0;
        type            omegaWallFunction;
        value           nonuniform List<scalar> 0();
    }
    inlet
    {
        type            cyclic;
    }
    outlet
    {
        type            cyclic;
    }
    fixWall
    {
        type            empty;
    }
    procBoundary6to5
    {
        type            processor;
        value           nonuniform List<scalar> 8(26.7633 26.777 26.798 26.814 26.788 26.7875 26.7876 26.7995);
    }
    procBoundary6to7
    {
        type            processor;
        value           nonuniform List<scalar> 8(115.658 115.772 115.786 115.76 115.767 115.771 115.747 115.721);
    }
}


// ************************************************************************* //
