/*--------------------------------*- C++ -*----------------------------------*\
  =========                 |
  \\      /  F ield         | OpenFOAM: The Open Source CFD Toolbox
   \\    /   O peration     | Website:  https://openfoam.org
    \\  /    A nd           | Version:  dev
     \\/     M anipulation  |

   OpenFOAM for Windows 20.09 (v1)
   Built by CFD Support, www.cfdsupport.com (based on Symscape).
\*---------------------------------------------------------------------------*/
FoamFile
{
    version     2.0;
    format      ascii;
    class       volScalarField;
    location    "10";
    object      p;
}
// * * * * * * * * * * * * * * * * * * * * * * * * * * * * * * * * * * * * * //

dimensions      [1 -1 -2 0 0 0 0];

internalField   nonuniform List<scalar> 
120
(
-5.12872
-5.19143
-5.25403
-5.31644
-5.1369
-5.19961
-5.26221
-5.32461
-5.14507
-5.20778
-5.27038
-5.33279
-5.15325
-5.21596
-5.27856
-5.34096
-5.16142
-5.22413
-5.28673
-5.34914
-5.1696
-5.23231
-5.29491
-5.35732
-5.17777
-5.24048
-5.30308
-5.36549
-5.18595
-5.24866
-5.31126
-5.37367
-5.19412
-5.25683
-5.31943
-5.38184
-5.2023
-5.26501
-5.32761
-5.39002
-5.21047
-5.27318
-5.33578
-5.39819
-5.21865
-5.28136
-5.34396
-5.40637
-5.22682
-5.28953
-5.35214
-5.41454
-5.235
-5.29771
-5.36031
-5.42272
-5.24317
-5.30588
-5.36848
-5.43089
-5.37892
-5.44136
-5.50373
-5.56625
-5.38709
-5.44954
-5.51191
-5.57443
-5.39527
-5.45771
-5.52008
-5.5826
-5.40344
-5.46589
-5.52826
-5.59078
-5.41162
-5.47407
-5.53644
-5.59896
-5.41979
-5.48224
-5.54462
-5.60713
-5.42797
-5.49042
-5.55279
-5.61531
-5.43615
-5.4986
-5.56097
-5.62348
-5.44432
-5.50677
-5.56915
-5.63166
-5.4525
-5.51495
-5.57732
-5.63983
-5.46067
-5.52312
-5.5855
-5.64801
-5.46885
-5.5313
-5.59368
-5.65618
-5.47702
-5.53948
-5.60185
-5.66436
-5.4852
-5.54765
-5.61003
-5.67253
-5.49337
-5.55583
-5.61821
-5.68071
)
;

boundaryField
{
    topWall
    {
        type            calculated;
        value           nonuniform List<scalar> 0();
    }
    botWall
    {
        type            calculated;
        value           nonuniform List<scalar> 0();
    }
    inlet
    {
        type            cyclic;
    }
    outlet
    {
        type            cyclic;
    }
    fixWall
    {
        type            empty;
    }
    procBoundary6to5
    {
        type            processor;
        value           nonuniform List<scalar> 8(-5.12055 -5.18326 -5.24586 -5.30826 -5.37074 -5.43318 -5.49555 -5.55808);
    }
    procBoundary6to7
    {
        type            processor;
        value           nonuniform List<scalar> 8(-5.25134 -5.31405 -5.37666 -5.43907 -5.50155 -5.56401 -5.62638 -5.68888);
    }
}


// ************************************************************************* //
