/*--------------------------------*- C++ -*----------------------------------*\
  =========                 |
  \\      /  F ield         | OpenFOAM: The Open Source CFD Toolbox
   \\    /   O peration     | Website:  https://openfoam.org
    \\  /    A nd           | Version:  dev
     \\/     M anipulation  |

   OpenFOAM for Windows 20.09 (v1)
   Built by CFD Support, www.cfdsupport.com (based on Symscape).
\*---------------------------------------------------------------------------*/
FoamFile
{
    version     2.0;
    format      ascii;
    class       surfaceScalarField;
    location    "10";
    object      phi;
}
// * * * * * * * * * * * * * * * * * * * * * * * * * * * * * * * * * * * * * //

dimensions      [0 3 -1 0 0 0 0];

internalField   nonuniform List<scalar> 
217
(
4.47941e-07
2.1008e-10
4.47942e-07
-8.8607e-12
4.4806e-07
-7.36918e-10
4.64356e-10
4.48026e-07
4.47424e-07
1.75043e-10
4.47432e-07
-1.58834e-11
4.47535e-07
-8.39771e-10
4.50931e-10
4.47548e-07
4.46505e-07
1.26751e-10
4.46539e-07
-4.99005e-11
4.4661e-07
-9.10485e-10
4.84984e-10
4.46576e-07
4.4523e-07
4.86848e-11
4.45252e-07
-7.15539e-11
4.45288e-07
-9.46943e-10
4.80366e-10
4.45293e-07
4.4348e-07
-4.32805e-11
4.43507e-07
-9.90935e-11
4.435e-07
-9.39611e-10
5.00596e-10
4.4348e-07
4.41272e-07
-1.35417e-10
4.41273e-07
-1.00194e-10
4.4126e-07
-9.2602e-10
4.78492e-10
4.41282e-07
4.38529e-07
-2.24957e-10
4.38537e-07
-1.08333e-10
4.38508e-07
-8.96704e-10
4.60903e-10
4.38525e-07
4.35244e-07
-3.03098e-10
4.3525e-07
-1.13594e-10
4.35221e-07
-8.68525e-10
4.51521e-10
4.35231e-07
4.31324e-07
-3.70783e-10
4.31338e-07
-1.27713e-10
4.31295e-07
-8.25032e-10
4.4883e-10
4.31297e-07
4.26733e-07
-4.04967e-10
4.26738e-07
-1.3231e-10
4.26697e-07
-7.84382e-10
4.40034e-10
4.26706e-07
4.21378e-07
-4.16947e-10
4.21382e-07
-1.35528e-10
4.21335e-07
-7.37984e-10
4.26559e-10
4.21349e-07
4.15202e-07
-3.88253e-10
4.15199e-07
-1.31882e-10
4.15158e-07
-6.97918e-10
4.06649e-10
4.15178e-07
4.08121e-07
-3.80291e-10
4.08118e-07
-1.29526e-10
4.08062e-07
-6.42076e-10
3.81496e-10
4.08087e-07
4.00024e-07
-3.29666e-10
4.00022e-07
-1.2796e-10
3.99977e-07
-5.97165e-10
3.59557e-10
3.99999e-07
3.90848e-07
3.90839e-07
3.90767e-07
3.90789e-07
4.47922e-07
1.58723e-09
4.47837e-07
1.91085e-10
4.47812e-07
-9.2898e-10
-7.68986e-10
4.47526e-07
1.60903e-09
4.47413e-07
3.03582e-10
4.47302e-07
-8.17595e-10
-8.56027e-10
4.46494e-07
1.69073e-09
4.46442e-07
3.55066e-10
4.4641e-07
-7.85165e-10
-9.02778e-10
4.45291e-07
1.69191e-09
4.45225e-07
4.21031e-10
4.45117e-07
-6.76995e-10
-9.37965e-10
4.43436e-07
1.73536e-09
4.43403e-07
4.54485e-10
4.43367e-07
-6.41019e-10
-9.59711e-10
4.41299e-07
1.71789e-09
4.41258e-07
4.95999e-10
4.41167e-07
-5.50213e-10
-9.73584e-10
4.38512e-07
1.7307e-09
4.38471e-07
5.36975e-10
4.38429e-07
-5.07864e-10
-9.84406e-10
4.35248e-07
1.71346e-09
4.35223e-07
5.61599e-10
4.35161e-07
-4.45595e-10
-9.89912e-10
4.31316e-07
1.69526e-09
4.31291e-07
5.85651e-10
4.31254e-07
-4.07971e-10
-9.9267e-10
4.26755e-07
1.64592e-09
4.26742e-07
5.98859e-10
4.26704e-07
-3.69748e-10
-9.87969e-10
4.21412e-07
1.58216e-09
4.21402e-07
6.08956e-10
4.21378e-07
-3.44977e-10
-9.76842e-10
4.15266e-07
1.49427e-09
4.15273e-07
6.02031e-10
4.15258e-07
-3.30364e-10
-9.49108e-10
4.0819e-07
1.39223e-09
4.08192e-07
5.99318e-10
4.08158e-07
-2.96525e-10
-9.19098e-10
4.0011e-07
1.28119e-09
4.00139e-07
5.70427e-10
4.00128e-07
-2.85386e-10
-8.65398e-10
3.90911e-07
3.90935e-07
3.90904e-07
)
;

boundaryField
{
    topWall
    {
        type            calculated;
        value           nonuniform List<scalar> 0();
    }
    botWall
    {
        type            calculated;
        value           nonuniform List<scalar> 0();
    }
    inlet
    {
        type            cyclic;
        value           nonuniform List<scalar> 
15
(
-4.47924e-07
-4.47389e-07
-4.46457e-07
-4.45152e-07
-4.43388e-07
-4.4118e-07
-4.3844e-07
-4.35166e-07
-4.31257e-07
-4.26699e-07
-4.21366e-07
-4.15231e-07
-4.08129e-07
-4.00074e-07
-3.90862e-07
)
;
    }
    outlet
    {
        type            cyclic;
        value           nonuniform List<scalar> 
15
(
4.47924e-07
4.47389e-07
4.46457e-07
4.45152e-07
4.43388e-07
4.4118e-07
4.3844e-07
4.35166e-07
4.31257e-07
4.26699e-07
4.21366e-07
4.15231e-07
4.08129e-07
4.00074e-07
3.90862e-07
)
;
    }
    fixWall
    {
        type            empty;
        value           nonuniform List<scalar> 0();
    }
    procBoundary6to5
    {
        type            processor;
        value           nonuniform List<scalar> 8(-2.24639e-10 6.12263e-12 6.19459e-10 -4.31277e-10 -1.48429e-09 -1.0821e-10 9.60549e-10 6.62554e-10);
    }
    procBoundary6to7
    {
        type            processor;
        value           nonuniform List<scalar> 8(-3.14936e-10 -1.21278e-10 -5.25236e-10 3.32009e-10 1.1561e-09 5.43954e-10 -2.5124e-10 -8.21241e-10);
    }
}


// ************************************************************************* //
