/*--------------------------------*- C++ -*----------------------------------*\
  =========                 |
  \\      /  F ield         | OpenFOAM: The Open Source CFD Toolbox
   \\    /   O peration     | Website:  https://openfoam.org
    \\  /    A nd           | Version:  dev
     \\/     M anipulation  |

   OpenFOAM for Windows 20.09 (v1)
   Built by CFD Support, www.cfdsupport.com (based on Symscape).
\*---------------------------------------------------------------------------*/
FoamFile
{
    version     2.0;
    format      ascii;
    class       volSymmTensorField;
    location    "10";
    object      R;
}
// * * * * * * * * * * * * * * * * * * * * * * * * * * * * * * * * * * * * * //

dimensions      [0 2 -2 0 0 0 0];

internalField   nonuniform List<symmTensor> 
120
(
(1.26434e-13 3.56961e-15 -0 1.26454e-13 -0 1.26438e-13)
(1.35302e-13 3.29334e-15 -0 1.35315e-13 -0 1.35303e-13)
(1.367e-13 3.48221e-15 -0 1.36783e-13 -0 1.36742e-13)
(1.34882e-13 3.58101e-15 -0 1.34864e-13 -0 1.34869e-13)
(1.08917e-13 5.92969e-15 -0 1.0893e-13 -0 1.08925e-13)
(1.15675e-13 5.80488e-15 -0 1.15677e-13 -0 1.15677e-13)
(1.17069e-13 6.09037e-15 -0 1.17126e-13 -0 1.17099e-13)
(1.15419e-13 6.17352e-15 -0 1.1542e-13 -0 1.15421e-13)
(9.35057e-14 7.21306e-15 -0 9.35261e-14 -0 9.3515e-14)
(9.86869e-14 7.22606e-15 -0 9.87012e-14 -0 9.8695e-14)
(1.00036e-13 7.6123e-15 -0 1.0007e-13 -0 1.00052e-13)
(9.85761e-14 7.65552e-15 -0 9.8564e-14 -0 9.85678e-14)
(7.9957e-14 7.8681e-15 -0 7.99828e-14 -0 7.99695e-14)
(8.40281e-14 8.01379e-15 -0 8.40367e-14 -0 8.40323e-14)
(8.52733e-14 8.41844e-15 -0 8.52847e-14 -0 8.52804e-14)
(8.39856e-14 8.41835e-15 -0 8.39845e-14 -0 8.39859e-14)
(6.81809e-14 8.0804e-15 -0 6.82027e-14 -0 6.81927e-14)
(7.13802e-14 8.35735e-15 -0 7.13847e-14 -0 7.13843e-14)
(7.24905e-14 8.66989e-15 -0 7.24898e-14 -0 7.24898e-14)
(7.1377e-14 8.55948e-15 -0 7.13738e-14 -0 7.13737e-14)
(5.79542e-14 7.90468e-15 -0 5.79743e-14 -0 5.79635e-14)
(6.0471e-14 8.22571e-15 -0 6.04735e-14 -0 6.04713e-14)
(6.14317e-14 8.43476e-15 -0 6.14287e-14 -0 6.14305e-14)
(6.04798e-14 8.2921e-15 -0 6.04831e-14 -0 6.0482e-14)
(4.90867e-14 7.49477e-15 -0 4.91012e-14 -0 4.90937e-14)
(5.10637e-14 7.77925e-15 -0 5.10652e-14 -0 5.10645e-14)
(5.18807e-14 7.90168e-15 -0 5.18762e-14 -0 5.18784e-14)
(5.1081e-14 7.81302e-15 -0 5.10837e-14 -0 5.10823e-14)
(4.14078e-14 6.905e-15 -0 4.14177e-14 -0 4.14125e-14)
(4.29595e-14 7.16737e-15 -0 4.29603e-14 -0 4.296e-14)
(4.36428e-14 7.25842e-15 -0 4.36391e-14 -0 4.36411e-14)
(4.29813e-14 7.19403e-15 -0 4.2982e-14 -0 4.29817e-14)
(3.4769e-14 6.23239e-15 -0 3.47752e-14 -0 3.47721e-14)
(3.59849e-14 6.46129e-15 -0 3.59863e-14 -0 3.59857e-14)
(3.65507e-14 6.54676e-15 -0 3.65465e-14 -0 3.65486e-14)
(3.60091e-14 6.4807e-15 -0 3.60094e-14 -0 3.60091e-14)
(2.90413e-14 5.50579e-15 -0 2.90438e-14 -0 2.90424e-14)
(2.99924e-14 5.70729e-15 -0 2.99929e-14 -0 2.99927e-14)
(3.04544e-14 5.78042e-15 -0 3.04512e-14 -0 3.04529e-14)
(3.00165e-14 5.71271e-15 -0 3.0017e-14 -0 3.00167e-14)
(2.41104e-14 4.77938e-15 -0 2.41107e-14 -0 2.41106e-14)
(2.48523e-14 4.93998e-15 -0 2.48526e-14 -0 2.48525e-14)
(2.52261e-14 5.00244e-15 -0 2.52236e-14 -0 2.52248e-14)
(2.48758e-14 4.94248e-15 -0 2.48765e-14 -0 2.48761e-14)
(1.98775e-14 4.06776e-15 -0 1.98765e-14 -0 1.98768e-14)
(2.04541e-14 4.18496e-15 -0 2.04541e-14 -0 2.04541e-14)
(2.07534e-14 4.2462e-15 -0 2.07517e-14 -0 2.07526e-14)
(2.04763e-14 4.19441e-15 -0 2.04771e-14 -0 2.04766e-14)
(1.62552e-14 3.39627e-15 -0 1.62546e-14 -0 1.6255e-14)
(1.67021e-14 3.48674e-15 -0 1.6702e-14 -0 1.67021e-14)
(1.69396e-14 3.53457e-15 -0 1.69381e-14 -0 1.69388e-14)
(1.67224e-14 3.4926e-15 -0 1.67231e-14 -0 1.67227e-14)
(1.31692e-14 2.77411e-15 -0 1.31683e-14 -0 1.31686e-14)
(1.35132e-14 2.84376e-15 -0 1.35131e-14 -0 1.35132e-14)
(1.36996e-14 2.88532e-15 -0 1.36985e-14 -0 1.36992e-14)
(1.35314e-14 2.85268e-15 -0 1.35319e-14 -0 1.35316e-14)
(1.05523e-14 2.22224e-15 -0 1.05519e-14 -0 1.05521e-14)
(1.08157e-14 2.2759e-15 -0 1.08157e-14 -0 1.08157e-14)
(1.09604e-14 2.30672e-15 -0 1.09593e-14 -0 1.09598e-14)
(1.08314e-14 2.28022e-15 -0 1.08317e-14 -0 1.08315e-14)
(1.27732e-13 3.33172e-15 -0 1.27677e-13 -0 1.27698e-13)
(1.36828e-13 3.50686e-15 -0 1.36763e-13 -0 1.36799e-13)
(1.37126e-13 3.29165e-15 -0 1.371e-13 -0 1.37116e-13)
(1.3344e-13 3.60356e-15 -0 1.33521e-13 -0 1.3348e-13)
(1.08673e-13 5.6622e-15 -0 1.08657e-13 -0 1.08668e-13)
(1.17264e-13 6.08935e-15 -0 1.17212e-13 -0 1.17232e-13)
(1.17563e-13 5.84221e-15 -0 1.17507e-13 -0 1.17531e-13)
(1.14294e-13 5.98854e-15 -0 1.14341e-13 -0 1.1432e-13)
(9.23863e-14 7.08847e-15 -0 9.23552e-14 -0 9.23691e-14)
(1.00268e-13 7.65602e-15 -0 1.00235e-13 -0 1.00257e-13)
(1.00541e-13 7.39535e-15 -0 1.00517e-13 -0 1.00533e-13)
(9.76154e-14 7.4273e-15 -0 9.76376e-14 -0 9.76267e-14)
(7.84216e-14 7.67526e-15 -0 7.8421e-14 -0 7.84214e-14)
(8.55303e-14 8.37455e-15 -0 8.55154e-14 -0 8.55187e-14)
(8.57931e-14 8.30253e-15 -0 8.57613e-14 -0 8.57726e-14)
(8.30615e-14 8.14596e-15 -0 8.30752e-14 -0 8.30684e-14)
(6.64864e-14 7.88442e-15 -0 6.64779e-14 -0 6.64807e-14)
(7.27601e-14 8.65511e-15 -0 7.27471e-14 -0 7.27556e-14)
(7.29909e-14 8.55794e-15 -0 7.2974e-14 -0 7.29852e-14)
(7.0743e-14 8.33607e-15 -0 7.0749e-14 -0 7.07466e-14)
(5.6259e-14 7.60959e-15 -0 5.62589e-14 -0 5.62608e-14)
(6.17052e-14 8.36523e-15 -0 6.16964e-14 -0 6.17007e-14)
(6.19141e-14 8.4074e-15 -0 6.18961e-14 -0 6.19034e-14)
(6.01672e-14 8.17231e-15 -0 6.01706e-14 -0 6.01691e-14)
(4.75078e-14 7.26771e-15 -0 4.75075e-14 -0 4.75068e-14)
(5.21468e-14 7.98469e-15 -0 5.214e-14 -0 5.21434e-14)
(5.23263e-14 7.96703e-15 -0 5.2317e-14 -0 5.23223e-14)
(5.10211e-14 7.73421e-15 -0 5.10234e-14 -0 5.10223e-14)
(4.00101e-14 6.68282e-15 -0 4.00118e-14 -0 4.00112e-14)
(4.38921e-14 7.29063e-15 -0 4.38885e-14 -0 4.38906e-14)
(4.40496e-14 7.32776e-15 -0 4.40418e-14 -0 4.40451e-14)
(4.30869e-14 7.14391e-15 -0 4.30877e-14 -0 4.30875e-14)
(3.35879e-14 6.01759e-15 -0 3.359e-14 -0 3.35888e-14)
(3.67773e-14 6.57504e-15 -0 3.67753e-14 -0 3.67762e-14)
(3.69118e-14 6.59857e-15 -0 3.69072e-14 -0 3.69097e-14)
(3.62066e-14 6.43387e-15 -0 3.62071e-14 -0 3.62069e-14)
(2.80836e-14 5.32045e-15 -0 2.80869e-14 -0 2.80854e-14)
(3.06561e-14 5.78564e-15 -0 3.06549e-14 -0 3.06556e-14)
(3.07706e-14 5.81526e-15 -0 3.07678e-14 -0 3.0769e-14)
(3.02567e-14 5.69376e-15 -0 3.02564e-14 -0 3.02566e-14)
(2.33655e-14 4.62622e-15 -0 2.33691e-14 -0 2.33673e-14)
(2.54021e-14 5.01692e-15 -0 2.54017e-14 -0 2.54019e-14)
(2.54984e-14 5.03237e-15 -0 2.54967e-14 -0 2.54976e-14)
(2.5126e-14 4.94085e-15 -0 2.51255e-14 -0 2.51257e-14)
(1.93192e-14 3.94728e-15 -0 1.93226e-14 -0 1.93209e-14)
(2.09043e-14 4.2596e-15 -0 2.09045e-14 -0 2.09045e-14)
(2.09846e-14 4.28052e-15 -0 2.0984e-14 -0 2.09842e-14)
(2.07166e-14 4.22681e-15 -0 2.07156e-14 -0 2.07161e-14)
(1.5847e-14 3.30696e-15 -0 1.585e-14 -0 1.58485e-14)
(1.70668e-14 3.55494e-15 -0 1.70671e-14 -0 1.70669e-14)
(1.71332e-14 3.56594e-15 -0 1.71323e-14 -0 1.71326e-14)
(1.69406e-14 3.52721e-15 -0 1.69396e-14 -0 1.69402e-14)
(1.28743e-14 2.71309e-15 -0 1.28766e-14 -0 1.28754e-14)
(1.3805e-14 2.90441e-15 -0 1.38056e-14 -0 1.38053e-14)
(1.38591e-14 2.91441e-15 -0 1.38586e-14 -0 1.38589e-14)
(1.37217e-14 2.88639e-15 -0 1.37206e-14 -0 1.37212e-14)
(1.03425e-14 2.17753e-15 -0 1.03443e-14 -0 1.03434e-14)
(1.10461e-14 2.32333e-15 -0 1.10465e-14 -0 1.10463e-14)
(1.10896e-14 2.3308e-15 -0 1.10891e-14 -0 1.10894e-14)
(1.09917e-14 2.3107e-15 -0 1.0991e-14 -0 1.09914e-14)
)
;

boundaryField
{
    topWall
    {
        type            kqRWallFunction;
        value           nonuniform List<symmTensor> 0();
    }
    botWall
    {
        type            kqRWallFunction;
        value           nonuniform List<symmTensor> 0();
    }
    inlet
    {
        type            cyclic;
    }
    outlet
    {
        type            cyclic;
    }
    fixWall
    {
        type            empty;
    }
    procBoundary6to5
    {
        type            processor;
        value           nonuniform List<symmTensor> 8((1.46351e-13 -1.08024e-16 -0 1.46345e-13 -0 1.46349e-13) (1.57966e-13 -6.68832e-16 -0 1.57947e-13 -0 1.57955e-13) (1.59296e-13 -5.56474e-16 -0 1.59418e-13 -0 1.59354e-13) (1.57301e-13 -3.86349e-16 -0 1.57306e-13 -0 1.57309e-13) (1.49954e-13 -4.24262e-16 -0 1.49895e-13 -0 1.4994e-13) (1.59374e-13 -4.69374e-16 -0 1.59247e-13 -0 1.59315e-13) (1.59682e-13 -6.58008e-16 -0 1.59604e-13 -0 1.5964e-13) (1.5543e-13 -2.67432e-16 -0 1.55546e-13 -0 1.55491e-13));
    }
    procBoundary6to7
    {
        type            processor;
        value           nonuniform List<symmTensor> 8((8.34728e-15 1.73077e-15 -0 8.34669e-15 -0 8.34693e-15) (8.54687e-15 1.77074e-15 -0 8.54681e-15 -0 8.54685e-15) (8.65741e-15 1.79339e-15 -0 8.65681e-15 -0 8.65716e-15) (8.55993e-15 1.77356e-15 -0 8.56014e-15 -0 8.56003e-15) (8.20011e-15 1.69956e-15 -0 8.20135e-15 -0 8.20073e-15) (8.72594e-15 1.80696e-15 -0 8.72642e-15 -0 8.72621e-15) (8.76038e-15 1.81325e-15 -0 8.76022e-15 -0 8.76035e-15) (8.69123e-15 1.7997e-15 -0 8.69056e-15 -0 8.69088e-15));
    }
}


// ************************************************************************* //
