/*--------------------------------*- C++ -*----------------------------------*\
  =========                 |
  \\      /  F ield         | OpenFOAM: The Open Source CFD Toolbox
   \\    /   O peration     | Website:  https://openfoam.org
    \\  /    A nd           | Version:  dev
     \\/     M anipulation  |

   OpenFOAM for Windows 20.09 (v1)
   Built by CFD Support, www.cfdsupport.com (based on Symscape).
\*---------------------------------------------------------------------------*/
FoamFile
{
    version     2.0;
    format      ascii;
    class       volVectorField;
    location    "10";
    object      U;
}
// * * * * * * * * * * * * * * * * * * * * * * * * * * * * * * * * * * * * * //

dimensions      [0 1 -1 0 0 0 0];

internalField   nonuniform List<vector> 
120
(
(0.537609 4.02319e-06 0)
(0.537443 -3.12379e-07 0)
(0.537617 -1.41442e-05 0)
(0.537732 8.93517e-06 0)
(0.536973 3.58981e-06 0)
(0.536839 -8.55614e-07 0)
(0.536995 -1.56325e-05 0)
(0.537094 9.41098e-06 0)
(0.535816 3.24871e-06 0)
(0.53579 -2.20123e-07 0)
(0.535902 -1.7916e-05 0)
(0.535967 9.17207e-06 0)
(0.534271 1.51533e-06 0)
(0.534275 -1.95347e-06 0)
(0.534327 -1.87198e-05 0)
(0.534369 1.00842e-05 0)
(0.532129 1.2478e-07 0)
(0.532216 -1.18494e-06 0)
(0.5322 -1.8856e-05 0)
(0.532205 9.4781e-06 0)
(0.529494 -1.44197e-06 0)
(0.529553 -2.0808e-06 0)
(0.529501 -1.87064e-05 0)
(0.529527 1.00547e-05 0)
(0.526182 -3.92528e-06 0)
(0.526282 -1.98887e-06 0)
(0.526206 -1.82312e-05 0)
(0.526218 9.05041e-06 0)
(0.522254 -5.06258e-06 0)
(0.522326 -2.38332e-06 0)
(0.522272 -1.76966e-05 0)
(0.522264 9.36566e-06 0)
(0.517541 -7.13565e-06 0)
(0.517631 -2.20589e-06 0)
(0.517579 -1.70361e-05 0)
(0.517533 8.87027e-06 0)
(0.512053 -7.61933e-06 0)
(0.512101 -2.85435e-06 0)
(0.512069 -1.6078e-05 0)
(0.512009 9.05711e-06 0)
(0.505632 -8.6211e-06 0)
(0.50567 -2.4693e-06 0)
(0.505645 -1.52583e-05 0)
(0.505565 8.55815e-06 0)
(0.498239 -7.7951e-06 0)
(0.49824 -2.93973e-06 0)
(0.498235 -1.43754e-05 0)
(0.49815 8.48599e-06 0)
(0.489726 -8.17534e-06 0)
(0.489757 -2.58724e-06 0)
(0.489726 -1.34973e-05 0)
(0.489629 7.70395e-06 0)
(0.480024 -6.59644e-06 0)
(0.480026 -2.71823e-06 0)
(0.480025 -1.24233e-05 0)
(0.479925 7.47878e-06 0)
(0.468997 -6.7567e-06 0)
(0.469033 -2.22966e-06 0)
(0.468979 -1.11779e-05 0)
(0.468866 6.79725e-06 0)
(0.537529 3.18124e-05 0)
(0.537482 5.04486e-06 0)
(0.537332 -1.81539e-05 0)
(0.537413 -1.44233e-05 0)
(0.53702 3.15518e-05 0)
(0.537042 3.62029e-06 0)
(0.536754 -1.84496e-05 0)
(0.536767 -1.65391e-05 0)
(0.535813 3.34509e-05 0)
(0.535771 7.90536e-06 0)
(0.535695 -1.48832e-05 0)
(0.535686 -1.75879e-05 0)
(0.534331 3.4178e-05 0)
(0.534367 7.34917e-06 0)
(0.534178 -1.5651e-05 0)
(0.534099 -1.84984e-05 0)
(0.532144 3.35579e-05 0)
(0.532102 8.6185e-06 0)
(0.532069 -1.24127e-05 0)
(0.532007 -1.91421e-05 0)
(0.529547 3.50371e-05 0)
(0.52957 9.69708e-06 0)
(0.529453 -1.25696e-05 0)
(0.529344 -1.92026e-05 0)
(0.526241 3.42926e-05 0)
(0.526188 1.01488e-05 0)
(0.526148 -9.8431e-06 0)
(0.526079 -1.97039e-05 0)
(0.522287 3.47057e-05 0)
(0.522307 1.12283e-05 0)
(0.522233 -1.01705e-05 0)
(0.52215 -1.97243e-05 0)
(0.517579 3.39383e-05 0)
(0.517577 1.13932e-05 0)
(0.517526 -7.88688e-06 0)
(0.51748 -1.98406e-05 0)
(0.512083 3.37287e-05 0)
(0.512129 1.19278e-05 0)
(0.512056 -8.23852e-06 0)
(0.51203 -1.98948e-05 0)
(0.50567 3.22317e-05 0)
(0.505719 1.21034e-05 0)
(0.50565 -6.71549e-06 0)
(0.505653 -1.96181e-05 0)
(0.498276 3.10064e-05 0)
(0.498361 1.21966e-05 0)
(0.498297 -6.99302e-06 0)
(0.49832 -1.95063e-05 0)
(0.489779 2.88409e-05 0)
(0.489875 1.20564e-05 0)
(0.48979 -6.38361e-06 0)
(0.489787 -1.85438e-05 0)
(0.480071 2.68196e-05 0)
(0.480192 1.17198e-05 0)
(0.480145 -6.09817e-06 0)
(0.480159 -1.78956e-05 0)
(0.469027 2.42697e-05 0)
(0.469159 1.11013e-05 0)
(0.469088 -5.37788e-06 0)
(0.469078 -1.66387e-05 0)
)
;

boundaryField
{
    topWall
    {
        type            noSlip;
    }
    botWall
    {
        type            noSlip;
    }
    inlet
    {
        type            cyclic;
    }
    outlet
    {
        type            cyclic;
    }
    fixWall
    {
        type            empty;
    }
    procBoundary6to5
    {
        type            processor;
        value           nonuniform List<vector> 8((0.537853 5.58468e-06 0) (0.537598 4.40018e-07 0) (0.537789 -1.09905e-05 0) (0.537923 8.79104e-06 0) (0.537833 2.89702e-05 0) (0.53784 -5.01144e-07 0) (0.537502 -2.03137e-05 0) (0.537609 -1.1785e-05 0));
    }
    procBoundary6to7
    {
        type            processor;
        value           nonuniform List<vector> 8((0.45647 -5.42353e-06 0) (0.45647 -2.6255e-06 0) (0.456461 -9.95719e-06 0) (0.456359 6.47642e-06 0) (0.456505 2.1935e-05 0) (0.45665 1.04807e-05 0) (0.456625 -4.90758e-06 0) (0.456635 -1.60569e-05 0));
    }
}


// ************************************************************************* //
