/*--------------------------------*- C++ -*----------------------------------*\
  =========                 |
  \\      /  F ield         | OpenFOAM: The Open Source CFD Toolbox
   \\    /   O peration     | Website:  https://openfoam.org
    \\  /    A nd           | Version:  dev
     \\/     M anipulation  |

   OpenFOAM for Windows 20.09 (v1)
   Built by CFD Support, www.cfdsupport.com (based on Symscape).
\*---------------------------------------------------------------------------*/
FoamFile
{
    version     2.0;
    format      ascii;
    class       volVectorField;
    location    "10";
    object      UMean;
}
// * * * * * * * * * * * * * * * * * * * * * * * * * * * * * * * * * * * * * //

dimensions      [0 1 -1 0 0 0 0];

internalField   nonuniform List<vector> 
120
(
(0.291371 1.14384e-05 0)
(0.291225 9.00665e-06 0)
(0.291303 -2.22117e-05 0)
(0.291316 -1.25584e-06 0)
(0.291214 1.07392e-05 0)
(0.2911 8.5192e-06 0)
(0.291163 -2.31372e-05 0)
(0.291147 -1.52255e-06 0)
(0.290934 1.16286e-05 0)
(0.290874 1.02103e-05 0)
(0.290915 -2.27614e-05 0)
(0.290872 -1.10209e-06 0)
(0.290538 1.08791e-05 0)
(0.290515 9.43612e-06 0)
(0.290536 -2.30233e-05 0)
(0.29046 -1.18683e-06 0)
(0.289998 1.0548e-05 0)
(0.290025 9.64185e-06 0)
(0.290024 -2.18779e-05 0)
(0.289921 -1.05994e-06 0)
(0.289313 9.75807e-06 0)
(0.289361 9.82821e-06 0)
(0.289348 -2.09368e-05 0)
(0.28923 -6.74917e-07 0)
(0.288445 9.07085e-06 0)
(0.288521 9.14414e-06 0)
(0.2885 -1.98572e-05 0)
(0.288371 -7.49225e-07 0)
(0.287372 8.05588e-06 0)
(0.287466 8.9243e-06 0)
(0.287449 -1.84434e-05 0)
(0.28731 -5.01153e-07 0)
(0.286058 7.36808e-06 0)
(0.286171 8.14825e-06 0)
(0.286158 -1.72579e-05 0)
(0.286011 -5.29417e-07 0)
(0.284473 6.66697e-06 0)
(0.284595 7.40476e-06 0)
(0.284586 -1.57639e-05 0)
(0.284433 -4.17389e-07 0)
(0.282561 6.22027e-06 0)
(0.282686 6.49875e-06 0)
(0.28268 -1.45394e-05 0)
(0.282526 -4.57665e-07 0)
(0.280264 5.96179e-06 0)
(0.28039 5.6138e-06 0)
(0.280387 -1.31033e-05 0)
(0.280231 -4.27342e-07 0)
(0.277511 5.66475e-06 0)
(0.277632 4.59528e-06 0)
(0.277627 -1.19504e-05 0)
(0.27748 -5.68427e-07 0)
(0.274219 5.84291e-06 0)
(0.274336 3.71798e-06 0)
(0.274333 -1.05428e-05 0)
(0.27419 -3.94583e-07 0)
(0.270302 5.59501e-06 0)
(0.270409 2.96475e-06 0)
(0.270402 -9.39768e-06 0)
(0.270268 -5.73035e-07 0)
(0.291293 2.34226e-05 0)
(0.291267 -2.57901e-06 0)
(0.291138 -6.52408e-06 0)
(0.291295 -7.89437e-06 0)
(0.291158 2.21786e-05 0)
(0.291157 -2.27906e-06 0)
(0.291012 -8.4973e-06 0)
(0.291142 -1.16899e-05 0)
(0.290889 2.37103e-05 0)
(0.290868 -5.24489e-08 0)
(0.290756 -5.80143e-06 0)
(0.290877 -1.10152e-05 0)
(0.290515 2.21928e-05 0)
(0.290522 2.39705e-07 0)
(0.290395 -8.15127e-06 0)
(0.290485 -1.40856e-05 0)
(0.289994 2.23413e-05 0)
(0.289986 1.4814e-06 0)
(0.289879 -6.07731e-06 0)
(0.289959 -1.42413e-05 0)
(0.289329 2.1456e-05 0)
(0.289343 2.73613e-06 0)
(0.289228 -6.35991e-06 0)
(0.289283 -1.52639e-05 0)
(0.288486 2.04656e-05 0)
(0.28849 3.08026e-06 0)
(0.288388 -5.75823e-06 0)
(0.288434 -1.56517e-05 0)
(0.287434 1.93934e-05 0)
(0.287453 4.16463e-06 0)
(0.287358 -5.42339e-06 0)
(0.287383 -1.60134e-05 0)
(0.286148 1.80948e-05 0)
(0.286165 4.51891e-06 0)
(0.286082 -4.69239e-06 0)
(0.286098 -1.57636e-05 0)
(0.284578 1.68214e-05 0)
(0.284604 5.14738e-06 0)
(0.284537 -4.34793e-06 0)
(0.284544 -1.54332e-05 0)
(0.282678 1.5238e-05 0)
(0.282706 5.28231e-06 0)
(0.282653 -3.81724e-06 0)
(0.282657 -1.45884e-05 0)
(0.280383 1.38463e-05 0)
(0.280418 5.57007e-06 0)
(0.280379 -3.47477e-06 0)
(0.280379 -1.37152e-05 0)
(0.277632 1.21399e-05 0)
(0.277671 5.36612e-06 0)
(0.277637 -3.25565e-06 0)
(0.277631 -1.26518e-05 0)
(0.274332 1.07924e-05 0)
(0.274377 5.43532e-06 0)
(0.274356 -2.89038e-06 0)
(0.274346 -1.1268e-05 0)
(0.270405 9.00147e-06 0)
(0.270455 5.14843e-06 0)
(0.270429 -2.74177e-06 0)
(0.270414 -1.01456e-05 0)
)
;

boundaryField
{
    topWall
    {
        type            calculated;
        value           nonuniform List<vector> 0();
    }
    botWall
    {
        type            calculated;
        value           nonuniform List<vector> 0();
    }
    inlet
    {
        type            cyclic;
    }
    outlet
    {
        type            cyclic;
    }
    fixWall
    {
        type            empty;
    }
    procBoundary6to5
    {
        type            processor;
        value           nonuniform List<vector> 8((0.291425 1.03893e-05 0) (0.291239 8.25971e-06 0) (0.291338 -2.1025e-05 0) (0.291364 -1.33915e-06 0) (0.291348 2.26415e-05 0) (0.291347 -4.20801e-06 0) (0.291178 -5.76986e-06 0) (0.291339 -6.74344e-06 0));
    }
    procBoundary6to7
    {
        type            processor;
        value           nonuniform List<vector> 8((0.265635 5.62912e-06 0) (0.265736 2.25627e-06 0) (0.265731 -8.25352e-06 0) (0.265605 -4.92362e-07 0) (0.265723 7.51096e-06 0) (0.265771 4.82998e-06 0) (0.265768 -2.55572e-06 0) (0.265754 -9.04794e-06 0));
    }
}


// ************************************************************************* //
