/*--------------------------------*- C++ -*----------------------------------*\
  =========                 |
  \\      /  F ield         | OpenFOAM: The Open Source CFD Toolbox
   \\    /   O peration     | Website:  https://openfoam.org
    \\  /    A nd           | Version:  dev
     \\/     M anipulation  |

   OpenFOAM for Windows 20.09 (v1)
   Built by CFD Support, www.cfdsupport.com (based on Symscape).
\*---------------------------------------------------------------------------*/
FoamFile
{
    version     2.0;
    format      ascii;
    class       volSymmTensorField;
    location    "10";
    object      UPrime2Mean;
}
// * * * * * * * * * * * * * * * * * * * * * * * * * * * * * * * * * * * * * //

dimensions      [0 2 -2 0 0 0 0];

internalField   nonuniform List<symmTensor> 
120
(
(0.0141144 -1.4987e-07 0 2.92504e-11 0 0)
(0.0141062 3.24118e-08 0 3.85084e-11 0 0)
(0.0141107 -7.33512e-07 0 2.51384e-10 0 0)
(0.0141143 -2.6238e-07 0 9.86089e-11 0 0)
(0.0140684 -9.54081e-08 0 2.20632e-11 0 0)
(0.0140624 1.1724e-07 0 5.31912e-11 0 0)
(0.0140668 -7.02692e-07 0 2.1953e-10 0 0)
(0.0140691 -1.97382e-07 0 9.48479e-11 0 0)
(0.0139848 -1.79589e-07 0 2.79493e-11 0 0)
(0.0139839 4.66771e-08 0 5.15604e-11 0 0)
(0.0139869 -7.88519e-07 0 2.05024e-10 0 0)
(0.0139868 -1.93643e-07 0 8.56436e-11 0 0)
(0.0138722 -1.86177e-07 0 3.22683e-11 0 0)
(0.0138714 7.00345e-08 0 6.18207e-11 0 0)
(0.0138718 -7.41327e-07 0 1.80735e-10 0 0)
(0.0138711 -1.17154e-07 0 7.95094e-11 0 0)
(0.013717 -2.65213e-07 0 2.96185e-11 0 0)
(0.0137183 1.02685e-07 0 6.53296e-11 0 0)
(0.0137154 -7.5787e-07 0 1.65976e-10 0 0)
(0.0137138 -9.44835e-08 0 6.80521e-11 0 0)
(0.0135257 -2.60419e-07 0 3.51116e-11 0 0)
(0.0135236 6.10334e-08 0 6.70214e-11 0 0)
(0.0135186 -7.30882e-07 0 1.46963e-10 0 0)
(0.0135192 -4.16402e-08 0 5.88547e-11 0 0)
(0.0132873 -3.71343e-07 0 3.57851e-11 0 0)
(0.0132867 1.34646e-07 0 7.50882e-11 0 0)
(0.0132804 -6.91542e-07 0 1.28204e-10 0 0)
(0.0132812 -3.6865e-08 0 4.93675e-11 0 0)
(0.0130059 -3.54853e-07 0 3.50628e-11 0 0)
(0.0130041 1.27674e-07 0 7.62734e-11 0 0)
(0.0129995 -6.78392e-07 0 1.16132e-10 0 0)
(0.0129998 9.6017e-10 0 4.4231e-11 0 0)
(0.0126732 -4.35401e-07 0 3.83788e-11 0 0)
(0.0126737 1.70869e-07 0 7.80501e-11 0 0)
(0.0126702 -6.3988e-07 0 1.0224e-10 0 0)
(0.0126683 1.20458e-08 0 3.88741e-11 0 0)
(0.0122934 -4.26564e-07 0 3.48103e-11 0 0)
(0.0122928 1.57414e-07 0 7.50672e-11 0 0)
(0.0122909 -6.19869e-07 0 9.39529e-11 0 0)
(0.0122882 3.60657e-08 0 3.69244e-11 0 0)
(0.01186 -4.66633e-07 0 3.69634e-11 0 0)
(0.0118604 1.77358e-07 0 6.96318e-11 0 0)
(0.0118593 -5.7638e-07 0 8.25384e-11 0 0)
(0.0118548 4.08142e-08 0 3.37393e-11 0 0)
(0.0113747 -4.39714e-07 0 3.03819e-11 0 0)
(0.0113746 1.56796e-07 0 6.29913e-11 0 0)
(0.0113749 -5.58848e-07 0 7.67e-11 0 0)
(0.0113692 5.4183e-08 0 3.20894e-11 0 0)
(0.010834 -4.55497e-07 0 3.22043e-11 0 0)
(0.0108371 1.56131e-07 0 5.37742e-11 0 0)
(0.0108361 -5.06121e-07 0 6.67521e-11 0 0)
(0.0108288 4.71991e-08 0 2.98166e-11 0 0)
(0.010241 -4.14484e-07 0 2.58641e-11 0 0)
(0.0102429 1.35493e-07 0 4.43821e-11 0 0)
(0.0102436 -4.7351e-07 0 6.04112e-11 0 0)
(0.0102359 5.91501e-08 0 2.62159e-11 0 0)
(0.00959569 -4.0871e-07 0 2.59806e-11 0 0)
(0.00959996 1.34172e-07 0 3.88486e-11 0 0)
(0.00959798 -4.11317e-07 0 5.17099e-11 0 0)
(0.00958922 6.18267e-08 0 2.3584e-11 0 0)
(0.0141012 6.81513e-07 0 9.02314e-11 0 0)
(0.0140973 4.21352e-07 0 7.10548e-11 0 0)
(0.0140948 1.61969e-07 0 9.54301e-11 0 0)
(0.0141014 -2.65204e-07 0 2.03081e-11 0 0)
(0.014062 7.78281e-07 0 1.11365e-10 0 0)
(0.0140626 3.53578e-07 0 5.76832e-11 0 0)
(0.0140517 1.8827e-07 0 8.67188e-11 0 0)
(0.0140541 -2.13009e-07 0 2.36386e-11 0 0)
(0.0139743 7.43375e-07 0 9.44572e-11 0 0)
(0.0139704 4.31826e-07 0 5.55243e-11 0 0)
(0.0139718 1.22366e-07 0 5.68315e-11 0 0)
(0.0139751 -3.88711e-07 0 1.8445e-11 0 0)
(0.0138629 8.76074e-07 0 1.0709e-10 0 0)
(0.0138642 4.23599e-07 0 5.4667e-11 0 0)
(0.0138592 1.76181e-07 0 5.87338e-11 0 0)
(0.0138588 -3.42347e-07 0 2.14528e-11 0 0)
(0.0137037 8.39514e-07 0 1.00359e-10 0 0)
(0.0136992 4.26546e-07 0 4.53523e-11 0 0)
(0.0137031 1.18516e-07 0 3.34629e-11 0 0)
(0.0137063 -4.27669e-07 0 2.34694e-11 0 0)
(0.0135124 9.26654e-07 0 1.02552e-10 0 0)
(0.0135132 4.23108e-07 0 4.17853e-11 0 0)
(0.0135119 8.53226e-08 0 2.84865e-11 0 0)
(0.0135119 -4.65211e-07 0 2.86752e-11 0 0)
(0.0132758 9.3672e-07 0 9.99969e-11 0 0)
(0.0132715 4.36385e-07 0 4.0839e-11 0 0)
(0.0132728 1.17826e-07 0 1.93007e-11 0 0)
(0.0132757 -5.35942e-07 0 3.77615e-11 0 0)
(0.0129936 9.72917e-07 0 1.00618e-10 0 0)
(0.0129943 4.41591e-07 0 3.79247e-11 0 0)
(0.0129934 5.95826e-08 0 1.59288e-11 0 0)
(0.0129939 -5.74973e-07 0 4.61189e-11 0 0)
(0.0126654 9.75773e-07 0 9.83449e-11 0 0)
(0.0126646 4.39213e-07 0 3.73511e-11 0 0)
(0.0126625 9.41944e-08 0 1.19414e-11 0 0)
(0.0126641 -6.18272e-07 0 5.37028e-11 0 0)
(0.0122872 9.76812e-07 0 9.65021e-11 0 0)
(0.0122895 4.45737e-07 0 3.72868e-11 0 0)
(0.0122852 6.28966e-08 0 1.22172e-11 0 0)
(0.0122864 -6.47944e-07 0 5.95627e-11 0 0)
(0.0118567 9.48667e-07 0 9.16506e-11 0 0)
(0.0118592 4.52258e-07 0 3.91241e-11 0 0)
(0.0118537 9.97836e-08 0 1.17431e-11 0 0)
(0.0118556 -6.62072e-07 0 6.23503e-11 0 0)
(0.0113728 9.04474e-07 0 8.51028e-11 0 0)
(0.0113774 4.46627e-07 0 3.88544e-11 0 0)
(0.0113728 8.05564e-08 0 1.2633e-11 0 0)
(0.0113752 -6.75932e-07 0 6.44869e-11 0 0)
(0.0108343 8.43764e-07 0 7.68741e-11 0 0)
(0.0108396 4.37887e-07 0 4.0018e-11 0 0)
(0.0108339 9.73665e-08 0 1.28641e-11 0 0)
(0.0108343 -6.43091e-07 0 6.03584e-11 0 0)
(0.0102418 7.73542e-07 0 6.85948e-11 0 0)
(0.0102482 4.13938e-07 0 3.81784e-11 0 0)
(0.0102463 9.36068e-08 0 1.35089e-11 0 0)
(0.010248 -6.25097e-07 0 5.91707e-11 0 0)
(0.00959651 6.99413e-07 0 5.98909e-11 0 0)
(0.00960439 3.88028e-07 0 3.58485e-11 0 0)
(0.00960098 1.07197e-07 0 1.28391e-11 0 0)
(0.00960004 -5.67803e-07 0 5.02593e-11 0 0)
)
;

boundaryField
{
    topWall
    {
        type            calculated;
        value           nonuniform List<symmTensor> 0();
    }
    botWall
    {
        type            calculated;
        value           nonuniform List<symmTensor> 0();
    }
    inlet
    {
        type            cyclic;
    }
    outlet
    {
        type            cyclic;
    }
    fixWall
    {
        type            empty;
    }
    procBoundary6to5
    {
        type            processor;
        value           nonuniform List<symmTensor> 8((0.0141305 -3.39451e-08 0 1.93904e-11 0 0) (0.0141176 4.91139e-08 0 3.30982e-11 0 0) (0.0141225 -6.93409e-07 0 2.73816e-10 0 0) (0.0141278 -2.58085e-07 0 9.87075e-11 0 0) (0.0141218 6.02009e-07 0 9.51368e-11 0 0) (0.0141221 2.32153e-07 0 5.56604e-11 0 0) (0.0141084 6.09043e-08 0 1.03177e-10 0 0) (0.0141145 -9.97843e-08 0 2.32385e-11 0 0));
    }
    procBoundary6to7
    {
        type            processor;
        value           nonuniform List<symmTensor> 8((0.0089003 -3.51686e-07 0 2.16742e-11 0 0) (0.00890212 1.04171e-07 0 3.20921e-11 0 0) (0.00890235 -3.57005e-07 0 4.43508e-11 0 0) (0.00889444 6.41949e-08 0 2.12687e-11 0 0) (0.00890206 6.16008e-07 0 5.01496e-11 0 0) (0.00891043 3.54858e-07 0 3.32322e-11 0 0) (0.00890982 1.18311e-07 0 1.36649e-11 0 0) (0.00891052 -5.40268e-07 0 4.77014e-11 0 0));
    }
}


// ************************************************************************* //
