/*--------------------------------*- C++ -*----------------------------------*\
  =========                 |
  \\      /  F ield         | OpenFOAM: The Open Source CFD Toolbox
   \\    /   O peration     | Website:  https://openfoam.org
    \\  /    A nd           | Version:  dev
     \\/     M anipulation  |

   OpenFOAM for Windows 20.09 (v1)
   Built by CFD Support, www.cfdsupport.com (based on Symscape).
\*---------------------------------------------------------------------------*/
FoamFile
{
    version     2.0;
    format      ascii;
    class       surfaceScalarField;
    location    "6";
    object      alphaPhi0.water;
}
// * * * * * * * * * * * * * * * * * * * * * * * * * * * * * * * * * * * * * //

dimensions      [0 3 -1 0 0 0 0];

internalField   nonuniform List<scalar> 
217
(
2.39421e-08
5.98591e-13
2.39435e-08
1.39561e-10
2.3972e-08
-2.82574e-10
-3.26905e-11
2.39885e-08
2.42732e-08
1.73425e-11
2.42762e-08
1.3659e-10
2.43048e-08
-3.11156e-10
-5.62733e-11
2.43284e-08
2.45464e-08
3.59606e-11
2.45502e-08
1.32777e-10
2.45791e-08
-3.39959e-10
-8.50958e-11
2.46079e-08
2.47697e-08
5.76516e-11
2.47736e-08
1.28864e-10
2.48042e-08
-3.70607e-10
-1.19336e-10
2.48384e-08
2.49528e-08
8.01446e-11
2.49562e-08
1.25485e-10
2.49875e-08
-4.01857e-10
-1.58343e-10
2.50265e-08
2.5101e-08
1.0458e-10
2.51031e-08
1.23416e-10
2.51357e-08
-4.34489e-10
-2.01933e-10
2.51793e-08
2.5222e-08
1.2913e-10
2.52222e-08
1.23141e-10
2.52553e-08
-4.67525e-10
-2.49563e-10
2.53029e-08
2.53192e-08
1.54522e-10
2.53169e-08
1.25429e-10
2.53506e-08
-5.01207e-10
-3.01199e-10
2.54023e-08
2.53985e-08
1.79484e-10
2.53932e-08
1.30716e-10
2.54266e-08
-5.34602e-10
-3.56492e-10
2.54819e-08
2.54624e-08
2.04089e-10
2.54537e-08
1.39428e-10
2.54866e-08
-5.67512e-10
-4.14952e-10
2.55451e-08
2.55149e-08
2.27528e-10
2.55024e-08
1.51953e-10
2.55343e-08
-5.99455e-10
-4.76687e-10
2.55961e-08
2.55578e-08
2.49765e-10
2.55417e-08
1.68075e-10
2.55722e-08
-6.30018e-10
-5.41148e-10
2.56367e-08
2.5594e-08
2.70021e-10
2.5575e-08
1.87026e-10
2.5605e-08
-6.59953e-10
-6.08355e-10
2.56722e-08
2.56246e-08
2.88065e-10
2.56041e-08
2.07511e-10
2.56328e-08
-6.88669e-10
-6.77035e-10
2.57014e-08
2.56525e-08
2.56312e-08
2.56653e-08
2.57349e-08
2.39483e-08
7.40381e-10
2.39608e-08
-2.04401e-10
2.39731e-08
-2.08061e-10
-1.4854e-10
2.42924e-08
7.76394e-10
2.43056e-08
-2.17671e-10
2.43167e-08
-2.19099e-10
-1.21859e-10
2.45759e-08
8.08403e-10
2.45896e-08
-2.31395e-10
2.45982e-08
-2.27714e-10
-8.87063e-11
2.48095e-08
8.37319e-10
2.48238e-08
-2.45684e-10
2.48309e-08
-2.34768e-10
-4.91676e-11
2.5e-08
8.63741e-10
2.50143e-08
-2.59968e-10
2.50195e-08
-2.39911e-10
-5.01464e-12
2.5155e-08
8.88034e-10
2.51697e-08
-2.74651e-10
2.51737e-08
-2.43867e-10
4.31889e-11
2.52803e-08
9.10653e-10
2.52947e-08
-2.89035e-10
2.5297e-08
-2.46153e-10
9.36343e-11
2.53809e-08
9.3201e-10
2.53954e-08
-3.03547e-10
2.53968e-08
-2.47491e-10
1.45767e-10
2.54618e-08
9.52161e-10
2.54756e-08
-3.17377e-10
2.54756e-08
-2.47509e-10
1.97903e-10
2.5526e-08
9.71172e-10
2.55396e-08
-3.30958e-10
2.55389e-08
-2.46813e-10
2.49826e-10
2.5578e-08
9.89226e-10
2.55904e-08
-3.43395e-10
2.55888e-08
-2.45146e-10
3.00251e-10
2.56191e-08
1.00677e-09
2.56307e-08
-3.54912e-10
2.56287e-08
-2.43148e-10
3.48892e-10
2.5654e-08
1.0249e-09
2.56631e-08
-3.63974e-10
2.56604e-08
-2.4048e-10
3.95082e-10
2.56824e-08
1.04388e-09
2.56889e-08
-3.70409e-10
2.56862e-08
-2.37838e-10
4.38717e-10
2.5707e-08
2.57098e-08
2.57087e-08
)
;

boundaryField
{
    topWall
    {
        type            calculated;
        value           nonuniform List<scalar> 0();
    }
    botWall
    {
        type            calculated;
        value           nonuniform List<scalar> 0();
    }
    inlet
    {
        type            cyclic;
        value           nonuniform List<scalar> 
15
(
-2.56681e-08
-2.56426e-08
-2.56142e-08
-2.558e-08
-2.55383e-08
-2.5487e-08
-2.54235e-08
-2.53446e-08
-2.52465e-08
-2.51255e-08
-2.49753e-08
-2.47913e-08
-2.45651e-08
-2.429e-08
-2.39581e-08
)
;
    }
    outlet
    {
        type            cyclic;
        value           nonuniform List<scalar> 
15
(
2.56681e-08
2.56426e-08
2.56142e-08
2.558e-08
2.55383e-08
2.5487e-08
2.54235e-08
2.53446e-08
2.52465e-08
2.51255e-08
2.49753e-08
2.47913e-08
2.45651e-08
2.429e-08
2.39581e-08
)
;
    }
    fixWall
    {
        type            empty;
        value           nonuniform List<scalar> 0();
    }
    procBoundary1to0
    {
        type            processor;
        value           nonuniform List<scalar> 8(1.59986e-11 -1.40881e-10 2.54462e-10 1.66245e-11 -6.99793e-10 1.92219e-10 1.95862e-10 1.64576e-10);
    }
    procBoundary1to2
    {
        type            processor;
        value           nonuniform List<scalar> 8(3.0435e-10 2.28712e-10 -7.22567e-10 -7.46874e-10 1.07049e-09 -3.71989e-10 -2.37611e-10 4.79829e-10);
    }
}


// ************************************************************************* //
