/*--------------------------------*- C++ -*----------------------------------*\
  =========                 |
  \\      /  F ield         | OpenFOAM: The Open Source CFD Toolbox
   \\    /   O peration     | Website:  https://openfoam.org
    \\  /    A nd           | Version:  dev
     \\/     M anipulation  |

   OpenFOAM for Windows 20.09 (v1)
   Built by CFD Support, www.cfdsupport.com (based on Symscape).
\*---------------------------------------------------------------------------*/
FoamFile
{
    version     2.0;
    format      ascii;
    class       volSymmTensorField;
    location    "6";
    object      devReff;
}
// * * * * * * * * * * * * * * * * * * * * * * * * * * * * * * * * * * * * * //

dimensions      [0 2 -2 0 0 0 0];

internalField   nonuniform List<symmTensor> 
120
(
(8.83423e-08 -0.000103757 -0 -4.4763e-08 -0 -4.35793e-08)
(7.07948e-08 -0.000103725 -0 -7.75089e-08 -0 6.71411e-09)
(-2.56125e-07 -0.000103929 -0 2.45347e-07 -0 1.07782e-08)
(-1.84915e-07 -0.000104501 -0 1.89057e-07 -0 -4.14207e-09)
(1.24644e-07 -8.55386e-05 -0 -1.00087e-07 -0 -2.45562e-08)
(6.34065e-08 -8.63125e-05 -0 -7.69942e-08 -0 1.35876e-08)
(-2.47118e-07 -8.61916e-05 -0 2.30313e-07 -0 1.68051e-08)
(-2.41197e-07 -8.66665e-05 -0 2.59888e-07 -0 -1.86913e-08)
(1.52555e-07 -7.05622e-05 -0 -1.23848e-07 -0 -2.87077e-08)
(5.95865e-08 -7.11427e-05 -0 -7.79392e-08 -0 1.83527e-08)
(-2.6589e-07 -7.08755e-05 -0 2.54189e-07 -0 1.17006e-08)
(-2.9965e-07 -7.16722e-05 -0 3.29072e-07 -0 -2.94215e-08)
(1.74636e-07 -5.79734e-05 -0 -1.54238e-07 -0 -2.03978e-08)
(6.61612e-08 -5.83667e-05 -0 -9.40712e-08 -0 2.79101e-08)
(-2.6597e-07 -5.79038e-05 -0 2.51561e-07 -0 1.44096e-08)
(-3.39098e-07 -5.88866e-05 -0 3.64643e-07 -0 -2.55455e-08)
(1.8949e-07 -4.74813e-05 -0 -1.59403e-07 -0 -3.00867e-08)
(5.66065e-08 -4.76339e-05 -0 -7.07984e-08 -0 1.41919e-08)
(-2.77413e-07 -4.70361e-05 -0 2.61242e-07 -0 1.61715e-08)
(-3.78801e-07 -4.81913e-05 -0 3.99425e-07 -0 -2.0624e-08)
(2.0511e-07 -3.87726e-05 -0 -1.82939e-07 -0 -2.21711e-08)
(6.24407e-08 -3.87299e-05 -0 -7.29625e-08 -0 1.05218e-08)
(-2.84353e-07 -3.79572e-05 -0 2.71159e-07 -0 1.31938e-08)
(-4.17739e-07 -3.91591e-05 -0 4.36729e-07 -0 -1.89896e-08)
(2.15405e-07 -3.16111e-05 -0 -1.87945e-07 -0 -2.74597e-08)
(8.14791e-08 -3.1359e-05 -0 -9.45538e-08 -0 1.30748e-08)
(-2.89853e-07 -3.04579e-05 -0 2.73372e-07 -0 1.64803e-08)
(-4.58946e-07 -3.16931e-05 -0 4.80331e-07 -0 -2.13856e-08)
(2.244e-07 -2.57505e-05 -0 -2.0467e-07 -0 -1.97302e-08)
(1.00849e-07 -2.54029e-05 -0 -1.12566e-07 -0 1.17173e-08)
(-2.93345e-07 -2.43309e-05 -0 2.7965e-07 -0 1.36947e-08)
(-4.92547e-07 -2.54973e-05 -0 5.11883e-07 -0 -1.93356e-08)
(2.24037e-07 -2.09836e-05 -0 -1.98732e-07 -0 -2.53054e-08)
(1.26361e-07 -2.05476e-05 -0 -1.38261e-07 -0 1.19e-08)
(-2.91029e-07 -1.9367e-05 -0 2.74365e-07 -0 1.66641e-08)
(-5.26948e-07 -2.04817e-05 -0 5.48681e-07 -0 -2.1733e-08)
(2.26641e-07 -1.71334e-05 -0 -2.10151e-07 -0 -1.64903e-08)
(1.49389e-07 -1.67199e-05 -0 -1.57079e-07 -0 7.68995e-09)
(-2.90193e-07 -1.54393e-05 -0 2.77416e-07 -0 1.27764e-08)
(-5.53157e-07 -1.64323e-05 -0 5.704e-07 -0 -1.72432e-08)
(2.12846e-07 -1.40628e-05 -0 -1.8749e-07 -0 -2.53568e-08)
(1.82133e-07 -1.36901e-05 -0 -1.94711e-07 -0 1.25785e-08)
(-2.76356e-07 -1.2473e-05 -0 2.56616e-07 -0 1.97409e-08)
(-5.85048e-07 -1.34158e-05 -0 6.08837e-07 -0 -2.37889e-08)
(2.08233e-07 -1.16207e-05 -0 -1.90959e-07 -0 -1.72736e-08)
(2.21162e-07 -1.14273e-05 -0 -2.4908e-07 -0 2.79182e-08)
(-2.8131e-07 -1.03766e-05 -0 2.70898e-07 -0 1.0412e-08)
(-6.1967e-07 -1.11226e-05 -0 6.53056e-07 -0 -3.33854e-08)
(1.95261e-07 -9.64027e-06 -0 -1.79665e-07 -0 -1.55964e-08)
(2.33896e-07 -9.72406e-06 -0 -2.58319e-07 -0 2.44223e-08)
(-2.69287e-07 -9.24427e-06 -0 2.54842e-07 -0 1.44451e-08)
(-6.29878e-07 -9.83243e-06 -0 6.58085e-07 -0 -2.8207e-08)
(1.73309e-07 -8.04958e-06 -0 -1.54439e-07 -0 -1.88693e-08)
(2.04583e-07 -8.53803e-06 -0 -2.0439e-07 -0 -1.92819e-10)
(-2.75314e-07 -8.92481e-06 -0 2.57609e-07 -0 1.77042e-08)
(-6.26699e-07 -9.09917e-06 -0 6.42758e-07 -0 -1.60584e-08)
(1.56857e-07 -6.14746e-06 -0 -1.42003e-07 -0 -1.48535e-08)
(1.65999e-07 -7.90274e-06 -0 -1.53476e-07 -0 -1.25232e-08)
(-2.97488e-07 -9.3725e-06 -0 2.94948e-07 -0 2.54069e-09)
(-6.02549e-07 -8.11503e-06 -0 6.04865e-07 -0 -2.31639e-09)
(2.76875e-07 -0.000107058 -0 -2.89e-07 -0 1.21253e-08)
(-7.62837e-08 -0.0001072 -0 8.26777e-08 -0 -6.39396e-09)
(-1.25089e-07 -0.000107104 -0 1.20411e-07 -0 4.67839e-09)
(1.71323e-07 -0.000106442 -0 -1.56063e-07 -0 -1.52598e-08)
(2.32688e-07 -8.8895e-05 -0 -2.45847e-07 -0 1.31583e-08)
(-8.58591e-08 -8.90423e-05 -0 9.8211e-08 -0 -1.23519e-08)
(-9.60641e-08 -8.91495e-05 -0 8.73213e-08 -0 8.74278e-09)
(2.23988e-07 -8.77868e-05 -0 -2.01782e-07 -0 -2.22062e-08)
(1.95394e-07 -7.36296e-05 -0 -2.07455e-07 -0 1.20604e-08)
(-9.36726e-08 -7.36054e-05 -0 1.09295e-07 -0 -1.56222e-08)
(-6.23296e-08 -7.38177e-05 -0 3.76523e-08 -0 2.46773e-08)
(3.18457e-07 -7.25119e-05 -0 -3.29868e-07 -0 1.14116e-08)
(1.67946e-07 -6.05678e-05 -0 -1.83117e-07 -0 1.51713e-08)
(-9.19253e-08 -6.04708e-05 -0 1.04412e-07 -0 -1.24862e-08)
(-4.57826e-08 -6.07365e-05 -0 2.41367e-08 -0 2.16459e-08)
(3.88679e-07 -5.95139e-05 -0 -4.22619e-07 -0 3.39392e-08)
(1.46786e-07 -4.96212e-05 -0 -1.65458e-07 -0 1.86722e-08)
(-9.79018e-08 -4.94539e-05 -0 1.12514e-07 -0 -1.46122e-08)
(-3.5202e-08 -4.96858e-05 -0 1.62987e-08 -0 1.89034e-08)
(3.99416e-07 -4.85997e-05 -0 -3.99781e-07 -0 3.64336e-10)
(1.19352e-07 -4.03708e-05 -0 -1.30504e-07 -0 1.11522e-08)
(-9.4424e-08 -4.02031e-05 -0 1.07679e-07 -0 -1.32546e-08)
(-2.32607e-08 -4.03775e-05 -0 8.58724e-09 -0 1.46734e-08)
(4.26017e-07 -3.94305e-05 -0 -4.24034e-07 -0 -1.98286e-09)
(1.06626e-07 -3.27283e-05 -0 -1.22522e-07 -0 1.58961e-08)
(-9.58571e-08 -3.25545e-05 -0 1.08656e-07 -0 -1.27986e-08)
(-9.88134e-09 -3.26443e-05 -0 -7.49902e-09 -0 1.73804e-08)
(4.5329e-07 -3.18676e-05 -0 -4.54365e-07 -0 1.07541e-09)
(9.02076e-08 -2.64009e-05 -0 -1.03569e-07 -0 1.33614e-08)
(-9.1348e-08 -2.62098e-05 -0 1.04805e-07 -0 -1.34569e-08)
(2.6591e-09 -2.62105e-05 -0 -1.92551e-08 -0 1.6596e-08)
(4.59622e-07 -2.56038e-05 -0 -4.57273e-07 -0 -2.34922e-09)
(8.00856e-08 -2.12935e-05 -0 -9.5916e-08 -0 1.58304e-08)
(-8.99619e-08 -2.10617e-05 -0 1.0372e-07 -0 -1.3758e-08)
(9.4167e-09 -2.09667e-05 -0 -2.47378e-08 -0 1.53211e-08)
(4.66745e-07 -2.05258e-05 -0 -4.66533e-07 -0 -2.12628e-10)
(7.13847e-08 -1.71708e-05 -0 -8.80229e-08 -0 1.66382e-08)
(-7.81666e-08 -1.68584e-05 -0 8.98593e-08 -0 -1.16927e-08)
(2.37865e-08 -1.66715e-05 -0 -4.24818e-08 -0 1.86952e-08)
(4.58395e-07 -1.6397e-05 -0 -4.56101e-07 -0 -2.29421e-09)
(5.79799e-08 -1.40399e-05 -0 -6.87537e-08 -0 1.07738e-08)
(-7.56452e-08 -1.3532e-05 -0 9.22711e-08 -0 -1.66259e-08)
(2.52908e-08 -1.32563e-05 -0 -3.98935e-08 -0 1.46027e-08)
(4.43762e-07 -1.31744e-05 -0 -4.36801e-07 -0 -6.96161e-09)
(5.63424e-08 -1.16505e-05 -0 -6.46953e-08 -0 8.35282e-09)
(-5.28921e-08 -1.09502e-05 -0 6.59733e-08 -0 -1.30812e-08)
(3.72837e-08 -1.05042e-05 -0 -5.63414e-08 -0 1.90576e-08)
(4.38994e-07 -1.06225e-05 -0 -4.45136e-07 -0 6.1416e-09)
(6.12966e-08 -1.00438e-05 -0 -7.25817e-08 -0 1.12852e-08)
(-3.47833e-08 -8.99301e-06 -0 4.93044e-08 -0 -1.45211e-08)
(4.66027e-08 -8.39734e-06 -0 -7.0342e-08 -0 2.37393e-08)
(4.17034e-07 -8.74169e-06 -0 -4.21608e-07 -0 4.57414e-09)
(9.92689e-08 -8.95646e-06 -0 -1.25542e-07 -0 2.62732e-08)
(-1.73395e-10 -7.63234e-06 -0 1.59394e-08 -0 -1.5766e-08)
(3.63807e-08 -6.75649e-06 -0 -4.49173e-08 -0 8.53658e-09)
(3.78328e-07 -7.38306e-06 -0 -3.66385e-07 -0 -1.19439e-08)
(1.16372e-07 -8.22274e-06 -0 -1.36867e-07 -0 2.0495e-08)
(4.75848e-08 -7.54145e-06 -0 -4.15893e-08 -0 -5.99552e-09)
(4.55532e-08 -6.10693e-06 -0 -5.86643e-08 -0 1.31112e-08)
(3.68219e-07 -6.25625e-06 -0 -3.68308e-07 -0 8.93889e-11)
)
;

boundaryField
{
    topWall
    {
        type            calculated;
        value           nonuniform List<symmTensor> 0();
    }
    botWall
    {
        type            calculated;
        value           nonuniform List<symmTensor> 0();
    }
    inlet
    {
        type            cyclic;
    }
    outlet
    {
        type            cyclic;
    }
    fixWall
    {
        type            empty;
    }
    procBoundary1to0
    {
        type            processor;
        value           nonuniform List<symmTensor> 8((2.80936e-08 -0.000124873 -0 2.10534e-09 -0 -3.0199e-08) (6.14323e-08 -0.000124259 -0 -6.62526e-08 -0 4.82024e-09) (-2.24043e-07 -0.000124728 -0 2.09066e-07 -0 1.49768e-08) (-1.39039e-07 -0.000125425 -0 1.59251e-07 -0 -2.02117e-08) (3.26492e-07 -0.000128049 -0 -3.41415e-07 -0 1.49227e-08) (-8.7281e-08 -0.000128083 -0 1.02282e-07 -0 -1.50012e-08) (-1.2103e-07 -0.000127994 -0 1.11218e-07 -0 9.81219e-09) (1.12691e-07 -0.000127885 -0 -9.08874e-08 -0 -2.1804e-08));
    }
    procBoundary1to2
    {
        type            processor;
        value           nonuniform List<symmTensor> 8((1.25466e-07 -5.54124e-06 -0 -1.14347e-07 -0 -1.11191e-08) (8.25037e-08 -7.94178e-06 -0 -6.95982e-08 -0 -1.29055e-08) (-2.79893e-07 -9.76851e-06 -0 2.62223e-07 -0 1.76708e-08) (-5.58237e-07 -7.86482e-06 -0 5.46868e-07 -0 1.13694e-08) (9.91248e-08 -7.98073e-06 -0 -1.09246e-07 -0 1.01208e-08) (8.85467e-08 -7.6954e-06 -0 -9.05194e-08 -0 1.97273e-09) (6.66241e-08 -6.01574e-06 -0 -6.12729e-08 -0 -5.35119e-09) (3.73098e-07 -5.77106e-06 -0 -3.58572e-07 -0 -1.4526e-08));
    }
}


// ************************************************************************* //
