/*--------------------------------*- C++ -*----------------------------------*\
  =========                 |
  \\      /  F ield         | OpenFOAM: The Open Source CFD Toolbox
   \\    /   O peration     | Website:  https://openfoam.org
    \\  /    A nd           | Version:  dev
     \\/     M anipulation  |

   OpenFOAM for Windows 20.09 (v1)
   Built by CFD Support, www.cfdsupport.com (based on Symscape).
\*---------------------------------------------------------------------------*/
FoamFile
{
    version     2.0;
    format      ascii;
    class       volScalarField;
    location    "6";
    object      epsilon;
}
// * * * * * * * * * * * * * * * * * * * * * * * * * * * * * * * * * * * * * //

dimensions      [0 2 -3 0 0 0 0];

internalField   nonuniform List<scalar> 
120
(
1.82515e-15
1.82508e-15
1.82508e-15
1.82526e-15
1.60216e-15
1.60209e-15
1.60209e-15
1.60226e-15
1.41827e-15
1.41819e-15
1.4182e-15
1.41836e-15
1.26499e-15
1.26491e-15
1.26493e-15
1.26508e-15
1.13605e-15
1.13596e-15
1.13598e-15
1.13613e-15
1.0267e-15
1.02661e-15
1.02663e-15
1.02677e-15
9.33325e-16
9.33228e-16
9.33258e-16
9.33387e-16
8.53113e-16
8.53013e-16
8.53045e-16
8.53166e-16
7.83858e-16
7.83755e-16
7.8379e-16
7.83902e-16
7.23808e-16
7.23704e-16
7.2374e-16
7.23844e-16
6.71559e-16
6.71454e-16
6.7149e-16
6.71587e-16
6.25972e-16
6.25866e-16
6.25903e-16
6.25992e-16
5.86118e-16
5.86011e-16
5.86048e-16
5.86129e-16
5.51231e-16
5.51123e-16
5.5116e-16
5.51235e-16
5.20675e-16
5.20565e-16
5.20602e-16
5.20672e-16
1.82533e-15
1.82511e-15
1.82503e-15
1.82507e-15
1.60233e-15
1.60212e-15
1.60204e-15
1.60209e-15
1.41843e-15
1.41823e-15
1.41815e-15
1.41821e-15
1.26514e-15
1.26495e-15
1.26487e-15
1.26494e-15
1.13619e-15
1.136e-15
1.13593e-15
1.136e-15
1.02682e-15
1.02665e-15
1.02658e-15
1.02666e-15
9.33437e-16
9.33274e-16
9.33211e-16
9.33292e-16
8.53212e-16
8.53059e-16
8.53e-16
8.53084e-16
7.83944e-16
7.83801e-16
7.83747e-16
7.83831e-16
7.23881e-16
7.23749e-16
7.237e-16
7.23784e-16
6.71619e-16
6.71498e-16
6.71453e-16
6.71535e-16
6.2602e-16
6.25908e-16
6.25869e-16
6.25948e-16
5.86153e-16
5.86051e-16
5.86016e-16
5.86093e-16
5.51253e-16
5.51161e-16
5.51131e-16
5.51203e-16
5.20684e-16
5.20601e-16
5.20575e-16
5.20644e-16
)
;

boundaryField
{
    topWall
    {
        type            epsilonWallFunction;
        value           nonuniform List<scalar> 0();
    }
    botWall
    {
        type            epsilonWallFunction;
        value           nonuniform List<scalar> 0();
    }
    inlet
    {
        type            cyclic;
    }
    outlet
    {
        type            cyclic;
    }
    fixWall
    {
        type            empty;
    }
    procBoundary1to0
    {
        type            processor;
        value           nonuniform List<scalar> 8(2.09887e-15 2.09882e-15 2.09881e-15 2.09899e-15 2.09906e-15 2.09884e-15 2.09876e-15 2.09879e-15);
    }
    procBoundary1to2
    {
        type            processor;
        value           nonuniform List<scalar> 8(4.93224e-16 4.93116e-16 4.93148e-16 4.93212e-16 4.93223e-16 4.93148e-16 4.93125e-16 4.9319e-16);
    }
}


// ************************************************************************* //
