/*--------------------------------*- C++ -*----------------------------------*\
  =========                 |
  \\      /  F ield         | OpenFOAM: The Open Source CFD Toolbox
   \\    /   O peration     | Website:  https://openfoam.org
    \\  /    A nd           | Version:  dev
     \\/     M anipulation  |

   OpenFOAM for Windows 20.09 (v1)
   Built by CFD Support, www.cfdsupport.com (based on Symscape).
\*---------------------------------------------------------------------------*/
FoamFile
{
    version     2.0;
    format      ascii;
    class       volTensorField;
    location    "6";
    object      gradU;
}
// * * * * * * * * * * * * * * * * * * * * * * * * * * * * * * * * * * * * * //

dimensions      [0 0 -1 0 0 0 0];

internalField   nonuniform List<tensor> 
120
(
(-0.000349592 6.44147e-05 0 0.549847 3.13663e-06 0 0 0 0)
(-0.000169814 1.78758e-05 0 0.549724 0.000223191 0 0 0 0)
(0.000707295 -0.000101998 0 0.550927 -0.000621608 0 0 0 0)
(0.000479049 0.000173553 0 0.553683 -0.000511979 0 0 0 0)
(-0.00039538 6.3612e-05 0 0.453291 0.000200158 0 0 0 0)
(-0.00013202 7.59303e-06 0 0.457449 0.000240042 0 0 0 0)
(0.000699396 -0.000108131 0 0.456924 -0.000565796 0 0 0 0)
(0.00058964 0.000184624 0 0.459148 -0.000738236 0 0 0 0)
(-0.000480347 6.04841e-05 0 0.373919 0.000252121 0 0 0 0)
(-0.00010927 5.10995e-06 0 0.377051 0.000255174 0 0 0 0)
(0.000735614 -0.000118303 0 0.375758 -0.000642594 0 0 0 0)
(0.000716105 0.000194422 0 0.379668 -0.000950007 0 0 0 0)
(-0.00051684 5.27917e-05 0 0.307206 0.000354678 0 0 0 0)
(-0.000101365 -7.31889e-06 0 0.309351 0.00032325 0 0 0 0)
(0.000743007 -0.000128217 0 0.307018 -0.000628451 0 0 0 0)
(0.000830913 0.000205029 0 0.311894 -0.001034 0 0 0 0)
(-0.000581878 4.5707e-05 0 0.251605 0.000342689 0 0 0 0)
(-0.000112399 -1.12755e-05 0 0.252471 0.000225224 0 0 0 0)
(0.000778 -0.000140924 0 0.249432 -0.000649436 0 0 0 0)
(0.000949169 0.000213654 0 0.2552 -0.00111313 0 0 0 0)
(-0.000602294 3.88724e-05 0 0.205456 0.000426034 0 0 0 0)
(-0.000137585 -2.38543e-05 0 0.205292 0.000221233 0 0 0 0)
(0.000788498 -0.000150523 0 0.201324 -0.000683608 0 0 0 0)
(0.00105669 0.000223986 0 0.207319 -0.00120765 0 0 0 0)
(-0.000643592 3.07536e-05 0 0.167508 0.000425287 0 0 0 0)
(-0.000181271 -2.97695e-05 0 0.166233 0.000285216 0 0 0 0)
(0.000811782 -0.000164738 0 0.161591 -0.000680764 0 0 0 0)
(0.00115953 0.000231304 0 0.167742 -0.00132955 0 0 0 0)
(-0.000646945 2.35107e-05 0 0.136454 0.00049009 0 0 0 0)
(-0.000236199 -4.22885e-05 0 0.134678 0.000329352 0 0 0 0)
(0.000813655 -0.000177436 0 0.129131 -0.000704782 0 0 0 0)
(0.00125401 0.000241445 0 0.134894 -0.00140773 0 0 0 0)
(-0.000660757 1.61504e-05 0 0.111197 0.00045958 0 0 0 0)
(-0.000303322 -4.96841e-05 0 0.108952 0.000397927 0 0 0 0)
(0.000815387 -0.00019369 0 0.102839 -0.000682908 0 0 0 0)
(0.00133882 0.000248215 0 0.108305 -0.0015116 0 0 0 0)
(-0.000644298 9.54697e-06 0 0.0907972 0.0005132 0 0 0 0)
(-0.000375501 -6.13299e-05 0 0.0886771 0.000436636 0 0 0 0)
(0.000802868 -0.000209261 0 0.0820374 -0.000701296 0 0 0 0)
(0.00142017 0.000257763 0 0.0868333 -0.00155726 0 0 0 0)
(-0.000631238 3.38452e-06 0 0.0745295 0.000429652 0 0 0 0)
(-0.000449318 -6.99257e-05 0 0.0726274 0.000549318 0 0 0 0)
(0.000784658 -0.000226921 0 0.0663338 -0.000627718 0 0 0 0)
(0.00148734 0.000264526 0 0.0708391 -0.00167646 0 0 0 0)
(-0.000597592 -2.82291e-07 0 0.0615898 0.000460267 0 0 0 0)
(-0.000512096 -7.89528e-05 0 0.0606439 0.000734045 0 0 0 0)
(0.000773064 -0.000246358 0 0.0552425 -0.000690288 0 0 0 0)
(0.00155366 0.000271737 0 0.0586779 -0.00181907 0 0 0 0)
(-0.000558773 -4.3128e-06 0 0.0510977 0.000434781 0 0 0 0)
(-0.000555107 -8.91016e-05 0 0.0516266 0.000749264 0 0 0 0)
(0.000751891 -0.000269473 0 0.0492641 -0.000637052 0 0 0 0)
(0.00159443 0.000279257 0 0.0518326 -0.00181867 0 0 0 0)
(-0.000509272 -6.6176e-06 0 0.0426694 0.000359261 0 0 0 0)
(-0.000542657 -9.68167e-05 0 0.0453484 0.000541124 0 0 0 0)
(0.000776497 -0.000289157 0 0.0475907 -0.000635749 0 0 0 0)
(0.0016182 0.000286059 0 0.0479395 -0.00174586 0 0 0 0)
(-0.000455032 -1.09485e-05 0 0.0325925 0.000336946 0 0 0 0)
(-0.000473085 -0.000105685 0 0.0419902 0.000373526 0 0 0 0)
(0.000795077 -0.00030759 0 0.0499818 -0.000774878 0 0 0 0)
(0.00159062 0.000296558 0 0.0427131 -0.00160903 0 0 0 0)
(-0.000701587 -5.37946e-06 0 0.567412 0.000797983 0 0 0 0)
(0.000185208 -0.000158553 0 0.568318 -0.00023604 0 0 0 0)
(0.000343885 4.2963e-05 0 0.567607 -0.000306691 0 0 0 0)
(-0.000494443 -3.28764e-05 0 0.564178 0.000373127 0 0 0 0)
(-0.000581755 -3.34566e-06 0 0.471147 0.000686363 0 0 0 0)
(0.000194794 -0.000168392 0 0.472093 -0.000292992 0 0 0 0)
(0.000277738 4.78647e-05 0 0.472444 -0.000208233 0 0 0 0)
(-0.000652414 -2.38255e-05 0 0.465294 0.000475875 0 0 0 0)
(-0.000485835 2.04127e-06 0 0.390235 0.000581715 0 0 0 0)
(0.000206833 -0.000173463 0 0.390282 -0.00033103 0 0 0 0)
(0.000230568 5.57774e-05 0 0.391178 -3.43838e-05 0 0 0 0)
(-0.000813669 -2.60699e-05 0 0.384339 0.000904391 0 0 0 0)
(-0.000404853 6.97061e-06 0 0.321002 0.000525464 0 0 0 0)
(0.000210514 -0.00017866 0 0.320674 -0.000309779 0 0 0 0)
(0.000178686 6.84551e-05 0 0.321835 -6.6006e-06 0 0 0 0)
(-0.000940061 -1.90504e-05 0 0.315442 0.00120988 0 0 0 0)
(-0.000339501 1.41116e-05 0 0.262978 0.000487945 0 0 0 0)
(0.000220717 -0.00018233 0 0.262288 -0.000336885 0 0 0 0)
(0.000143379 8.1105e-05 0 0.263254 6.90236e-06 0 0 0 0)
(-0.00105749 -2.00486e-05 0 0.257598 0.00106038 0 0 0 0)
(-0.000286729 1.9908e-05 0 0.213946 0.000375389 0 0 0 0)
(0.000215099 -0.000186678 0 0.213263 -0.000320473 0 0 0 0)
(0.000100525 9.17429e-05 0 0.213909 1.61284e-05 0 0 0 0)
(-0.0011342 -1.3454e-05 0 0.208995 0.00111844 0 0 0 0)
(-0.000240434 2.88979e-05 0 0.173431 0.000366808 0 0 0 0)
(0.000220105 -0.000188318 0 0.172727 -0.000321854 0 0 0 0)
(7.22435e-05 0.000105087 0 0.17291 6.59304e-05 0 0 0 0)
(-0.00119837 -1.32168e-05 0 0.168912 0.00120692 0 0 0 0)
(-0.000203642 3.6703e-05 0 0.139888 0.000309866 0 0 0 0)
(0.000206411 -0.000191692 0 0.139104 -0.000313394 0 0 0 0)
(3.69328e-05 0.000117222 0 0.138798 9.50054e-05 0 0 0 0)
(-0.00122422 -7.4647e-06 0 0.135708 0.00120555 0 0 0 0)
(-0.000170276 4.71369e-05 0 0.112808 0.000296128 0 0 0 0)
(0.00020194 -0.000191899 0 0.111819 -0.000311316 0 0 0 0)
(1.56466e-05 0.000130403 0 0.110993 0.000106156 0 0 0 0)
(-0.00123744 -6.63206e-06 0 0.108793 0.00123575 0 0 0 0)
(-0.000145078 5.67076e-05 0 0.0909484 0.000277352 0 0 0 0)
(0.000176156 -0.000194858 0 0.0895441 -0.000269113 0 0 0 0)
(-1.3492e-05 0.000143007 0 0.0882161 0.000162119 0 0 0 0)
(-0.00122083 -1.5743e-06 0 0.0869059 0.00120259 0 0 0 0)
(-0.000125096 6.86059e-05 0 0.0743429 0.000210748 0 0 0 0)
(0.000156401 -0.00019382 0 0.0719134 -0.000288577 0 0 0 0)
(-2.83236e-05 0.000154931 0 0.0701034 0.000144415 0 0 0 0)
(-0.00119442 -7.8071e-07 0 0.069825 0.00113907 0 0 0 0)
(-0.000127172 7.9839e-05 0 0.0616681 0.000193577 0 0 0 0)
(0.000105499 -0.000195964 0 0.0582318 -0.000209494 0 0 0 0)
(-4.82992e-05 0.000166801 0 0.0555057 0.000199807 0 0 0 0)
(-0.00114706 3.17965e-06 0 0.0562959 0.00119588 0 0 0 0)
(-0.00013253 9.54321e-05 0 0.0531367 0.000222247 0 0 0 0)
(5.36949e-05 -0.000193716 0 0.0478567 -0.000169138 0 0 0 0)
(-6.05882e-05 0.000178354 0 0.0443275 0.000249316 0 0 0 0)
(-0.00109302 3.56029e-06 0 0.0463274 0.00112938 0 0 0 0)
(-0.000193439 0.000107331 0 0.0473619 0.000402311 0 0 0 0)
(-4.13204e-05 -0.000195513 0 0.0406469 -8.40193e-05 0 0 0 0)
(-7.3787e-05 0.000188443 0 0.0356209 0.000141653 0 0 0 0)
(-0.00103422 6.27074e-06 0 0.0391239 0.000939268 0 0 0 0)
(-0.000254074 0.00012313 0 0.0434574 0.000417009 0 0 0 0)
(-0.000141988 -0.00019806 0 0.0401678 9.43236e-05 0 0 0 0)
(-8.59714e-05 0.000195409 0 0.0321713 0.000190205 0 0 0 0)
(-0.000975543 7.18709e-06 0 0.0331509 0.000976254 0 0 0 0)
)
;

boundaryField
{
    topWall
    {
        type            extrapolatedCalculated;
        value           nonuniform List<tensor> 0();
    }
    botWall
    {
        type            extrapolatedCalculated;
        value           nonuniform List<tensor> 0();
    }
    inlet
    {
        type            cyclic;
    }
    outlet
    {
        type            cyclic;
    }
    fixWall
    {
        type            empty;
    }
    procBoundary1to0
    {
        type            processor;
        value           nonuniform List<tensor> 8((-0.000154475 6.61109e-05 0 0.661761 -8.56064e-05 0 0 0 0) (-0.000150022 1.80054e-05 0 0.658556 0.000188343 0 0 0 0) (0.000633402 -9.58782e-05 0 0.661155 -0.000514337 0 0 0 0) (0.000314894 0.000160964 0 0.664591 -0.000475577 0 0 0 0) (-0.000825659 -7.94464e-06 0 0.678666 0.000944295 0 0 0 0) (0.000191541 -0.000149981 0 0.67899 -0.000310801 0 0 0 0) (0.000346733 3.77119e-05 0 0.678329 -0.000268726 0 0 0 0) (-0.000356413 -2.89893e-05 0 0.677818 0.000183071 0 0 0 0));
    }
    procBoundary1to2
    {
        type            processor;
        value           nonuniform List<tensor> 8((-0.00036195 -1.66631e-05 0 0.0293852 0.000273553 0 0 0 0) (-0.000252834 -0.000115347 0 0.0422068 0.000150236 0 0 0 0) (0.000788545 -0.000322199 0 0.0520953 -0.000648062 0 0 0 0) (0.00150946 0.000305923 0 0.0413776 -0.00141907 0 0 0 0) (-0.000235861 0.000135721 0 0.0421621 0.000316321 0 0 0 0) (-0.000229421 -0.000199293 0 0.0409849 0.000245104 0 0 0 0) (-0.000190734 0.000203142 0 0.0316803 0.000148192 0 0 0 0) (-0.0010272 8.71643e-06 0 0.0305779 0.000911721 0 0 0 0));
    }
}


// ************************************************************************* //
