/*--------------------------------*- C++ -*----------------------------------*\
  =========                 |
  \\      /  F ield         | OpenFOAM: The Open Source CFD Toolbox
   \\    /   O peration     | Website:  https://openfoam.org
    \\  /    A nd           | Version:  dev
     \\/     M anipulation  |

   OpenFOAM for Windows 20.09 (v1)
   Built by CFD Support, www.cfdsupport.com (based on Symscape).
\*---------------------------------------------------------------------------*/
FoamFile
{
    version     2.0;
    format      ascii;
    class       volVectorField;
    location    "6";
    object      gradp_rgh;
}
// * * * * * * * * * * * * * * * * * * * * * * * * * * * * * * * * * * * * * //

dimensions      [1 -2 -2 0 0 0 0];

internalField   nonuniform List<vector> 
120
(
(-1.26304 -0.662519 0)
(-1.32975 -0.333209 0)
(-1.27111 -0.268456 0)
(-1.25388 -0.13182 0)
(-1.27538 -1.4278 0)
(-1.3161 -1.04797 0)
(-1.26134 -0.496298 0)
(-1.24562 -0.430601 0)
(-1.27534 -0.207085 0)
(-1.31422 -0.0580345 0)
(-1.26082 -0.00734409 0)
(-1.24565 -0.00185654 0)
(-1.27517 -0.188904 0)
(-1.31277 -0.059374 0)
(-1.2604 -0.00808227 0)
(-1.24564 0.00503725 0)
(-1.27512 -0.186431 0)
(-1.31121 -0.0603553 0)
(-1.25975 -0.00871366 0)
(-1.24558 0.0110953 0)
(-1.27496 -0.175564 0)
(-1.30981 -0.053944 0)
(-1.25921 -0.00905279 0)
(-1.24549 0.0160073 0)
(-1.2748 -0.172946 0)
(-1.30843 -0.0549308 0)
(-1.25858 -0.0065903 0)
(-1.24542 0.0152104 0)
(-1.27466 -0.166392 0)
(-1.30704 -0.0523376 0)
(-1.25804 -0.0121359 0)
(-1.24544 0.00967231 0)
(-1.27449 -0.164751 0)
(-1.30586 -0.0545528 0)
(-1.25755 -0.0154418 0)
(-1.24526 0.0102201 0)
(-1.2743 -0.166479 0)
(-1.30455 -0.0588269 0)
(-1.25696 -0.0106824 0)
(-1.24516 0.0105516 0)
(-1.27417 -0.163227 0)
(-1.30327 -0.0575881 0)
(-1.25639 -0.0106843 0)
(-1.24506 0.0262378 0)
(-1.27404 -0.161107 0)
(-1.30201 -0.0579937 0)
(-1.25557 -0.0118058 0)
(-1.24481 0.0249904 0)
(-1.27392 -0.159177 0)
(-1.30078 -0.05978 0)
(-1.25501 -0.0127339 0)
(-1.24491 0.00407936 0)
(-1.27382 1.35342 0)
(-1.29956 1.82189 0)
(-1.2545 1.34201 0)
(-1.24479 0.0774471 0)
(-1.25713 0.571875 0)
(-1.30097 1.57624 0)
(-1.28408 1.07366 0)
(-1.25633 0.179312 0)
(-1.24725 -0.278941 0)
(-1.22757 -0.00212307 0)
(-1.2186 -0.166655 0)
(-1.18881 0.0457942 0)
(-1.24639 -0.00297304 0)
(-1.23571 -0.379098 0)
(-1.21689 -0.511793 0)
(-1.20257 -0.309566 0)
(-1.24639 -0.00860312 0)
(-1.23605 -0.00305681 0)
(-1.21744 -0.0440323 0)
(-1.20407 -0.0705931 0)
(-1.24641 -0.00336823 0)
(-1.2363 -0.00319987 0)
(-1.21802 -0.0304326 0)
(-1.20529 -0.0727702 0)
(-1.24653 -4.17722e-05 0)
(-1.2365 0.000207255 0)
(-1.2186 -0.0245574 0)
(-1.20672 -0.0728646 0)
(-1.24659 0.000282315 0)
(-1.23671 -9.02032e-05 0)
(-1.21924 -0.0245738 0)
(-1.20799 -0.0730911 0)
(-1.2468 -0.00322747 0)
(-1.23691 -0.00440313 0)
(-1.21982 -0.0240967 0)
(-1.20923 -0.0731395 0)
(-1.24692 -0.00270886 0)
(-1.23706 -0.00453257 0)
(-1.22038 -0.027071 0)
(-1.21047 -0.0708992 0)
(-1.24704 0.00105578 0)
(-1.23732 -0.00432549 0)
(-1.22092 -0.028135 0)
(-1.21155 -0.0755764 0)
(-1.24716 0.00142514 0)
(-1.23755 -0.00449692 0)
(-1.22157 -0.02587 0)
(-1.21274 -0.0779437 0)
(-1.24729 0.0104896 0)
(-1.23778 0.00126086 0)
(-1.22215 -0.0259999 0)
(-1.2139 -0.0734191 0)
(-1.24758 -0.00258118 0)
(-1.23815 0.000582707 0)
(-1.22282 -0.0263931 0)
(-1.21503 -0.0733635 0)
(-1.24769 -0.0112491 0)
(-1.23817 -0.0126236 0)
(-1.22338 -0.0267507 0)
(-1.21614 -0.0733054 0)
(-1.24786 0.656367 0)
(-1.23841 0.00544891 0)
(-1.22383 0.975748 0)
(-1.21724 0.814789 0)
(-1.24889 0.131807 0)
(-1.23285 0.285445 0)
(-1.20989 0.546849 0)
(-1.20985 0.110963 0)
)
;

boundaryField
{
    topWall
    {
        type            extrapolatedCalculated;
        value           nonuniform List<vector> 0();
    }
    botWall
    {
        type            extrapolatedCalculated;
        value           nonuniform List<vector> 0();
    }
    inlet
    {
        type            cyclic;
    }
    outlet
    {
        type            cyclic;
    }
    fixWall
    {
        type            empty;
    }
    procBoundary1to0
    {
        type            processor;
        value           nonuniform List<vector> 8((-1.26906 0.560479 0) (-1.32267 0.669982 0) (-1.2647 0.226349 0) (-1.24544 0.296676 0) (-1.24855 0.209454 0) (-1.23758 0.37343 0) (-1.21769 0.313106 0) (-1.19431 0.378856 0));
    }
    procBoundary1to2
    {
        type            processor;
        value           nonuniform List<vector> 8((-1.24939 -0.95818 0) (-1.2912 -0.366948 0) (-1.27778 -0.312885 0) (-1.26048 -0.798429 0) (-1.24609 -0.512498 0) (-1.2315 -0.589972 0) (-1.22673 -0.474213 0) (-1.21682 -0.787353 0));
    }
}


// ************************************************************************* //
