/*--------------------------------*- C++ -*----------------------------------*\
  =========                 |
  \\      /  F ield         | OpenFOAM: The Open Source CFD Toolbox
   \\    /   O peration     | Website:  https://openfoam.org
    \\  /    A nd           | Version:  dev
     \\/     M anipulation  |

   OpenFOAM for Windows 20.09 (v1)
   Built by CFD Support, www.cfdsupport.com (based on Symscape).
\*---------------------------------------------------------------------------*/
FoamFile
{
    version     2.0;
    format      ascii;
    class       volVectorField;
    location    "6";
    object      gradp;
}
// * * * * * * * * * * * * * * * * * * * * * * * * * * * * * * * * * * * * * //

dimensions      [1 -2 -2 0 0 0 0];

internalField   nonuniform List<vector> 
120
(
(3.7368 -98.7565 0)
(-1.32959 -98.4295 0)
(-1.2708 -98.3652 0)
(-1.25372 -98.2336 0)
(3.72463 -99.5118 0)
(-1.31611 -99.1348 0)
(-1.26134 -98.5896 0)
(-1.24562 -98.5365 0)
(3.72466 -98.3076 0)
(-1.31422 -98.1582 0)
(-1.26082 -98.1071 0)
(-1.24565 -98.1016 0)
(3.72483 -98.2889 0)
(-1.31277 -98.1593 0)
(-1.2604 -98.1078 0)
(-1.24564 -98.0946 0)
(3.72488 -98.2861 0)
(-1.31121 -98.16 0)
(-1.25975 -98.1083 0)
(-1.24557 -98.0884 0)
(3.72504 -98.2751 0)
(-1.30981 -98.1535 0)
(-1.25921 -98.1087 0)
(-1.24549 -98.0836 0)
(3.7252 -98.2724 0)
(-1.30843 -98.1544 0)
(-1.25858 -98.1063 0)
(-1.24542 -98.0846 0)
(3.72535 -98.266 0)
(-1.30704 -98.152 0)
(-1.25804 -98.1121 0)
(-1.24544 -98.0904 0)
(3.72551 -98.2646 0)
(-1.30587 -98.1544 0)
(-1.25755 -98.1157 0)
(-1.24527 -98.0902 0)
(3.7257 -98.2666 0)
(-1.30456 -98.159 0)
(-1.25697 -98.1112 0)
(-1.24517 -98.09 0)
(3.72583 -98.2638 0)
(-1.30328 -98.1583 0)
(-1.2564 -98.1115 0)
(-1.24506 -98.0744 0)
(3.72596 -98.2618 0)
(-1.30202 -98.1586 0)
(-1.25557 -98.112 0)
(-1.24481 -98.075 0)
(3.72608 -98.2599 0)
(-1.30078 -98.1603 0)
(-1.25501 -98.113 0)
(-1.24491 -98.0957 0)
(3.72619 -96.7852 0)
(-1.29957 -96.3262 0)
(-1.2545 -96.7927 0)
(-1.24477 -98.0451 0)
(3.74245 -97.5472 0)
(-1.30091 -96.5669 0)
(-1.28366 -97.0548 0)
(-1.25546 -97.9462 0)
(-1.24744 -98.3849 0)
(-1.2275 -98.1021 0)
(-1.21857 -98.2686 0)
(3.81082 -98.0555 0)
(-1.24639 -98.1054 0)
(-1.23572 -98.4738 0)
(-1.21689 -98.6181 0)
(3.79744 -98.4061 0)
(-1.24639 -98.1085 0)
(-1.23605 -98.1026 0)
(-1.21744 -98.1437 0)
(3.79593 -98.1702 0)
(-1.24641 -98.1031 0)
(-1.2363 -98.1029 0)
(-1.21802 -98.1302 0)
(3.79471 -98.1725 0)
(-1.24653 -98.0997 0)
(-1.2365 -98.0995 0)
(-1.2186 -98.1243 0)
(3.79328 -98.1727 0)
(-1.24659 -98.0996 0)
(-1.23671 -98.1 0)
(-1.21924 -98.1244 0)
(3.79201 -98.1729 0)
(-1.2468 -98.1032 0)
(-1.23691 -98.1045 0)
(-1.21982 -98.124 0)
(3.79077 -98.1729 0)
(-1.24692 -98.1029 0)
(-1.23706 -98.1048 0)
(-1.22038 -98.1271 0)
(3.78954 -98.1707 0)
(-1.24704 -98.0993 0)
(-1.23732 -98.1046 0)
(-1.22092 -98.1282 0)
(3.78845 -98.1756 0)
(-1.24716 -98.0989 0)
(-1.23754 -98.1048 0)
(-1.22156 -98.126 0)
(3.78727 -98.1782 0)
(-1.24729 -98.0899 0)
(-1.23777 -98.099 0)
(-1.22214 -98.1262 0)
(3.78611 -98.1738 0)
(-1.24757 -98.1025 0)
(-1.23815 -98.0993 0)
(-1.22281 -98.1265 0)
(3.78497 -98.1738 0)
(-1.24769 -98.1108 0)
(-1.23817 -98.1126 0)
(-1.22338 -98.1271 0)
(3.78385 -98.1739 0)
(-1.24786 -97.4262 0)
(-1.23842 -98.1098 0)
(-1.22383 -97.1499 0)
(3.78276 -97.3081 0)
(-1.24877 -97.9648 0)
(-1.23356 -97.8372 0)
(-1.21002 -97.5682 0)
(3.78993 -97.994 0)
)
;

boundaryField
{
    topWall
    {
        type            extrapolatedCalculated;
        value           nonuniform List<vector> 0();
    }
    botWall
    {
        type            extrapolatedCalculated;
        value           nonuniform List<vector> 0();
    }
    inlet
    {
        type            cyclic;
    }
    outlet
    {
        type            cyclic;
    }
    fixWall
    {
        type            empty;
    }
    procBoundary1to0
    {
        type            processor;
        value           nonuniform List<vector> 8((3.73086 -97.5555 0) (-1.32263 -97.4432 0) (-1.26461 -97.8812 0) (-1.24529 -97.7979 0) (-1.24858 -97.8877 0) (-1.23765 -97.7315 0) (-1.21767 -97.7809 0) (3.80557 -97.7247 0));
    }
    procBoundary1to2
    {
        type            processor;
        value           nonuniform List<vector> 8((3.74997 -99.0203 0) (-1.29136 -98.4193 0) (-1.27749 -98.3783 0) (-1.25994 -98.8765 0) (-1.24604 -98.6303 0) (-1.23181 -98.6752 0) (-1.22645 -98.5492 0) (3.78311 -98.8652 0));
    }
}


// ************************************************************************* //
