/*--------------------------------*- C++ -*----------------------------------*\
  =========                 |
  \\      /  F ield         | OpenFOAM: The Open Source CFD Toolbox
   \\    /   O peration     | Website:  https://openfoam.org
    \\  /    A nd           | Version:  dev
     \\/     M anipulation  |

   OpenFOAM for Windows 20.09 (v1)
   Built by CFD Support, www.cfdsupport.com (based on Symscape).
\*---------------------------------------------------------------------------*/
FoamFile
{
    version     2.0;
    format      ascii;
    class       volScalarField;
    location    "6";
    object      nut;
}
// * * * * * * * * * * * * * * * * * * * * * * * * * * * * * * * * * * * * * //

dimensions      [0 2 -1 0 0 0 0];

internalField   nonuniform List<scalar> 
120
(
2.43123e-18
2.43131e-18
2.43131e-18
2.43108e-18
2.7696e-18
2.76972e-18
2.76971e-18
2.76942e-18
3.12871e-18
3.12887e-18
3.12885e-18
3.1285e-18
3.5078e-18
3.50803e-18
3.50798e-18
3.50756e-18
3.90595e-18
3.90625e-18
3.90617e-18
3.90568e-18
4.32194e-18
4.32233e-18
4.32223e-18
4.32165e-18
4.75434e-18
4.75483e-18
4.75468e-18
4.75402e-18
5.20135e-18
5.20196e-18
5.20177e-18
5.20103e-18
5.6609e-18
5.66164e-18
5.66139e-18
5.66058e-18
6.13055e-18
6.13143e-18
6.13113e-18
6.13025e-18
6.60752e-18
6.60856e-18
6.6082e-18
6.60725e-18
7.08872e-18
7.08992e-18
7.08951e-18
7.0885e-18
7.57073e-18
7.57211e-18
7.57164e-18
7.57058e-18
8.04988e-18
8.05146e-18
8.05092e-18
8.04982e-18
8.5223e-18
8.52409e-18
8.52348e-18
8.52234e-18
2.43099e-18
2.43128e-18
2.43139e-18
2.43133e-18
2.76931e-18
2.76967e-18
2.76981e-18
2.76972e-18
3.12835e-18
3.1288e-18
3.12897e-18
3.12884e-18
3.50739e-18
3.50792e-18
3.50813e-18
3.50794e-18
3.90547e-18
3.9061e-18
3.90635e-18
3.9061e-18
4.32142e-18
4.32215e-18
4.32243e-18
4.32211e-18
4.75377e-18
4.7546e-18
4.75492e-18
4.75451e-18
5.20075e-18
5.20168e-18
5.20204e-18
5.20153e-18
5.66028e-18
5.66131e-18
5.6617e-18
5.66109e-18
6.12993e-18
6.13105e-18
6.13147e-18
6.13076e-18
6.60693e-18
6.60813e-18
6.60857e-18
6.60776e-18
7.08818e-18
7.08945e-18
7.08989e-18
7.08899e-18
7.57028e-18
7.57159e-18
7.57204e-18
7.57106e-18
8.04956e-18
8.0509e-18
8.05134e-18
8.05028e-18
8.52215e-18
8.52349e-18
8.52392e-18
8.5228e-18
)
;

boundaryField
{
    topWall
    {
        type            nutkWallFunction;
        Cmu             0.09;
        kappa           0.41;
        E               9.8;
        value           nonuniform List<scalar> 0();
    }
    botWall
    {
        type            nutkWallFunction;
        Cmu             0.09;
        kappa           0.41;
        E               9.8;
        value           nonuniform List<scalar> 0();
    }
    inlet
    {
        type            cyclic;
    }
    outlet
    {
        type            cyclic;
    }
    fixWall
    {
        type            empty;
    }
    procBoundary1to0
    {
        type            processor;
        value           nonuniform List<scalar> 8(2.11416e-18 2.11421e-18 2.11422e-18 2.11404e-18 2.11396e-18 2.11419e-18 2.11427e-18 2.11424e-18);
    }
    procBoundary1to2
    {
        type            processor;
        value           nonuniform List<scalar> 8(8.9966e-18 8.99858e-18 8.99799e-18 8.99682e-18 8.99663e-18 8.99799e-18 8.99841e-18 8.99722e-18);
    }
}


// ************************************************************************* //
