/*--------------------------------*- C++ -*----------------------------------*\
  =========                 |
  \\      /  F ield         | OpenFOAM: The Open Source CFD Toolbox
   \\    /   O peration     | Website:  https://openfoam.org
    \\  /    A nd           | Version:  dev
     \\/     M anipulation  |

   OpenFOAM for Windows 20.09 (v1)
   Built by CFD Support, www.cfdsupport.com (based on Symscape).
\*---------------------------------------------------------------------------*/
FoamFile
{
    version     2.0;
    format      ascii;
    class       volScalarField;
    location    "6";
    object      omega;
}
// * * * * * * * * * * * * * * * * * * * * * * * * * * * * * * * * * * * * * //

dimensions      [0 0 -1 0 0 0 0];

internalField   nonuniform List<scalar> 
120
(
91.3302
91.327
91.3271
91.3359
80.172
80.1686
80.1688
80.1772
70.9701
70.9663
70.9669
70.9748
63.3002
63.2961
63.2969
63.3045
56.8479
56.8435
56.8445
56.8518
51.3761
51.3715
51.3727
51.3796
46.7036
46.6987
46.7002
46.7067
42.6898
42.6848
42.6864
42.6924
39.2243
39.2191
39.2208
39.2265
36.2194
36.2141
36.2159
36.2212
33.6048
33.5995
33.6014
33.6062
31.3236
31.3183
31.3202
31.3246
29.3293
29.324
29.3258
29.3299
27.5836
27.5782
27.58
27.5838
26.0546
26.0491
26.0509
26.0544
91.3393
91.3285
91.3243
91.3264
80.1806
80.1701
80.1661
80.1686
70.9782
70.968
70.9642
70.9672
63.3077
63.298
63.2943
63.2976
56.8547
56.8455
56.842
56.8456
51.3823
51.3736
51.3703
51.3742
46.7092
46.701
46.6979
46.7019
42.6947
42.6871
42.6841
42.6883
39.2285
39.2214
39.2187
39.2229
36.223
36.2164
36.2139
36.2181
33.6078
33.6017
33.5995
33.6036
31.326
31.3204
31.3185
31.3225
29.3311
29.326
29.3243
29.3281
27.5847
27.5801
27.5786
27.5822
26.055
26.0509
26.0496
26.053
)
;

boundaryField
{
    topWall
    {
        beta1           0.075;
        blended         0;
        type            omegaWallFunction;
        value           nonuniform List<scalar> 0();
    }
    botWall
    {
        beta1           0.075;
        blended         0;
        type            omegaWallFunction;
        value           nonuniform List<scalar> 0();
    }
    inlet
    {
        type            cyclic;
    }
    outlet
    {
        type            cyclic;
    }
    fixWall
    {
        type            empty;
    }
    procBoundary1to0
    {
        type            processor;
        value           nonuniform List<scalar> 8(105.027 105.025 105.024 105.033 105.037 105.026 105.022 105.023);
    }
    procBoundary1to2
    {
        type            processor;
        value           nonuniform List<scalar> 8(24.6809 24.6755 24.6771 24.6803 24.6809 24.6771 24.676 24.6792);
    }
}


// ************************************************************************* //
