/*--------------------------------*- C++ -*----------------------------------*\
  =========                 |
  \\      /  F ield         | OpenFOAM: The Open Source CFD Toolbox
   \\    /   O peration     | Website:  https://openfoam.org
    \\  /    A nd           | Version:  dev
     \\/     M anipulation  |

   OpenFOAM for Windows 20.09 (v1)
   Built by CFD Support, www.cfdsupport.com (based on Symscape).
\*---------------------------------------------------------------------------*/
FoamFile
{
    version     2.0;
    format      ascii;
    class       volScalarField;
    location    "6";
    object      p;
}
// * * * * * * * * * * * * * * * * * * * * * * * * * * * * * * * * * * * * * //

dimensions      [1 -1 -2 0 0 0 0];

internalField   nonuniform List<scalar> 
120
(
-1.24346
-1.31081
-1.37642
-1.43789
-1.32737
-1.39423
-1.45898
-1.52036
-1.40931
-1.47603
-1.54073
-1.60212
-1.49121
-1.55783
-1.62249
-1.68387
-1.57313
-1.63963
-1.70425
-1.76561
-1.65502
-1.72143
-1.786
-1.84735
-1.73692
-1.80322
-1.86776
-1.92908
-1.81881
-1.88502
-1.94951
-2.01082
-1.90069
-1.96681
-2.03128
-2.09256
-1.98258
-2.04861
-2.11304
-2.17431
-2.06447
-2.13041
-2.1948
-2.25605
-2.14636
-2.21221
-2.27656
-2.33776
-2.22824
-2.294
-2.35832
-2.41951
-2.31012
-2.37581
-2.44008
-2.50126
-2.38955
-2.45455
-2.51964
-2.58291
-1.50179
-1.56263
-1.62454
-1.68449
-1.58354
-1.645
-1.70711
-1.76669
-1.6653
-1.72675
-1.7889
-1.8485
-1.74705
-1.80851
-1.87068
-1.93031
-1.8288
-1.89026
-1.95245
-2.01212
-1.91055
-1.97201
-2.03422
-2.09393
-1.9923
-2.05376
-2.11599
-2.17574
-2.07406
-2.13551
-2.19776
-2.25755
-2.15581
-2.21727
-2.27954
-2.33936
-2.23756
-2.29902
-2.36131
-2.42118
-2.31931
-2.38078
-2.44308
-2.50299
-2.40104
-2.46252
-2.52485
-2.5848
-2.48281
-2.54427
-2.60663
-2.66661
-2.56456
-2.62604
-2.6884
-2.74842
-2.64519
-2.70779
-2.76854
-2.82879
)
;

boundaryField
{
    topWall
    {
        type            calculated;
        value           nonuniform List<scalar> 0();
    }
    botWall
    {
        type            calculated;
        value           nonuniform List<scalar> 0();
    }
    inlet
    {
        type            cyclic;
    }
    outlet
    {
        type            cyclic;
    }
    fixWall
    {
        type            empty;
    }
    procBoundary1to0
    {
        type            processor;
        value           nonuniform List<scalar> 8(-1.16277 -1.23018 -1.29504 -1.35664 -1.41956 -1.4815 -1.54333 -1.60327);
    }
    procBoundary1to2
    {
        type            processor;
        value           nonuniform List<scalar> 8(-2.4727 -2.53675 -2.60184 -2.6645 -2.72783 -2.7891 -2.85101 -2.91175);
    }
}


// ************************************************************************* //
