/*--------------------------------*- C++ -*----------------------------------*\
  =========                 |
  \\      /  F ield         | OpenFOAM: The Open Source CFD Toolbox
   \\    /   O peration     | Website:  https://openfoam.org
    \\  /    A nd           | Version:  dev
     \\/     M anipulation  |

   OpenFOAM for Windows 20.09 (v1)
   Built by CFD Support, www.cfdsupport.com (based on Symscape).
\*---------------------------------------------------------------------------*/
FoamFile
{
    version     2.0;
    format      ascii;
    class       volScalarField;
    location    "6";
    object      p_rgh;
}
// * * * * * * * * * * * * * * * * * * * * * * * * * * * * * * * * * * * * * //

dimensions      [1 -1 -2 0 0 0 0];

internalField   nonuniform List<scalar> 
120
(
0.0236936
-0.043662
-0.109281
-0.170773
0.0215075
-0.0453548
-0.110102
-0.171489
0.0213139
-0.0454087
-0.110108
-0.171491
0.0211624
-0.0454515
-0.110115
-0.171492
0.0209991
-0.0455076
-0.110122
-0.171483
0.0208516
-0.0455521
-0.110129
-0.171473
0.0207065
-0.0455975
-0.110137
-0.171456
0.0205634
-0.0456437
-0.11014
-0.171448
0.0204292
-0.0456847
-0.110157
-0.17144
0.0202888
-0.0457346
-0.110166
-0.171431
0.0201517
-0.0457828
-0.110175
-0.171422
0.0200168
-0.0458306
-0.110184
-0.171387
0.0198832
-0.0458794
-0.110195
-0.171381
0.0197515
-0.0459302
-0.110205
-0.17138
0.0221389
-0.042843
-0.107958
-0.171251
-0.234669
-0.295498
-0.357426
-0.417358
-0.234664
-0.296128
-0.358236
-0.417817
-0.234674
-0.29613
-0.358279
-0.417874
-0.234679
-0.296133
-0.358309
-0.417935
-0.234679
-0.296136
-0.358329
-0.417995
-0.234679
-0.296132
-0.35835
-0.418056
-0.234679
-0.296136
-0.35837
-0.418117
-0.234684
-0.29614
-0.35839
-0.418178
-0.234683
-0.296143
-0.358415
-0.418235
-0.234682
-0.296147
-0.358437
-0.418304
-0.234681
-0.296151
-0.358458
-0.418365
-0.234665
-0.296145
-0.35848
-0.418426
-0.234685
-0.29615
-0.358502
-0.418488
-0.234684
-0.296166
-0.358525
-0.418549
-0.233591
-0.296141
-0.356876
-0.41713
)
;

boundaryField
{
    topWall
    {
        type            zeroGradient;
    }
    botWall
    {
        type            zeroGradient;
    }
    inlet
    {
        type            fixedJump;
        patchType       cyclic;
        jump            uniform -0.5;
        value           nonuniform List<scalar> 
15
(
0.0525046
0.0506014
0.0506978
0.0507951
0.0508932
0.0509923
0.0510969
0.0511926
0.0512946
0.0513977
0.0515018
0.0516138
0.0517199
0.0518452
0.0531677
)
;
    }
    outlet
    {
        type            fixedJump;
        patchType       cyclic;
        value           nonuniform List<scalar> 
15
(
-0.447495
-0.449399
-0.449302
-0.449205
-0.449107
-0.449008
-0.448903
-0.448807
-0.448705
-0.448602
-0.448498
-0.448386
-0.44828
-0.448155
-0.446832
)
;
    }
    fixWall
    {
        type            empty;
    }
    procBoundary1to0
    {
        type            processor;
        value           nonuniform List<scalar> 8(0.0226117 -0.0447995 -0.109655 -0.171269 -0.234199 -0.296124 -0.357958 -0.417893);
    }
    procBoundary1to2
    {
        type            processor;
        value           nonuniform List<scalar> 8(0.0207046 -0.0433031 -0.108416 -0.171082 -0.234464 -0.29569 -0.357613 -0.418364);
    }
}


// ************************************************************************* //
