/*--------------------------------*- C++ -*----------------------------------*\
  =========                 |
  \\      /  F ield         | OpenFOAM: The Open Source CFD Toolbox
   \\    /   O peration     | Website:  https://openfoam.org
    \\  /    A nd           | Version:  dev
     \\/     M anipulation  |

   OpenFOAM for Windows 20.09 (v1)
   Built by CFD Support, www.cfdsupport.com (based on Symscape).
\*---------------------------------------------------------------------------*/
FoamFile
{
    version     2.0;
    format      ascii;
    class       surfaceScalarField;
    location    "6";
    object      phi;
}
// * * * * * * * * * * * * * * * * * * * * * * * * * * * * * * * * * * * * * //

dimensions      [0 3 -1 0 0 0 0];

internalField   nonuniform List<scalar> 
217
(
2.44061e-08
-2.9772e-10
2.43934e-08
3.59206e-10
2.44195e-08
-2.37512e-10
-1.74522e-10
2.44459e-08
2.47537e-08
-2.9135e-10
2.47428e-08
3.70078e-10
2.47671e-08
-2.61796e-10
-2.0576e-10
2.47983e-08
2.50391e-08
-2.80822e-10
2.50295e-08
3.79681e-10
2.50553e-08
-2.87597e-10
-2.42232e-10
2.50917e-08
2.52747e-08
-2.68353e-10
2.52656e-08
3.88712e-10
2.52917e-08
-3.13685e-10
-2.83506e-10
2.5333e-08
2.54668e-08
-2.52831e-10
2.54576e-08
3.98003e-10
2.54851e-08
-3.41207e-10
-3.29735e-10
2.55313e-08
2.56243e-08
-2.36092e-10
2.56142e-08
4.08118e-10
2.56422e-08
-3.69128e-10
-3.80466e-10
2.56929e-08
2.57517e-08
-2.17279e-10
2.574e-08
4.1984e-10
2.57689e-08
-3.98015e-10
-4.35432e-10
2.58238e-08
2.58558e-08
-1.97997e-10
2.58419e-08
4.33673e-10
2.58709e-08
-4.26941e-10
-4.94469e-10
2.59299e-08
2.59396e-08
-1.77718e-10
2.59232e-08
4.50066e-10
2.59522e-08
-4.55881e-10
-5.57095e-10
2.60148e-08
2.60083e-08
-1.579e-10
2.59891e-08
4.69273e-10
2.60174e-08
-4.84228e-10
-6.23152e-10
2.60835e-08
2.6064e-08
-1.38318e-10
2.60419e-08
4.91372e-10
2.60694e-08
-5.11789e-10
-6.92033e-10
2.61383e-08
2.61102e-08
-1.19836e-10
2.60857e-08
5.15888e-10
2.61126e-08
-5.38768e-10
-7.63805e-10
2.61844e-08
2.61485e-08
-1.0268e-10
2.61224e-08
5.42037e-10
2.61485e-08
-5.64856e-10
-8.37311e-10
2.6222e-08
2.61812e-08
-8.73056e-11
2.61557e-08
5.67507e-10
2.61828e-08
-5.91953e-10
-9.11817e-10
2.62573e-08
2.62102e-08
2.61842e-08
2.62163e-08
2.62901e-08
2.44123e-08
6.58514e-10
2.44231e-08
-1.92721e-10
2.44327e-08
-1.56353e-10
4.03389e-11
2.47695e-08
6.87288e-10
2.47819e-08
-2.05065e-10
2.47883e-08
-1.62771e-10
6.86059e-11
2.50669e-08
7.12123e-10
2.50799e-08
-2.18051e-10
2.50841e-08
-1.67006e-10
1.0313e-10
2.53115e-08
7.33632e-10
2.53246e-08
-2.31205e-10
2.53267e-08
-1.69047e-10
1.42674e-10
2.55125e-08
7.52462e-10
2.55261e-08
-2.44796e-10
2.55266e-08
-1.69608e-10
1.86931e-10
2.56762e-08
7.69111e-10
2.56896e-08
-2.58123e-10
2.56884e-08
-1.68403e-10
2.34202e-10
2.58091e-08
7.83807e-10
2.58227e-08
-2.71678e-10
2.58203e-08
-1.65976e-10
2.83951e-10
2.59165e-08
7.97148e-10
2.59296e-08
-2.84734e-10
2.59257e-08
-1.62074e-10
3.34612e-10
2.60028e-08
8.09149e-10
2.60157e-08
-2.97622e-10
2.60109e-08
-1.57238e-10
3.85557e-10
2.60725e-08
8.20134e-10
2.60843e-08
-3.09447e-10
2.60783e-08
-1.51206e-10
4.35744e-10
2.61281e-08
8.3032e-10
2.61391e-08
-3.20452e-10
2.61325e-08
-1.44555e-10
4.84672e-10
2.6174e-08
8.40701e-10
2.61829e-08
-3.29365e-10
2.61755e-08
-1.3708e-10
5.3148e-10
2.62113e-08
8.51379e-10
2.62181e-08
-3.36188e-10
2.62101e-08
-1.29029e-10
5.75863e-10
2.62441e-08
8.64581e-10
2.62469e-08
-3.3899e-10
2.62384e-08
-1.20477e-10
6.17667e-10
2.62706e-08
2.62704e-08
2.62617e-08
)
;

boundaryField
{
    topWall
    {
        type            calculated;
        value           nonuniform List<scalar> 0();
    }
    botWall
    {
        type            calculated;
        value           nonuniform List<scalar> 0();
    }
    inlet
    {
        type            cyclic;
        value           nonuniform List<scalar> 
15
(
-2.62239e-08
-2.61966e-08
-2.61657e-08
-2.61287e-08
-2.60835e-08
-2.60281e-08
-2.59599e-08
-2.5875e-08
-2.57705e-08
-2.56411e-08
-2.54824e-08
-2.52871e-08
-2.50496e-08
-2.476e-08
-2.44133e-08
)
;
    }
    outlet
    {
        type            cyclic;
        value           nonuniform List<scalar> 
15
(
2.62239e-08
2.61966e-08
2.61657e-08
2.61287e-08
2.60835e-08
2.60281e-08
2.59599e-08
2.5875e-08
2.57705e-08
2.56411e-08
2.54824e-08
2.52871e-08
2.50496e-08
2.476e-08
2.44133e-08
)
;
    }
    fixWall
    {
        type            empty;
        value           nonuniform List<scalar> 0();
    }
    procBoundary1to0
    {
        type            processor;
        value           nonuniform List<scalar> 8(3.04718e-10 -3.46759e-10 2.11987e-10 1.48409e-10 -6.24144e-10 1.82152e-10 1.48056e-10 -2.15079e-11);
    }
    procBoundary1to2
    {
        type            processor;
        value           nonuniform List<scalar> 8(-7.32529e-11 5.94355e-10 -6.24755e-10 -9.85543e-10 8.83578e-10 -3.38616e-10 -1.13099e-10 6.56145e-10);
    }
}


// ************************************************************************* //
