/*--------------------------------*- C++ -*----------------------------------*\
  =========                 |
  \\      /  F ield         | OpenFOAM: The Open Source CFD Toolbox
   \\    /   O peration     | Website:  https://openfoam.org
    \\  /    A nd           | Version:  dev
     \\/     M anipulation  |

   OpenFOAM for Windows 20.09 (v1)
   Built by CFD Support, www.cfdsupport.com (based on Symscape).
\*---------------------------------------------------------------------------*/
FoamFile
{
    version     2.0;
    format      ascii;
    class       volSymmTensorField;
    location    "6";
    object      R;
}
// * * * * * * * * * * * * * * * * * * * * * * * * * * * * * * * * * * * * * //

dimensions      [0 2 -2 0 0 0 0];

internalField   nonuniform List<symmTensor> 
120
(
(1.48031e-16 -1.33696e-18 -0 1.48029e-16 -0 1.48029e-16)
(1.48031e-16 -1.33659e-18 -0 1.48029e-16 -0 1.4803e-16)
(1.48026e-16 -1.33923e-18 -0 1.48033e-16 -0 1.4803e-16)
(1.48027e-16 -1.34647e-18 -0 1.48032e-16 -0 1.4803e-16)
(1.48032e-16 -1.25561e-18 -0 1.48028e-16 -0 1.48029e-16)
(1.48031e-16 -1.26703e-18 -0 1.48029e-16 -0 1.4803e-16)
(1.48026e-16 -1.26525e-18 -0 1.48033e-16 -0 1.4803e-16)
(1.48026e-16 -1.27209e-18 -0 1.48034e-16 -0 1.48029e-16)
(1.48032e-16 -1.17007e-18 -0 1.48028e-16 -0 1.48029e-16)
(1.48031e-16 -1.17976e-18 -0 1.48028e-16 -0 1.4803e-16)
(1.48025e-16 -1.17532e-18 -0 1.48034e-16 -0 1.4803e-16)
(1.48025e-16 -1.1884e-18 -0 1.48035e-16 -0 1.48029e-16)
(1.48033e-16 -1.0778e-18 -0 1.48027e-16 -0 1.48029e-16)
(1.48031e-16 -1.08519e-18 -0 1.48028e-16 -0 1.4803e-16)
(1.48025e-16 -1.07657e-18 -0 1.48034e-16 -0 1.4803e-16)
(1.48023e-16 -1.09471e-18 -0 1.48037e-16 -0 1.48029e-16)
(1.48034e-16 -9.82935e-19 -0 1.48026e-16 -0 1.48029e-16)
(1.48031e-16 -9.86169e-19 -0 1.48028e-16 -0 1.4803e-16)
(1.48024e-16 -9.73774e-19 -0 1.48035e-16 -0 1.4803e-16)
(1.48022e-16 -9.97564e-19 -0 1.48038e-16 -0 1.48029e-16)
(1.48034e-16 -8.88137e-19 -0 1.48026e-16 -0 1.48029e-16)
(1.48031e-16 -8.87239e-19 -0 1.48028e-16 -0 1.4803e-16)
(1.48023e-16 -8.69516e-19 -0 1.48036e-16 -0 1.4803e-16)
(1.4802e-16 -8.96929e-19 -0 1.4804e-16 -0 1.48029e-16)
(1.48035e-16 -7.96537e-19 -0 1.48025e-16 -0 1.48029e-16)
(1.48032e-16 -7.90266e-19 -0 1.48027e-16 -0 1.4803e-16)
(1.48022e-16 -7.67532e-19 -0 1.48037e-16 -0 1.4803e-16)
(1.48018e-16 -7.98549e-19 -0 1.48042e-16 -0 1.48029e-16)
(1.48036e-16 -7.09869e-19 -0 1.48024e-16 -0 1.48029e-16)
(1.48033e-16 -7.0037e-19 -0 1.48027e-16 -0 1.4803e-16)
(1.48022e-16 -6.70787e-19 -0 1.48037e-16 -0 1.4803e-16)
(1.48016e-16 -7.02844e-19 -0 1.48044e-16 -0 1.48029e-16)
(1.48036e-16 -6.29565e-19 -0 1.48024e-16 -0 1.48029e-16)
(1.48034e-16 -6.16567e-19 -0 1.48026e-16 -0 1.4803e-16)
(1.48021e-16 -5.81113e-19 -0 1.48038e-16 -0 1.4803e-16)
(1.48014e-16 -6.14474e-19 -0 1.48046e-16 -0 1.48029e-16)
(1.48037e-16 -5.56695e-19 -0 1.48023e-16 -0 1.48029e-16)
(1.48035e-16 -5.43341e-19 -0 1.48025e-16 -0 1.4803e-16)
(1.4802e-16 -5.01699e-19 -0 1.48039e-16 -0 1.4803e-16)
(1.48012e-16 -5.3389e-19 -0 1.48048e-16 -0 1.48029e-16)
(1.48037e-16 -4.92478e-19 -0 1.48023e-16 -0 1.48029e-16)
(1.48036e-16 -4.795e-19 -0 1.48023e-16 -0 1.4803e-16)
(1.4802e-16 -4.36848e-19 -0 1.48039e-16 -0 1.4803e-16)
(1.48009e-16 -4.698e-19 -0 1.48051e-16 -0 1.48029e-16)
(1.48038e-16 -4.36591e-19 -0 1.48023e-16 -0 1.48029e-16)
(1.48038e-16 -4.29401e-19 -0 1.4802e-16 -0 1.48031e-16)
(1.48019e-16 -3.89895e-19 -0 1.4804e-16 -0 1.4803e-16)
(1.48006e-16 -4.17864e-19 -0 1.48054e-16 -0 1.48028e-16)
(1.48038e-16 -3.86815e-19 -0 1.48023e-16 -0 1.48029e-16)
(1.48039e-16 -3.90248e-19 -0 1.48019e-16 -0 1.48031e-16)
(1.48019e-16 -3.70969e-19 -0 1.4804e-16 -0 1.4803e-16)
(1.48004e-16 -3.94518e-19 -0 1.48056e-16 -0 1.48029e-16)
(1.48037e-16 -3.4343e-19 -0 1.48023e-16 -0 1.48029e-16)
(1.48038e-16 -3.64341e-19 -0 1.48021e-16 -0 1.4803e-16)
(1.48018e-16 -3.80821e-19 -0 1.48041e-16 -0 1.4803e-16)
(1.48003e-16 -3.88208e-19 -0 1.48057e-16 -0 1.48029e-16)
(1.48037e-16 -2.7767e-19 -0 1.48023e-16 -0 1.48029e-16)
(1.48037e-16 -3.57028e-19 -0 1.48023e-16 -0 1.48029e-16)
(1.48016e-16 -4.23398e-19 -0 1.48043e-16 -0 1.4803e-16)
(1.48003e-16 -3.66543e-19 -0 1.48057e-16 -0 1.4803e-16)
(1.48033e-16 -1.37936e-18 -0 1.48026e-16 -0 1.4803e-16)
(1.48029e-16 -1.38135e-18 -0 1.48031e-16 -0 1.4803e-16)
(1.48028e-16 -1.38018e-18 -0 1.48031e-16 -0 1.4803e-16)
(1.48032e-16 -1.37162e-18 -0 1.48028e-16 -0 1.4803e-16)
(1.48033e-16 -1.30474e-18 -0 1.48026e-16 -0 1.4803e-16)
(1.48028e-16 -1.30707e-18 -0 1.48031e-16 -0 1.4803e-16)
(1.48028e-16 -1.30871e-18 -0 1.48031e-16 -0 1.4803e-16)
(1.48033e-16 -1.28867e-18 -0 1.48027e-16 -0 1.48029e-16)
(1.48033e-16 -1.2208e-18 -0 1.48026e-16 -0 1.4803e-16)
(1.48028e-16 -1.22057e-18 -0 1.48032e-16 -0 1.48029e-16)
(1.48029e-16 -1.22416e-18 -0 1.4803e-16 -0 1.4803e-16)
(1.48035e-16 -1.20245e-18 -0 1.48024e-16 -0 1.4803e-16)
(1.48033e-16 -1.1259e-18 -0 1.48026e-16 -0 1.4803e-16)
(1.48028e-16 -1.12427e-18 -0 1.48032e-16 -0 1.4803e-16)
(1.48029e-16 -1.12928e-18 -0 1.4803e-16 -0 1.4803e-16)
(1.48037e-16 -1.10649e-18 -0 1.48022e-16 -0 1.4803e-16)
(1.48033e-16 -1.02711e-18 -0 1.48026e-16 -0 1.4803e-16)
(1.48028e-16 -1.02381e-18 -0 1.48032e-16 -0 1.48029e-16)
(1.48029e-16 -1.02868e-18 -0 1.4803e-16 -0 1.4803e-16)
(1.48038e-16 -1.00613e-18 -0 1.48021e-16 -0 1.4803e-16)
(1.48032e-16 -9.24635e-19 -0 1.48027e-16 -0 1.4803e-16)
(1.48028e-16 -9.20949e-19 -0 1.48032e-16 -0 1.48029e-16)
(1.48029e-16 -9.25003e-19 -0 1.4803e-16 -0 1.4803e-16)
(1.48039e-16 -9.03241e-19 -0 1.4802e-16 -0 1.4803e-16)
(1.48032e-16 -8.24588e-19 -0 1.48027e-16 -0 1.4803e-16)
(1.48027e-16 -8.20353e-19 -0 1.48032e-16 -0 1.48029e-16)
(1.48029e-16 -8.22672e-19 -0 1.4803e-16 -0 1.4803e-16)
(1.48041e-16 -8.03029e-19 -0 1.48018e-16 -0 1.4803e-16)
(1.48032e-16 -7.27715e-19 -0 1.48027e-16 -0 1.4803e-16)
(1.48027e-16 -7.22576e-19 -0 1.48033e-16 -0 1.48029e-16)
(1.4803e-16 -7.22645e-19 -0 1.48029e-16 -0 1.4803e-16)
(1.48042e-16 -7.0585e-19 -0 1.48017e-16 -0 1.4803e-16)
(1.48032e-16 -6.38794e-19 -0 1.48027e-16 -0 1.4803e-16)
(1.48027e-16 -6.31955e-19 -0 1.48033e-16 -0 1.48029e-16)
(1.4803e-16 -6.29147e-19 -0 1.48029e-16 -0 1.4803e-16)
(1.48044e-16 -6.15852e-19 -0 1.48016e-16 -0 1.4803e-16)
(1.48032e-16 -5.57855e-19 -0 1.48027e-16 -0 1.4803e-16)
(1.48027e-16 -5.47805e-19 -0 1.48033e-16 -0 1.48029e-16)
(1.48031e-16 -5.41771e-19 -0 1.48028e-16 -0 1.4803e-16)
(1.48045e-16 -5.3279e-19 -0 1.48015e-16 -0 1.4803e-16)
(1.48032e-16 -4.91631e-19 -0 1.48027e-16 -0 1.4803e-16)
(1.48027e-16 -4.73932e-19 -0 1.48033e-16 -0 1.48029e-16)
(1.48031e-16 -4.64307e-19 -0 1.48028e-16 -0 1.4803e-16)
(1.48045e-16 -4.61382e-19 -0 1.48014e-16 -0 1.48029e-16)
(1.48032e-16 -4.3768e-19 -0 1.48027e-16 -0 1.4803e-16)
(1.48028e-16 -4.11442e-19 -0 1.48032e-16 -0 1.48029e-16)
(1.48031e-16 -3.94712e-19 -0 1.48028e-16 -0 1.4803e-16)
(1.48046e-16 -3.99104e-19 -0 1.48013e-16 -0 1.4803e-16)
(1.48032e-16 -4.02982e-19 -0 1.48027e-16 -0 1.4803e-16)
(1.48028e-16 -3.60885e-19 -0 1.48032e-16 -0 1.48029e-16)
(1.48032e-16 -3.37001e-19 -0 1.48027e-16 -0 1.48031e-16)
(1.48046e-16 -3.50774e-19 -0 1.48013e-16 -0 1.4803e-16)
(1.48034e-16 -3.82106e-19 -0 1.48024e-16 -0 1.48031e-16)
(1.4803e-16 -3.2567e-19 -0 1.4803e-16 -0 1.48029e-16)
(1.48031e-16 -2.88314e-19 -0 1.48028e-16 -0 1.4803e-16)
(1.48046e-16 -3.15009e-19 -0 1.48014e-16 -0 1.48029e-16)
(1.48035e-16 -3.71399e-19 -0 1.48024e-16 -0 1.48031e-16)
(1.48032e-16 -3.40681e-19 -0 1.48028e-16 -0 1.48029e-16)
(1.48032e-16 -2.75892e-19 -0 1.48027e-16 -0 1.4803e-16)
(1.48046e-16 -2.826e-19 -0 1.48013e-16 -0 1.4803e-16)
)
;

boundaryField
{
    topWall
    {
        type            kqRWallFunction;
        value           nonuniform List<symmTensor> 0();
    }
    botWall
    {
        type            kqRWallFunction;
        value           nonuniform List<symmTensor> 0();
    }
    inlet
    {
        type            cyclic;
    }
    outlet
    {
        type            cyclic;
    }
    fixWall
    {
        type            empty;
    }
    procBoundary1to0
    {
        type            processor;
        value           nonuniform List<symmTensor> 8((1.4803e-16 -1.39921e-18 -0 1.4803e-16 -0 1.48029e-16) (1.4803e-16 -1.39236e-18 -0 1.48029e-16 -0 1.4803e-16) (1.48027e-16 -1.39762e-18 -0 1.48032e-16 -0 1.4803e-16) (1.48028e-16 -1.40531e-18 -0 1.48032e-16 -0 1.4803e-16) (1.48033e-16 -1.43466e-18 -0 1.48026e-16 -0 1.4803e-16) (1.48029e-16 -1.4352e-18 -0 1.48031e-16 -0 1.4803e-16) (1.48028e-16 -1.43425e-18 -0 1.48031e-16 -0 1.4803e-16) (1.48031e-16 -1.43301e-18 -0 1.48029e-16 -0 1.48029e-16));
    }
    procBoundary1to2
    {
        type            processor;
        value           nonuniform List<symmTensor> 8((1.48036e-16 -2.64217e-19 -0 1.48024e-16 -0 1.48029e-16) (1.48034e-16 -3.78763e-19 -0 1.48026e-16 -0 1.48029e-16) (1.48016e-16 -4.65854e-19 -0 1.48042e-16 -0 1.48031e-16) (1.48003e-16 -3.75019e-19 -0 1.48056e-16 -0 1.4803e-16) (1.48034e-16 -3.80538e-19 -0 1.48025e-16 -0 1.4803e-16) (1.48034e-16 -3.66989e-19 -0 1.48025e-16 -0 1.4803e-16) (1.48033e-16 -2.869e-19 -0 1.48027e-16 -0 1.48029e-16) (1.48048e-16 -2.75195e-19 -0 1.48013e-16 -0 1.48029e-16));
    }
}


// ************************************************************************* //
