/*--------------------------------*- C++ -*----------------------------------*\
  =========                 |
  \\      /  F ield         | OpenFOAM: The Open Source CFD Toolbox
   \\    /   O peration     | Website:  https://openfoam.org
    \\  /    A nd           | Version:  dev
     \\/     M anipulation  |

   OpenFOAM for Windows 20.09 (v1)
   Built by CFD Support, www.cfdsupport.com (based on Symscape).
\*---------------------------------------------------------------------------*/
FoamFile
{
    version     2.0;
    format      ascii;
    class       volVectorField;
    location    "6";
    object      U;
}
// * * * * * * * * * * * * * * * * * * * * * * * * * * * * * * * * * * * * * //

dimensions      [0 1 -1 0 0 0 0];

internalField   nonuniform List<vector> 
120
(
(0.0292861 -6.28909e-06 0)
(0.0292754 6.98289e-06 0)
(0.0292691 -4.5015e-06 0)
(0.0293462 -3.21693e-06 0)
(0.0296997 -5.75132e-06 0)
(0.029694 7.22373e-06 0)
(0.0296865 -4.99202e-06 0)
(0.0297639 -3.58938e-06 0)
(0.0300415 -5.95549e-06 0)
(0.0300378 7.38296e-06 0)
(0.0300306 -5.44449e-06 0)
(0.0301114 -4.44732e-06 0)
(0.0303229 -5.33112e-06 0)
(0.0303224 7.64902e-06 0)
(0.0303128 -6.06301e-06 0)
(0.0303967 -5.17272e-06 0)
(0.0305536 -5.36436e-06 0)
(0.0305534 7.92171e-06 0)
(0.0305423 -6.49191e-06 0)
(0.0306312 -6.17066e-06 0)
(0.0307423 -4.75998e-06 0)
(0.0307432 8.02439e-06 0)
(0.0307285 -7.14541e-06 0)
(0.030822 -7.02794e-06 0)
(0.030896 -4.6543e-06 0)
(0.0308956 8.29043e-06 0)
(0.0308779 -7.63126e-06 0)
(0.0309768 -8.18341e-06 0)
(0.0310214 -4.05116e-06 0)
(0.0310202 8.49975e-06 0)
(0.0309978 -8.28001e-06 0)
(0.0311016 -9.24385e-06 0)
(0.0311234 -3.83749e-06 0)
(0.03112 8.83935e-06 0)
(0.0310931 -8.8059e-06 0)
(0.0312016 -1.05296e-05 0)
(0.0312068 -3.2852e-06 0)
(0.0312018 9.16296e-06 0)
(0.0311692 -9.41819e-06 0)
(0.0312821 -1.17632e-05 0)
(0.0312747 -2.98215e-06 0)
(0.0312678 9.56708e-06 0)
(0.0312298 -9.97472e-06 0)
(0.0313463 -1.31251e-05 0)
(0.031331 -2.56911e-06 0)
(0.0313229 1.00785e-05 0)
(0.0312798 -1.04644e-05 0)
(0.0314002 -1.45573e-05 0)
(0.0313774 -2.21504e-06 0)
(0.0313689 1.07905e-05 0)
(0.0313219 -1.11252e-05 0)
(0.0314441 -1.61568e-05 0)
(0.0314161 -1.84448e-06 0)
(0.0314089 1.13273e-05 0)
(0.0313619 -1.15261e-05 0)
(0.0314866 -1.75884e-05 0)
(0.0314485 -1.61627e-06 0)
(0.0314445 1.16924e-05 0)
(0.0314012 -1.21848e-05 0)
(0.031524 -1.90666e-05 0)
(0.029317 1.28538e-05 0)
(0.029276 -3.75488e-06 0)
(0.0293355 -3.00145e-06 0)
(0.0293104 5.41421e-07 0)
(0.0297455 1.34704e-05 0)
(0.0297058 -3.92394e-06 0)
(0.029765 -3.36878e-06 0)
(0.0297335 8.62531e-07 0)
(0.0301022 1.39978e-05 0)
(0.0300628 -4.2432e-06 0)
(0.0301229 -3.3485e-06 0)
(0.0300859 1.33455e-06 0)
(0.0303959 1.44399e-05 0)
(0.0303562 -4.47566e-06 0)
(0.0304169 -3.42608e-06 0)
(0.0303741 2.36985e-06 0)
(0.0306372 1.48735e-05 0)
(0.0305973 -4.7595e-06 0)
(0.0306593 -3.3595e-06 0)
(0.0306116 3.35101e-06 0)
(0.0308342 1.52532e-05 0)
(0.0307934 -5.03713e-06 0)
(0.0308557 -3.41458e-06 0)
(0.0308034 4.13716e-06 0)
(0.0309938 1.54992e-05 0)
(0.0309527 -5.29362e-06 0)
(0.0310158 -3.33262e-06 0)
(0.0309599 5.21507e-06 0)
(0.0311232 1.58645e-05 0)
(0.0310812 -5.57356e-06 0)
(0.0311439 -3.30469e-06 0)
(0.0310849 6.14869e-06 0)
(0.031227 1.60156e-05 0)
(0.0311846 -5.81594e-06 0)
(0.0312471 -3.17428e-06 0)
(0.0311861 7.22431e-06 0)
(0.0313112 1.63581e-05 0)
(0.0312676 -6.09242e-06 0)
(0.0313289 -3.12777e-06 0)
(0.0312663 8.20827e-06 0)
(0.0313785 1.64779e-05 0)
(0.0313338 -6.26446e-06 0)
(0.0313942 -2.90408e-06 0)
(0.031331 9.22863e-06 0)
(0.0314351 1.67093e-05 0)
(0.0313875 -6.57338e-06 0)
(0.0314457 -2.88708e-06 0)
(0.0313826 1.01067e-05 0)
(0.0314813 1.68005e-05 0)
(0.0314309 -6.61362e-06 0)
(0.0314867 -2.57107e-06 0)
(0.0314248 1.12218e-05 0)
(0.0315237 1.70797e-05 0)
(0.0314672 -6.85528e-06 0)
(0.0315196 -2.47155e-06 0)
(0.0314598 1.1989e-05 0)
(0.0315603 1.7471e-05 0)
(0.0314986 -6.75365e-06 0)
(0.0315461 -2.33498e-06 0)
(0.03149 1.27872e-05 0)
)
;

boundaryField
{
    topWall
    {
        type            noSlip;
    }
    botWall
    {
        type            noSlip;
    }
    inlet
    {
        type            cyclic;
    }
    outlet
    {
        type            cyclic;
    }
    fixWall
    {
        type            empty;
    }
    procBoundary1to0
    {
        type            processor;
        value           nonuniform List<vector> 8((0.0287833 -5.75655e-06 0) (0.0287778 6.85174e-06 0) (0.0287683 -3.95601e-06 0) (0.0288411 -2.73608e-06 0) (0.0287998 1.21404e-05 0) (0.0287586 -3.53054e-06 0) (0.028819 -2.85762e-06 0) (0.0287932 2.40651e-07 0));
    }
    procBoundary1to2
    {
        type            processor;
        value           nonuniform List<vector> 8((0.0314705 -1.2829e-06 0) (0.0314789 1.19498e-05 0) (0.0314452 -1.28176e-05 0) (0.0315578 -2.02701e-05 0) (0.0315961 1.77747e-05 0) (0.0315342 -6.69807e-06 0) (0.0315732 -2.15454e-06 0) (0.0315151 1.36161e-05 0));
    }
}


// ************************************************************************* //
