/*--------------------------------*- C++ -*----------------------------------*\
  =========                 |
  \\      /  F ield         | OpenFOAM: The Open Source CFD Toolbox
   \\    /   O peration     | Website:  https://openfoam.org
    \\  /    A nd           | Version:  dev
     \\/     M anipulation  |

   OpenFOAM for Windows 20.09 (v1)
   Built by CFD Support, www.cfdsupport.com (based on Symscape).
\*---------------------------------------------------------------------------*/
FoamFile
{
    version     2.0;
    format      ascii;
    class       volVectorField;
    location    "6";
    object      UMean;
}
// * * * * * * * * * * * * * * * * * * * * * * * * * * * * * * * * * * * * * //

dimensions      [0 1 -1 0 0 0 0];

internalField   nonuniform List<vector> 
120
(
(0.022277 3.61067e-06 0)
(0.0223256 -7.45605e-06 0)
(0.0223538 5.37425e-07 0)
(0.0223387 8.35151e-06 0)
(0.0225026 4.1362e-06 0)
(0.0225548 -8.37897e-06 0)
(0.0225806 3.43624e-07 0)
(0.0225708 8.62843e-06 0)
(0.0226833 4.0391e-06 0)
(0.0227359 -8.98683e-06 0)
(0.0227617 4.05104e-07 0)
(0.0227575 8.56116e-06 0)
(0.0228271 4.48967e-06 0)
(0.0228811 -9.80838e-06 0)
(0.0229058 1.0075e-07 0)
(0.0229054 8.70428e-06 0)
(0.0229411 4.57104e-06 0)
(0.0229944 -1.03993e-05 0)
(0.0230194 8.51951e-08 0)
(0.0230228 8.51739e-06 0)
(0.0230312 4.88324e-06 0)
(0.0230844 -1.12642e-05 0)
(0.0231085 -2.44149e-07 0)
(0.0231147 8.54265e-06 0)
(0.0231022 5.02159e-06 0)
(0.0231538 -1.18635e-05 0)
(0.0231775 -3.38682e-07 0)
(0.0231865 8.28556e-06 0)
(0.0231582 5.30293e-06 0)
(0.0232086 -1.26281e-05 0)
(0.023231 -6.39548e-07 0)
(0.0232423 8.23702e-06 0)
(0.0232022 5.4839e-06 0)
(0.0232504 -1.32731e-05 0)
(0.0232717 -8.35364e-07 0)
(0.0232854 7.8922e-06 0)
(0.0232373 5.76303e-06 0)
(0.0232836 -1.38702e-05 0)
(0.0233027 -1.0734e-06 0)
(0.0233189 7.80767e-06 0)
(0.0232654 5.99375e-06 0)
(0.0233089 -1.45169e-05 0)
(0.0233259 -1.35616e-06 0)
(0.0233443 7.41207e-06 0)
(0.0232891 6.13093e-06 0)
(0.0233295 -1.5073e-05 0)
(0.0233435 -1.53784e-06 0)
(0.0233649 7.19354e-06 0)
(0.0233093 6.45012e-06 0)
(0.0233456 -1.5452e-05 0)
(0.0233563 -1.80491e-06 0)
(0.0233802 6.75034e-06 0)
(0.0233282 6.51986e-06 0)
(0.0233597 -1.59461e-05 0)
(0.0233665 -2.03023e-06 0)
(0.0233945 6.44521e-06 0)
(0.0233466 6.97231e-06 0)
(0.023371 -1.62508e-05 0)
(0.0233731 -2.26191e-06 0)
(0.0234054 6.05069e-06 0)
(0.0223186 8.11284e-06 0)
(0.0222975 -3.80631e-06 0)
(0.022353 -9.74491e-06 0)
(0.0223406 3.37281e-07 0)
(0.0225581 8.43709e-06 0)
(0.022536 -3.95916e-06 0)
(0.0225877 -1.02196e-05 0)
(0.0225676 8.79276e-07 0)
(0.0227498 8.669e-06 0)
(0.0227272 -4.13591e-06 0)
(0.0227767 -1.04523e-05 0)
(0.022751 1.67483e-06 0)
(0.0229016 9.01041e-06 0)
(0.0228782 -4.33799e-06 0)
(0.0229253 -1.07885e-05 0)
(0.0228954 2.54687e-06 0)
(0.0230218 9.13986e-06 0)
(0.0229984 -4.44259e-06 0)
(0.0230437 -1.09349e-05 0)
(0.0230107 3.49745e-06 0)
(0.023116 9.47373e-06 0)
(0.0230924 -4.59393e-06 0)
(0.0231359 -1.11398e-05 0)
(0.0231007 4.27267e-06 0)
(0.0231897 9.55519e-06 0)
(0.0231665 -4.69672e-06 0)
(0.0232088 -1.12876e-05 0)
(0.0231719 5.30224e-06 0)
(0.0232472 9.84359e-06 0)
(0.023224 -4.79279e-06 0)
(0.023265 -1.14163e-05 0)
(0.0232269 6.11706e-06 0)
(0.0232914 9.92324e-06 0)
(0.0232688 -4.91827e-06 0)
(0.0233092 -1.15262e-05 0)
(0.0232704 7.12895e-06 0)
(0.0233262 1.01483e-05 0)
(0.0233035 -4.96649e-06 0)
(0.0233431 -1.16275e-05 0)
(0.0233038 7.98314e-06 0)
(0.0233524 1.024e-05 0)
(0.0233302 -5.14398e-06 0)
(0.0233698 -1.17193e-05 0)
(0.0233306 9.01944e-06 0)
(0.0233738 1.03836e-05 0)
(0.0233512 -5.17288e-06 0)
(0.0233901 -1.19056e-05 0)
(0.0233514 9.64012e-06 0)
(0.0233895 1.05978e-05 0)
(0.0233672 -5.21698e-06 0)
(0.0234064 -1.17392e-05 0)
(0.0233689 1.08357e-05 0)
(0.0234042 1.06335e-05 0)
(0.0233807 -5.41569e-06 0)
(0.0234186 -1.21319e-05 0)
(0.0233829 1.1356e-05 0)
(0.0234151 1.09007e-05 0)
(0.0233915 -5.31671e-06 0)
(0.0234287 -1.20207e-05 0)
(0.0233958 1.22782e-05 0)
)
;

boundaryField
{
    topWall
    {
        type            calculated;
        value           nonuniform List<vector> 0();
    }
    botWall
    {
        type            calculated;
        value           nonuniform List<vector> 0();
    }
    inlet
    {
        type            cyclic;
    }
    outlet
    {
        type            cyclic;
    }
    fixWall
    {
        type            empty;
    }
    procBoundary1to0
    {
        type            processor;
        value           nonuniform List<vector> 8((0.0220004 3.79364e-06 0) (0.0220451 -6.82502e-06 0) (0.0220741 5.36076e-07 0) (0.0220515 8.04478e-06 0) (0.0220186 7.67397e-06 0) (0.0219986 -3.56462e-06 0) (0.0220548 -9.17408e-06 0) (0.0220529 -3.73218e-07 0));
    }
    procBoundary1to2
    {
        type            processor;
        value           nonuniform List<vector> 8((0.0233639 7.18351e-06 0) (0.0233823 -1.63036e-05 0) (0.0233817 -2.61786e-06 0) (0.0234172 5.73664e-06 0) (0.0234283 1.09618e-05 0) (0.0234026 -5.56825e-06 0) (0.0234359 -1.21887e-05 0) (0.0234082 1.3117e-05 0));
    }
}


// ************************************************************************* //
