/*--------------------------------*- C++ -*----------------------------------*\
  =========                 |
  \\      /  F ield         | OpenFOAM: The Open Source CFD Toolbox
   \\    /   O peration     | Website:  https://openfoam.org
    \\  /    A nd           | Version:  dev
     \\/     M anipulation  |

   OpenFOAM for Windows 20.09 (v1)
   Built by CFD Support, www.cfdsupport.com (based on Symscape).
\*---------------------------------------------------------------------------*/
FoamFile
{
    version     2.0;
    format      ascii;
    class       volSymmTensorField;
    location    "6";
    object      UPrime2Mean;
}
// * * * * * * * * * * * * * * * * * * * * * * * * * * * * * * * * * * * * * //

dimensions      [0 2 -2 0 0 0 0];

internalField   nonuniform List<symmTensor> 
120
(
(2.26216e-05 -5.31775e-09 0 7.65687e-11 0 0)
(2.24264e-05 2.85752e-08 0 7.02209e-11 0 0)
(2.22851e-05 -1.22374e-08 0 8.3775e-12 0 0)
(2.26772e-05 -1.97302e-08 0 5.00499e-11 0 0)
(2.3769e-05 -4.45716e-09 0 8.21428e-11 0 0)
(2.35966e-05 3.13823e-08 0 8.24724e-11 0 0)
(2.34323e-05 -1.33052e-08 0 9.39232e-12 0 0)
(2.38225e-05 -2.19765e-08 0 5.47475e-11 0 0)
(2.47655e-05 -4.2964e-09 0 8.6189e-11 0 0)
(2.46079e-05 3.32091e-08 0 9.1515e-11 0 0)
(2.44316e-05 -1.4191e-08 0 1.11434e-11 0 0)
(2.48304e-05 -2.4823e-08 0 6.04563e-11 0 0)
(2.56281e-05 -3.08848e-09 0 9.03925e-11 0 0)
(2.54828e-05 3.57938e-08 0 1.0463e-10 0 0)
(2.5286e-05 -1.53614e-08 0 1.23879e-11 0 0)
(2.56963e-05 -2.78126e-08 0 6.7417e-11 0 0)
(2.63638e-05 -2.74821e-09 0 9.55005e-11 0 0)
(2.62203e-05 3.79826e-08 0 1.15617e-10 0 0)
(2.60095e-05 -1.59618e-08 0 1.40661e-11 0 0)
(2.64408e-05 -3.07954e-08 0 7.41647e-11 0 0)
(2.69888e-05 -1.31851e-09 0 9.84607e-11 0 0)
(2.68475e-05 4.01762e-08 0 1.28889e-10 0 0)
(2.6617e-05 -1.70838e-08 0 1.54846e-11 0 0)
(2.70685e-05 -3.40414e-08 0 8.20148e-11 0 0)
(2.75143e-05 -7.00466e-10 0 1.03483e-10 0 0)
(2.7366e-05 4.22731e-08 0 1.41128e-10 0 0)
(2.71194e-05 -1.77229e-08 0 1.73267e-11 0 0)
(2.75952e-05 -3.73362e-08 0 9.06158e-11 0 0)
(2.79549e-05 8.95825e-10 0 1.06832e-10 0 0)
(2.78011e-05 4.45573e-08 0 1.55534e-10 0 0)
(2.75339e-05 -1.87552e-08 0 1.90159e-11 0 0)
(2.80316e-05 -4.08609e-08 0 1.01172e-10 0 0)
(2.8322e-05 1.63479e-09 0 1.11237e-10 0 0)
(2.81586e-05 4.68555e-08 0 1.70748e-10 0 0)
(2.78714e-05 -1.94397e-08 0 2.07405e-11 0 0)
(2.83903e-05 -4.4427e-08 0 1.11445e-10 0 0)
(2.86266e-05 3.31828e-09 0 1.16396e-10 0 0)
(2.84564e-05 4.91299e-08 0 1.85288e-10 0 0)
(2.81477e-05 -2.03501e-08 0 2.27624e-11 0 0)
(2.86844e-05 -4.82054e-08 0 1.25279e-10 0 0)
(2.88789e-05 4.03298e-09 0 1.19811e-10 0 0)
(2.87038e-05 5.17082e-08 0 2.02466e-10 0 0)
(2.83745e-05 -2.10215e-08 0 2.43068e-11 0 0)
(2.89243e-05 -5.19072e-08 0 1.37412e-10 0 0)
(2.90863e-05 5.68037e-09 0 1.24867e-10 0 0)
(2.89112e-05 5.42068e-08 0 2.20964e-10 0 0)
(2.85681e-05 -2.17226e-08 0 2.61185e-11 0 0)
(2.91281e-05 -5.57363e-08 0 1.53958e-10 0 0)
(2.92567e-05 6.51465e-09 0 1.30083e-10 0 0)
(2.9092e-05 5.66681e-08 0 2.40916e-10 0 0)
(2.87401e-05 -2.27857e-08 0 2.84676e-11 0 0)
(2.92999e-05 -6.00333e-08 0 1.70602e-10 0 0)
(2.93921e-05 7.93457e-09 0 1.32994e-10 0 0)
(2.92486e-05 5.96345e-08 0 2.5867e-10 0 0)
(2.89128e-05 -2.29656e-08 0 2.968e-11 0 0)
(2.94688e-05 -6.36114e-08 0 1.87811e-10 0 0)
(2.94992e-05 8.21575e-09 0 1.40558e-10 0 0)
(2.9396e-05 6.10032e-08 0 2.72427e-10 0 0)
(2.90937e-05 -2.42379e-08 0 3.23515e-11 0 0)
(2.96266e-05 -6.74908e-08 0 2.05284e-10 0 0)
(2.26674e-05 1.4452e-08 0 9.29915e-12 0 0)
(2.25544e-05 -5.91597e-09 0 5.41543e-12 0 0)
(2.27225e-05 1.08758e-08 0 1.76444e-11 0 0)
(2.26386e-05 -1.2012e-08 0 2.27478e-11 0 0)
(2.38538e-05 1.51788e-08 0 9.89094e-12 0 0)
(2.37336e-05 -6.4662e-09 0 6.10812e-12 0 0)
(2.39251e-05 1.08198e-08 0 1.89775e-11 0 0)
(2.38276e-05 -1.2023e-08 0 2.01353e-11 0 0)
(2.48966e-05 1.67457e-08 0 1.14258e-11 0 0)
(2.47729e-05 -7.28065e-09 0 6.78409e-12 0 0)
(2.4984e-05 1.14882e-08 0 2.04414e-11 0 0)
(2.4867e-05 -1.21138e-08 0 1.73578e-11 0 0)
(2.57984e-05 1.65734e-08 0 1.1068e-11 0 0)
(2.56724e-05 -8.19837e-09 0 8.26055e-12 0 0)
(2.59005e-05 1.17721e-08 0 2.25822e-11 0 0)
(2.57625e-05 -1.07438e-08 0 1.40457e-11 0 0)
(2.65711e-05 1.80353e-08 0 1.25985e-11 0 0)
(2.64411e-05 -9.07303e-09 0 8.99551e-12 0 0)
(2.66834e-05 1.23864e-08 0 2.38416e-11 0 0)
(2.65273e-05 -9.84478e-09 0 1.16191e-11 0 0)
(2.72253e-05 1.77147e-08 0 1.21728e-11 0 0)
(2.70914e-05 -1.00281e-08 0 1.02478e-11 0 0)
(2.73431e-05 1.25994e-08 0 2.51891e-11 0 0)
(2.71691e-05 -8.82563e-09 0 9.14604e-12 0 0)
(2.7772e-05 1.85054e-08 0 1.29575e-11 0 0)
(2.76338e-05 -1.09904e-08 0 1.14567e-11 0 0)
(2.78929e-05 1.3146e-08 0 2.67194e-11 0 0)
(2.77064e-05 -7.58476e-09 0 6.79239e-12 0 0)
(2.82268e-05 1.84541e-08 0 1.29302e-11 0 0)
(2.80851e-05 -1.19362e-08 0 1.25321e-11 0 0)
(2.83459e-05 1.34632e-08 0 2.79472e-11 0 0)
(2.81469e-05 -6.26554e-09 0 4.99042e-12 0 0)
(2.85997e-05 1.85961e-08 0 1.30866e-11 0 0)
(2.84548e-05 -1.28227e-08 0 1.3934e-11 0 0)
(2.87161e-05 1.39861e-08 0 2.96385e-11 0 0)
(2.85086e-05 -5.00308e-09 0 3.3882e-12 0 0)
(2.89068e-05 1.88818e-08 0 1.3469e-11 0 0)
(2.876e-05 -1.38335e-08 0 1.50591e-11 0 0)
(2.90165e-05 1.43575e-08 0 3.06668e-11 0 0)
(2.87998e-05 -3.57272e-09 0 2.12566e-12 0 0)
(2.9156e-05 1.84094e-08 0 1.32042e-11 0 0)
(2.90061e-05 -1.45158e-08 0 1.68591e-11 0 0)
(2.92569e-05 1.5e-08 0 3.29506e-11 0 0)
(2.90349e-05 -2.5003e-09 0 1.14103e-12 0 0)
(2.9365e-05 1.91799e-08 0 1.38308e-11 0 0)
(2.92105e-05 -1.55215e-08 0 1.77691e-11 0 0)
(2.94522e-05 1.54276e-08 0 3.4476e-11 0 0)
(2.92242e-05 -9.90861e-10 0 6.62098e-13 0 0)
(2.95383e-05 1.80711e-08 0 1.2881e-11 0 0)
(2.93748e-05 -1.62009e-08 0 1.97279e-11 0 0)
(2.96047e-05 1.60474e-08 0 3.50401e-11 0 0)
(2.9375e-05 2.77286e-10 0 1.13549e-13 0 0)
(2.96949e-05 1.89889e-08 0 1.39806e-11 0 0)
(2.95137e-05 -1.70091e-08 0 2.18619e-11 0 0)
(2.97324e-05 1.68485e-08 0 3.91383e-11 0 0)
(2.95028e-05 1.47217e-09 0 1.34632e-13 0 0)
(2.98335e-05 1.89009e-08 0 1.43079e-11 0 0)
(2.96267e-05 -1.73077e-08 0 2.28065e-11 0 0)
(2.98306e-05 1.72154e-08 0 3.87862e-11 0 0)
(2.96094e-05 2.45595e-09 0 2.3425e-13 0 0)
)
;

boundaryField
{
    topWall
    {
        type            calculated;
        value           nonuniform List<symmTensor> 0();
    }
    botWall
    {
        type            calculated;
        value           nonuniform List<symmTensor> 0();
    }
    inlet
    {
        type            cyclic;
    }
    outlet
    {
        type            cyclic;
    }
    fixWall
    {
        type            empty;
    }
    procBoundary1to0
    {
        type            processor;
        value           nonuniform List<symmTensor> 8((2.13152e-05 -4.91955e-09 0 7.06337e-11 0 0) (2.11189e-05 2.66338e-08 0 6.25251e-11 0 0) (2.09831e-05 -1.08459e-08 0 6.73877e-12 0 0) (2.13677e-05 -1.73366e-08 0 4.43313e-11 0 0) (2.1321e-05 1.3517e-08 0 8.59994e-12 0 0) (2.12197e-05 -5.05074e-09 0 4.12956e-12 0 0) (2.13512e-05 1.00652e-08 0 1.52315e-11 0 0) (2.12645e-05 -1.15373e-08 0 2.56793e-11 0 0));
    }
    procBoundary1to2
    {
        type            processor;
        value           nonuniform List<symmTensor> 8((2.9566e-05 9.10626e-09 0 1.43692e-10 0 0) (2.95386e-05 6.27057e-08 0 2.76077e-10 0 0) (2.93055e-05 -2.49936e-08 0 3.41969e-11 0 0) (2.97749e-05 -7.04701e-08 0 2.20221e-10 0 0) (2.99661e-05 1.87853e-08 0 1.51488e-11 0 0) (2.97675e-05 -1.73493e-08 0 2.5359e-11 0 0) (2.99384e-05 1.76117e-08 0 4.2225e-11 0 0) (2.96969e-05 3.37931e-09 0 5.9229e-13 0 0));
    }
}


// ************************************************************************* //
