/*--------------------------------*- C++ -*----------------------------------*\
  =========                 |
  \\      /  F ield         | OpenFOAM: The Open Source CFD Toolbox
   \\    /   O peration     | Website:  https://openfoam.org
    \\  /    A nd           | Version:  dev
     \\/     M anipulation  |

   OpenFOAM for Windows 20.09 (v1)
   Built by CFD Support, www.cfdsupport.com (based on Symscape).
\*---------------------------------------------------------------------------*/
FoamFile
{
    version     2.0;
    format      ascii;
    class       surfaceScalarField;
    location    "8";
    object      alphaPhi0.water;
}
// * * * * * * * * * * * * * * * * * * * * * * * * * * * * * * * * * * * * * //

dimensions      [0 3 -1 0 0 0 0];

internalField   nonuniform List<scalar> 
217
(
2.20676e-09
-5.8005e-14
2.69958e-09
1.69107e-13
2.8956e-09
-3.65807e-15
-2.86601e-14
2.52968e-09
2.25867e-12
-1.40837e-16
1.74175e-12
6.15139e-18
1.97777e-12
-1.46142e-17
-1.84069e-16
4.80619e-12
9.8234e-15
-4.84669e-19
6.56061e-15
1.53859e-19
5.7123e-15
-1.88344e-19
-1.13395e-18
1.32295e-14
5.96725e-17
-1.85586e-21
5.13713e-17
2.38245e-21
4.63164e-17
-1.67933e-21
-7.06316e-21
5.70506e-17
3.72586e-19
-5.61446e-24
3.42321e-19
2.42295e-23
3.06179e-19
-9.8604e-24
-3.10087e-23
3.11221e-19
2.23938e-21
-2.58166e-26
2.11214e-21
1.39829e-25
1.89136e-21
-7.08641e-26
-1.80273e-25
1.85649e-21
1.28648e-23
-1.30689e-28
1.25673e-23
7.51214e-28
1.13257e-23
-4.71802e-28
-1.01326e-27
1.08293e-23
7.25775e-26
-6.95456e-31
7.22988e-26
3.85771e-30
6.54569e-26
-2.93611e-30
-5.47347e-30
6.16346e-26
4.02151e-28
-3.71611e-33
4.04734e-28
1.90887e-32
3.67418e-28
-1.71959e-32
-2.84738e-32
3.4169e-28
2.17756e-30
-1.98836e-35
2.19919e-30
8.99163e-35
1.99991e-30
-9.46523e-35
-1.41536e-34
1.84154e-30
1.14339e-32
-1.03043e-37
1.14971e-32
3.97784e-37
1.0481e-32
-4.89441e-37
-6.71542e-37
9.56475e-33
5.73935e-35
-5.09745e-40
5.7408e-35
1.64591e-39
5.25888e-35
-2.38533e-39
-3.03721e-39
4.77465e-35
2.72388e-37
-2.31404e-42
2.72189e-37
6.36964e-42
2.52331e-37
-1.0824e-41
-1.30733e-41
2.27113e-37
1.21402e-39
-9.48675e-45
1.21176e-39
2.29641e-44
1.14177e-39
-4.55712e-44
-5.31728e-44
1.02746e-39
5.03838e-42
5.09746e-42
4.82854e-42
4.38808e-42
2.03802e-09
1.48563e-13
1.82278e-09
2.45829e-13
2.22321e-09
1.41888e-12
-1.12967e-13
5.34872e-12
-1.34568e-16
4.90138e-12
3.19832e-17
5.3383e-12
1.02516e-15
-3.2383e-16
1.54577e-14
-9.0525e-19
1.67179e-14
8.33998e-20
2.02626e-14
1.51278e-17
-1.13798e-18
6.22207e-17
-5.18973e-21
6.74343e-17
3.92303e-22
9.44581e-17
1.43619e-19
-3.85311e-21
3.08532e-19
-2.15408e-23
3.05996e-19
3.80606e-24
4.56101e-19
7.1867e-22
-9.56896e-24
1.7949e-21
-1.17864e-25
1.70937e-21
2.14429e-26
2.33775e-21
3.70738e-24
-3.15567e-26
1.04631e-23
-6.17423e-28
9.82891e-24
1.13496e-28
1.24809e-23
1.99879e-26
-9.32194e-29
5.94413e-26
-3.06767e-30
5.55658e-26
6.02485e-31
6.89041e-26
1.12475e-28
-1.85657e-31
3.28062e-28
-1.44547e-32
3.05639e-28
3.16853e-33
3.98486e-28
6.42327e-31
2.878e-34
1.74919e-30
-6.46025e-35
1.6171e-30
1.61808e-35
2.24181e-30
3.71828e-33
6.88895e-36
8.99256e-33
-2.72807e-37
8.22663e-33
7.91248e-38
1.19893e-32
2.02815e-35
6.00764e-38
4.4528e-35
-1.07801e-39
4.03217e-35
3.67369e-40
6.13987e-35
1.04269e-37
4.07273e-40
2.09604e-37
-3.97854e-42
1.88505e-37
1.57788e-42
2.99888e-37
5.01776e-40
2.42985e-42
9.40189e-40
-1.35393e-44
8.38511e-40
6.38818e-45
1.3855e-39
2.24964e-42
1.29067e-44
4.00766e-42
3.55725e-42
5.95507e-42
)
;

boundaryField
{
    topWall
    {
        type            calculated;
        value           nonuniform List<scalar> 0();
    }
    botWall
    {
        type            calculated;
        value           nonuniform List<scalar> 0();
    }
    inlet
    {
        type            cyclic;
        value           nonuniform List<scalar> 
15
(
-3.26159e-12
-2.225e-09
-1.40826e-14
-7.35368e-17
-3.8984e-19
-2.15908e-21
-1.20211e-23
-6.65352e-26
-3.6453e-28
-1.96883e-30
-1.05025e-32
-5.37245e-35
-2.6194e-37
-1.20465e-39
-5.03478e-42
)
;
    }
    outlet
    {
        type            cyclic;
        value           nonuniform List<scalar> 
15
(
3.26159e-12
2.225e-09
1.40826e-14
7.35368e-17
3.8984e-19
2.15908e-21
1.20211e-23
6.65352e-26
3.6453e-28
1.96883e-30
1.05025e-32
5.37245e-35
2.6194e-37
1.20465e-39
5.03478e-42
)
;
    }
    fixWall
    {
        type            empty;
        value           nonuniform List<scalar> 0();
    }
    procBoundary4to3
    {
        type            processor;
        value           nonuniform List<scalar> 8(5.45151e-11 -1.2314e-10 1.05128e-12 2.31483e-11 -6.923e-11 -2.68171e-10 -1.19967e-09 7.79577e-11);
    }
    procBoundary4to5
    {
        type            processor;
        value           nonuniform List<scalar> 8(-3.01154e-48 1.99312e-45 -2.76274e-47 -3.27199e-47 -6.56602e-48 1.42329e-47 1.77674e-44 5.88094e-47);
    }
}


// ************************************************************************* //
