/*--------------------------------*- C++ -*----------------------------------*\
  =========                 |
  \\      /  F ield         | OpenFOAM: The Open Source CFD Toolbox
   \\    /   O peration     | Website:  https://openfoam.org
    \\  /    A nd           | Version:  dev
     \\/     M anipulation  |

   OpenFOAM for Windows 20.09 (v1)
   Built by CFD Support, www.cfdsupport.com (based on Symscape).
\*---------------------------------------------------------------------------*/
FoamFile
{
    version     2.0;
    format      ascii;
    class       volSymmTensorField;
    location    "8";
    object      devReff;
}
// * * * * * * * * * * * * * * * * * * * * * * * * * * * * * * * * * * * * * //

dimensions      [0 2 -2 0 0 0 0];

internalField   nonuniform List<symmTensor> 
120
(
(-2.02565e-08 -0.00465016 -0 -7.32766e-08 -0 9.35331e-08)
(6.70747e-08 -0.00459065 -0 -2.28096e-07 -0 1.61021e-07)
(-4.89659e-07 -0.00452185 -0 4.49067e-07 -0 4.05912e-08)
(-9.22626e-08 -0.00456959 -0 3.24059e-07 -0 -2.31796e-07)
(1.41725e-06 -0.00778717 -0 -1.19727e-06 -0 -2.19984e-07)
(3.36325e-06 -0.00774448 -0 -2.85812e-06 -0 -5.05127e-07)
(-1.63737e-07 -0.00769951 -0 4.44148e-07 -0 -2.80411e-07)
(-3.41779e-06 -0.00774367 -0 2.97356e-06 -0 4.44232e-07)
(1.23804e-06 -0.00757224 -0 -1.20515e-06 -0 -3.28902e-08)
(3.06256e-06 -0.00759715 -0 -3.29909e-06 -0 2.36532e-07)
(-4.07205e-07 -0.00763148 -0 3.10298e-07 -0 9.69077e-08)
(-3.4341e-06 -0.00762848 -0 3.55292e-06 -0 -1.1882e-07)
(9.23149e-07 -0.00684789 -0 -9.11974e-07 -0 -1.11743e-08)
(2.04482e-06 -0.00687054 -0 -2.19983e-06 -0 1.55008e-07)
(-8.70319e-07 -0.00689793 -0 8.12097e-07 -0 5.82221e-08)
(-2.74562e-06 -0.00689187 -0 2.81586e-06 -0 -7.02392e-08)
(5.962e-07 -0.00617066 -0 -5.36315e-07 -0 -5.98853e-08)
(1.15427e-06 -0.00618985 -0 -1.15506e-06 -0 7.94667e-10)
(-1.28225e-06 -0.00621017 -0 1.34779e-06 -0 -6.55402e-08)
(-2.09378e-06 -0.00620277 -0 2.07216e-06 -0 2.16211e-08)
(4.09275e-07 -0.005541 -0 -3.66984e-07 -0 -4.22915e-08)
(6.05691e-07 -0.00555733 -0 -6.43748e-07 -0 3.80569e-08)
(-1.33911e-06 -0.00557197 -0 1.31783e-06 -0 2.128e-08)
(-1.56125e-06 -0.00556152 -0 1.56677e-06 -0 -5.51872e-09)
(2.12597e-07 -0.00495777 -0 -1.49708e-07 -0 -6.28888e-08)
(1.51907e-07 -0.00497127 -0 -1.88374e-07 -0 3.64671e-08)
(-1.38905e-06 -0.00498154 -0 1.42065e-06 -0 -3.15969e-08)
(-1.0273e-06 -0.00496942 -0 1.02542e-06 -0 1.87561e-09)
(1.27059e-07 -0.00441985 -0 -8.29141e-08 -0 -4.41448e-08)
(-2.05341e-07 -0.00443047 -0 1.80262e-07 -0 2.50791e-08)
(-1.30067e-06 -0.0044377 -0 1.30227e-06 -0 -1.59297e-09)
(-6.00417e-07 -0.00442463 -0 5.89997e-07 -0 1.04203e-08)
(5.25735e-08 -0.00392451 -0 9.76025e-10 -0 -5.35495e-08)
(-4.45648e-07 -0.00393407 -0 4.0611e-07 -0 3.95372e-08)
(-1.18517e-06 -0.00393874 -0 1.207e-06 -0 -2.18249e-08)
(-2.4971e-07 -0.00392465 -0 2.52916e-07 -0 -3.20532e-09)
(4.9629e-10 -0.00346998 -0 5.50343e-08 -0 -5.55306e-08)
(-6.6371e-07 -0.00347964 -0 6.17082e-07 -0 4.66281e-08)
(-9.84131e-07 -0.00348183 -0 9.83364e-07 -0 7.66873e-10)
(6.39863e-08 -0.0034682 -0 -6.84613e-08 -0 4.47498e-09)
(-3.25842e-08 -0.00305614 -0 7.04158e-08 -0 -3.78316e-08)
(-8.63088e-07 -0.00306496 -0 8.4075e-07 -0 2.2338e-08)
(-8.14216e-07 -0.00306455 -0 8.47113e-07 -0 -3.28971e-08)
(2.79506e-07 -0.00305342 -0 -2.77503e-07 -0 -2.00228e-09)
(-6.86513e-08 -0.00268222 -0 1.35129e-07 -0 -6.64779e-08)
(-9.78038e-07 -0.00268887 -0 9.60452e-07 -0 1.75868e-08)
(-6.12237e-07 -0.00268547 -0 6.2544e-07 -0 -1.32025e-08)
(4.04538e-07 -0.00267771 -0 -4.09935e-07 -0 5.39777e-09)
(2.72466e-08 -0.00234602 -0 -8.35895e-09 -0 -1.88876e-08)
(-9.53336e-07 -0.00234934 -0 9.08465e-07 -0 4.4871e-08)
(-4.19915e-07 -0.00234499 -0 4.31627e-07 -0 -1.17124e-08)
(4.08573e-07 -0.00234094 -0 -3.99747e-07 -0 -8.82548e-09)
(4.90399e-08 -0.00204407 -0 1.61779e-08 -0 -6.52178e-08)
(-9.60902e-07 -0.0020442 -0 9.56289e-07 -0 4.61276e-09)
(-3.50412e-07 -0.00204102 -0 3.83481e-07 -0 -3.30691e-08)
(4.16181e-07 -0.00203929 -0 -4.37094e-07 -0 2.09138e-08)
(1.35772e-07 -0.00177392 -0 -9.74267e-08 -0 -3.83449e-08)
(-8.38386e-07 -0.00177096 -0 7.76315e-07 -0 6.20709e-08)
(-2.0457e-07 -0.00176923 -0 1.66616e-07 -0 3.79545e-08)
(4.03355e-07 -0.00176889 -0 -4.05131e-07 -0 1.77596e-09)
(3.14926e-07 -0.00464905 -0 -1.03342e-07 -0 -2.11584e-07)
(4.64823e-07 -0.00473736 -0 -5.55788e-07 -0 9.09651e-08)
(1.89605e-07 -0.00466866 -0 -2.61681e-07 -0 7.20763e-08)
(-3.53085e-07 -0.00464366 -0 2.86725e-07 -0 6.63606e-08)
(-4.04361e-06 -0.00780323 -0 3.31545e-06 -0 7.28155e-07)
(-2.73992e-08 -0.00786704 -0 -8.50338e-08 -0 1.12433e-07)
(2.79674e-06 -0.00782216 -0 -2.57563e-06 -0 -2.2111e-07)
(6.31208e-08 -0.00778593 -0 7.24019e-09 -0 -7.0361e-08)
(-3.8719e-06 -0.00759601 -0 4.15927e-06 -0 -2.87366e-07)
(-3.78587e-07 -0.0075596 -0 4.9637e-07 -0 -1.17784e-07)
(2.85695e-06 -0.00759845 -0 -2.89619e-06 -0 3.92358e-08)
(8.42524e-07 -0.00757597 -0 -9.34996e-07 -0 9.24714e-08)
(-2.54383e-06 -0.00686209 -0 2.61494e-06 -0 -7.11121e-08)
(-2.22878e-07 -0.00683052 -0 2.2065e-07 -0 2.22769e-09)
(2.43388e-06 -0.00685975 -0 -2.40083e-06 -0 -3.30532e-08)
(1.12094e-06 -0.006852 -0 -1.23122e-06 -0 1.10272e-07)
(-1.52248e-06 -0.00617676 -0 1.51002e-06 -0 1.24642e-08)
(-2.25376e-07 -0.00615087 -0 2.63908e-07 -0 -3.8532e-08)
(2.12906e-06 -0.00617331 -0 -2.16255e-06 -0 3.34903e-08)
(1.14838e-06 -0.00617528 -0 -1.148e-06 -0 -3.8389e-10)
(-7.21377e-07 -0.00553959 -0 7.05241e-07 -0 1.61353e-08)
(-1.18432e-07 -0.0055199 -0 1.22584e-07 -0 -4.15208e-09)
(1.56704e-06 -0.00553579 -0 -1.48775e-06 -0 -7.92894e-08)
(1.18348e-06 -0.00554582 -0 -1.26459e-06 -0 8.11066e-08)
(-1.34146e-07 -0.00495341 -0 1.26438e-07 -0 7.70801e-09)
(-8.34134e-08 -0.00493894 -0 1.02323e-07 -0 -1.89092e-08)
(1.21545e-06 -0.00494986 -0 -1.20707e-06 -0 -8.37531e-09)
(1.04163e-06 -0.00496277 -0 -1.10502e-06 -0 6.33933e-08)
(3.02615e-07 -0.00441444 -0 -3.21285e-07 -0 1.86699e-08)
(2.37779e-09 -0.00440237 -0 -4.76218e-09 -0 2.38438e-09)
(8.11544e-07 -0.00441013 -0 -7.79155e-07 -0 -3.23885e-08)
(8.84052e-07 -0.0044253 -0 -9.26839e-07 -0 4.27876e-08)
(6.18797e-07 -0.00391885 -0 -6.31727e-07 -0 1.29303e-08)
(7.00049e-08 -0.00390861 -0 -6.51309e-08 -0 -4.87403e-09)
(4.21143e-07 -0.0039156 -0 -3.90929e-07 -0 -3.02143e-08)
(7.18249e-07 -0.00393054 -0 -7.79687e-07 -0 6.14381e-08)
(8.16488e-07 -0.00346621 -0 -8.09272e-07 -0 -7.21598e-09)
(7.78191e-08 -0.0034584 -0 -5.12801e-08 -0 -2.6539e-08)
(5.744e-08 -0.00346501 -0 -9.71356e-09 -0 -4.77265e-08)
(6.25462e-07 -0.00347654 -0 -7.04456e-07 -0 7.89935e-08)
(9.68377e-07 -0.00305458 -0 -9.99117e-07 -0 3.07399e-08)
(1.05811e-07 -0.00304835 -0 -1.00449e-07 -0 -5.36209e-09)
(-1.64716e-07 -0.00305518 -0 1.67867e-07 -0 -3.15067e-09)
(5.275e-07 -0.00306314 -0 -5.62254e-07 -0 3.47543e-08)
(1.00811e-06 -0.0026816 -0 -1.01921e-06 -0 1.10976e-08)
(7.6068e-08 -0.00267644 -0 -7.16813e-08 -0 -4.3867e-09)
(-4.09523e-07 -0.00268401 -0 4.23241e-07 -0 -1.37185e-08)
(5.37667e-07 -0.00269002 -0 -5.59304e-07 -0 2.16366e-08)
(1.00123e-06 -0.00234531 -0 -1.01818e-06 -0 1.69551e-08)
(1.30481e-08 -0.00234081 -0 1.26353e-09 -0 -1.43117e-08)
(-6.40962e-07 -0.00234736 -0 6.59718e-07 -0 -1.87563e-08)
(6.1061e-07 -0.00235276 -0 -6.6777e-07 -0 5.71603e-08)
(1.03194e-06 -0.00204169 -0 -1.05916e-06 -0 2.72165e-08)
(-9.93655e-09 -0.00203878 -0 2.83263e-08 -0 -1.83898e-08)
(-8.02524e-07 -0.00204294 -0 8.0341e-07 -0 -8.86449e-10)
(5.79628e-07 -0.00204798 -0 -5.9746e-07 -0 1.78329e-08)
(1.02435e-06 -0.0017695 -0 -1.04434e-06 -0 1.99901e-08)
(1.91327e-08 -0.00176903 -0 -5.57598e-08 -0 3.66271e-08)
(-1.00531e-06 -0.00177045 -0 1.07468e-06 -0 -6.93653e-08)
(6.31007e-07 -0.00177482 -0 -7.45641e-07 -0 1.14634e-07)
)
;

boundaryField
{
    topWall
    {
        type            calculated;
        value           nonuniform List<symmTensor> 0();
    }
    botWall
    {
        type            calculated;
        value           nonuniform List<symmTensor> 0();
    }
    inlet
    {
        type            cyclic;
    }
    outlet
    {
        type            cyclic;
    }
    fixWall
    {
        type            empty;
    }
    procBoundary4to3
    {
        type            processor;
        value           nonuniform List<symmTensor> 8((-8.42821e-08 -0.00127952 -0 3.59595e-08 -0 4.83226e-08) (-3.14964e-07 -0.00127546 -0 2.2277e-07 -0 9.21938e-08) (-5.34527e-07 -0.00127019 -0 4.8443e-07 -0 5.00969e-08) (3.0052e-07 -0.00127403 -0 -2.24913e-07 -0 -7.56077e-08) (6.90511e-07 -0.00127672 -0 -5.61578e-07 -0 -1.28933e-07) (4.7009e-07 -0.00128186 -0 -4.23372e-07 -0 -4.67174e-08) (-7.8201e-08 -0.00128185 -0 5.41872e-08 -0 2.40138e-08) (-4.56428e-07 -0.00127447 -0 4.27079e-07 -0 2.93492e-08));
    }
    procBoundary4to5
    {
        type            processor;
        value           nonuniform List<symmTensor> 8((1.93384e-07 -0.00153342 -0 -1.41929e-07 -0 -5.14548e-08) (-7.4569e-07 -0.0015272 -0 6.7887e-07 -0 6.68201e-08) (-2.61285e-07 -0.00152709 -0 2.76183e-07 -0 -1.48988e-08) (4.09062e-07 -0.00152789 -0 -4.25592e-07 -0 1.65303e-08) (9.7272e-07 -0.00152615 -0 -9.42772e-07 -0 -2.9948e-08) (-9.77115e-08 -0.00152815 -0 1.68757e-07 -0 -7.10454e-08) (-1.05232e-06 -0.00152752 -0 1.10352e-06 -0 -5.1202e-08) (5.59827e-07 -0.00153143 -0 -6.73009e-07 -0 1.13182e-07));
    }
}


// ************************************************************************* //
