/*--------------------------------*- C++ -*----------------------------------*\
  =========                 |
  \\      /  F ield         | OpenFOAM: The Open Source CFD Toolbox
   \\    /   O peration     | Website:  https://openfoam.org
    \\  /    A nd           | Version:  dev
     \\/     M anipulation  |

   OpenFOAM for Windows 20.09 (v1)
   Built by CFD Support, www.cfdsupport.com (based on Symscape).
\*---------------------------------------------------------------------------*/
FoamFile
{
    version     2.0;
    format      ascii;
    class       volScalarField;
    location    "8";
    object      epsilon;
}
// * * * * * * * * * * * * * * * * * * * * * * * * * * * * * * * * * * * * * //

dimensions      [0 2 -3 0 0 0 0];

internalField   nonuniform List<scalar> 
120
(
4.01712e-14
4.01311e-14
4.01089e-14
4.03452e-14
4.86675e-14
4.8662e-14
4.86754e-14
4.89373e-14
5.3852e-14
5.39406e-14
5.40464e-14
5.42648e-14
5.53911e-14
5.55446e-14
5.56995e-14
5.58586e-14
5.40702e-14
5.42555e-14
5.44232e-14
5.45233e-14
5.08146e-14
5.10067e-14
5.11631e-14
5.12183e-14
4.64517e-14
4.66345e-14
4.67689e-14
4.67922e-14
4.16131e-14
4.17779e-14
4.18873e-14
4.18907e-14
3.67291e-14
3.68726e-14
3.69579e-14
3.69509e-14
3.20662e-14
3.21876e-14
3.22515e-14
3.22411e-14
2.77728e-14
2.78721e-14
2.79184e-14
2.79092e-14
2.39175e-14
2.39954e-14
2.40279e-14
2.40222e-14
2.05172e-14
2.05751e-14
2.05979e-14
2.05961e-14
1.75571e-14
1.75971e-14
1.76137e-14
1.76151e-14
1.50042e-14
1.50284e-14
1.50412e-14
1.50449e-14
4.0476e-14
4.05072e-14
4.04308e-14
4.03039e-14
4.90527e-14
4.90412e-14
4.89938e-14
4.88485e-14
5.42802e-14
5.41467e-14
5.41928e-14
5.40754e-14
5.58097e-14
5.56008e-14
5.56973e-14
5.56394e-14
5.44473e-14
5.42068e-14
5.43219e-14
5.43222e-14
5.11376e-14
5.08982e-14
5.10094e-14
5.10567e-14
4.67219e-14
4.65022e-14
4.65996e-14
4.66749e-14
4.18367e-14
4.16448e-14
4.17258e-14
4.18125e-14
3.69132e-14
3.67515e-14
3.68174e-14
3.69029e-14
3.22176e-14
3.20852e-14
3.2138e-14
3.22143e-14
2.78964e-14
2.77905e-14
2.78322e-14
2.7896e-14
2.40169e-14
2.39338e-14
2.3966e-14
2.4017e-14
2.05952e-14
2.05316e-14
2.0555e-14
2.05945e-14
1.76163e-14
1.7569e-14
1.75847e-14
1.76142e-14
1.50472e-14
1.50134e-14
1.50224e-14
1.50434e-14
)
;

boundaryField
{
    topWall
    {
        type            epsilonWallFunction;
        value           nonuniform List<scalar> 0();
    }
    botWall
    {
        type            epsilonWallFunction;
        value           nonuniform List<scalar> 0();
    }
    inlet
    {
        type            cyclic;
    }
    outlet
    {
        type            cyclic;
    }
    fixWall
    {
        type            empty;
    }
    procBoundary4to3
    {
        type            processor;
        value           nonuniform List<scalar> 8(3.20022e-14 3.19701e-14 3.19593e-14 3.21433e-14 3.22371e-14 3.22503e-14 3.21967e-14 3.20976e-14);
    }
    procBoundary4to5
    {
        type            processor;
        value           nonuniform List<scalar> 8(1.2948e-14 1.29588e-14 1.29715e-14 1.29752e-14 1.29787e-14 1.29545e-14 1.29577e-14 1.29736e-14);
    }
}


// ************************************************************************* //
