/*--------------------------------*- C++ -*----------------------------------*\
  =========                 |
  \\      /  F ield         | OpenFOAM: The Open Source CFD Toolbox
   \\    /   O peration     | Website:  https://openfoam.org
    \\  /    A nd           | Version:  dev
     \\/     M anipulation  |

   OpenFOAM for Windows 20.09 (v1)
   Built by CFD Support, www.cfdsupport.com (based on Symscape).
\*---------------------------------------------------------------------------*/
FoamFile
{
    version     2.0;
    format      ascii;
    class       volVectorField;
    location    "8";
    object      gradp_rgh;
}
// * * * * * * * * * * * * * * * * * * * * * * * * * * * * * * * * * * * * * //

dimensions      [1 -2 -2 0 0 0 0];

internalField   nonuniform List<vector> 
120
(
(-1.05948 -2544.57 0)
(-0.796557 -2556.02 0)
(-1.13955 -2573.55 0)
(-1.66824 -2571.24 0)
(-1.25218 -86.3769 0)
(-1.2527 -98.6467 0)
(-1.24651 -113.716 0)
(-1.24539 -105.138 0)
(-1.25154 -0.0785756 0)
(-1.25221 -0.0408879 0)
(-1.24773 -0.0489465 0)
(-1.24689 -0.113246 0)
(-1.25154 -0.000986322 0)
(-1.2522 0.0001163 0)
(-1.24771 -0.000427849 0)
(-1.24688 0.00132936 0)
(-1.25155 -0.000894233 0)
(-1.2522 0.000307922 0)
(-1.24771 -0.00038547 0)
(-1.24688 0.00121671 0)
(-1.25155 -0.000892773 0)
(-1.25219 0.000353238 0)
(-1.2477 -0.000326548 0)
(-1.24687 0.00114098 0)
(-1.25156 -0.000927202 0)
(-1.25219 0.000409043 0)
(-1.24769 -0.000196295 0)
(-1.24687 0.00106369 0)
(-1.25157 -0.000988795 0)
(-1.25218 0.000428457 0)
(-1.24769 -0.000133642 0)
(-1.24687 0.00104479 0)
(-1.25157 -0.00104022 0)
(-1.25217 0.000459949 0)
(-1.24768 -9.34636e-05 0)
(-1.24688 0.00103231 0)
(-1.25158 -0.00111541 0)
(-1.25217 0.000527004 0)
(-1.24768 -0.000102717 0)
(-1.24688 0.00100848 0)
(-1.25159 -0.00115739 0)
(-1.25216 0.000496491 0)
(-1.24767 -0.000206025 0)
(-1.24688 0.000997299 0)
(-1.2516 -0.00122431 0)
(-1.25215 0.000354558 0)
(-1.24767 -0.000362789 0)
(-1.24688 0.00100935 0)
(-1.25161 -0.00128648 0)
(-1.25214 0.000294024 0)
(-1.24766 -0.000426846 0)
(-1.24688 0.00104559 0)
(-1.25162 -0.00145095 0)
(-1.25214 0.000338926 0)
(-1.24766 -0.000408218 0)
(-1.24687 0.00115525 0)
(-1.25163 -0.00183384 0)
(-1.25213 0.000600533 0)
(-1.24765 -0.000162367 0)
(-1.24686 0.00127109 0)
(-1.81375 -2564.29 0)
(-1.27776 -2550.03 0)
(-0.987216 -2556.31 0)
(-1.25743 -2557.98 0)
(-1.2445 -88.4343 0)
(-1.24898 -70.9906 0)
(-1.25682 -86.6215 0)
(-1.25293 -87.1236 0)
(-1.24464 -0.138241 0)
(-1.24755 -0.123284 0)
(-1.2561 -0.0527131 0)
(-1.25336 -0.0788619 0)
(-1.24466 0.000182815 0)
(-1.24755 -0.00160045 0)
(-1.25608 -0.000258812 0)
(-1.25337 0.000891881 0)
(-1.24469 1.93188e-05 0)
(-1.24756 -0.00153633 0)
(-1.25606 -0.000282543 0)
(-1.25337 0.000944805 0)
(-1.24471 -0.000160937 0)
(-1.24756 -0.00164683 0)
(-1.25604 -0.00028636 0)
(-1.25338 0.000953693 0)
(-1.24473 -0.000271857 0)
(-1.24756 -0.00166622 0)
(-1.25601 -0.000438001 0)
(-1.25338 0.00116255 0)
(-1.24476 -0.000322847 0)
(-1.24756 -0.00158807 0)
(-1.25599 -0.000507471 0)
(-1.25338 0.00132018 0)
(-1.24478 -0.000331863 0)
(-1.24756 -0.00143989 0)
(-1.25597 -0.000604452 0)
(-1.25339 0.00145672 0)
(-1.2448 -0.000358471 0)
(-1.24757 -0.00135737 0)
(-1.25594 -0.00067658 0)
(-1.25339 0.00161552 0)
(-1.24482 -0.00026966 0)
(-1.24757 -0.00126133 0)
(-1.25592 -0.000556417 0)
(-1.25339 0.00157346 0)
(-1.24483 -6.5332e-05 0)
(-1.24757 -0.00106935 0)
(-1.25589 -0.000275603 0)
(-1.2534 0.00129556 0)
(-1.24485 0.000126316 0)
(-1.24757 -0.000857707 0)
(-1.25588 -0.000115907 0)
(-1.25341 0.00116113 0)
(-1.24487 0.000279633 0)
(-1.24757 -0.000637436 0)
(-1.25586 -0.000242243 0)
(-1.25342 0.00138002 0)
(-1.24488 0.000251506 0)
(-1.24758 -0.00031116 0)
(-1.25584 -0.000910073 0)
(-1.25343 0.00218357 0)
)
;

boundaryField
{
    topWall
    {
        type            extrapolatedCalculated;
        value           nonuniform List<vector> 0();
    }
    botWall
    {
        type            extrapolatedCalculated;
        value           nonuniform List<vector> 0();
    }
    inlet
    {
        type            cyclic;
    }
    outlet
    {
        type            cyclic;
    }
    fixWall
    {
        type            empty;
    }
    procBoundary4to3
    {
        type            processor;
        value           nonuniform List<vector> 8((-1.28499 -2561.84 0) (-0.769836 -2549.97 0) (-0.992707 -2535.59 0) (-1.39965 -2544.02 0) (-1.598 -2560.24 0) (-1.38193 -2577.08 0) (-1.1243 -2561.85 0) (-1.44858 -2561.41 0));
    }
    procBoundary4to5
    {
        type            processor;
        value           nonuniform List<vector> 8((-1.25164 -0.00232079 0) (-1.25211 0.00108287 0) (-1.24765 0.000116707 0) (-1.24686 0.00134391 0) (-1.24489 -7.27117e-05 0) (-1.24759 -9.87522e-05 0) (-1.25582 -0.00191898 0) (-1.25344 0.00337982 0));
    }
}


// ************************************************************************* //
