/*--------------------------------*- C++ -*----------------------------------*\
  =========                 |
  \\      /  F ield         | OpenFOAM: The Open Source CFD Toolbox
   \\    /   O peration     | Website:  https://openfoam.org
    \\  /    A nd           | Version:  dev
     \\/     M anipulation  |

   OpenFOAM for Windows 20.09 (v1)
   Built by CFD Support, www.cfdsupport.com (based on Symscape).
\*---------------------------------------------------------------------------*/
FoamFile
{
    version     2.0;
    format      ascii;
    class       volTensorField;
    location    "8";
    object      gradU;
}
// * * * * * * * * * * * * * * * * * * * * * * * * * * * * * * * * * * * * * //

dimensions      [0 0 -1 0 0 0 0];

internalField   nonuniform List<tensor> 
120
(
(0.000301542 0.000157774 0 24.6457 0.000442046 0 0 0 0)
(0.000248957 0.000150905 0 24.3303 0.00103116 0 0 0 0)
(0.00140516 -9.51141e-05 0 23.9659 -0.00108246 0 0 0 0)
(-0.000369764 -1.40372e-06 0 24.2188 -0.00147302 0 0 0 0)
(-0.00433868 0.000177184 0 41.2718 0.0025898 0 0 0 0)
(-0.0102512 0.000130842 0 41.0456 0.00623543 0 0 0 0)
(-0.000309185 -0.000132308 0 40.8076 -0.00192008 0 0 0 0)
(0.0102344 6.43087e-06 0 41.0415 -0.00670272 0 0 0 0)
(-0.00336797 0.000265125 0 40.1326 0.00310649 0 0 0 0)
(-0.00748897 7.57398e-05 0 40.2648 0.0093694 0 0 0 0)
(0.0013359 -0.00031075 0 40.4472 -0.000565483 0 0 0 0)
(0.00878549 -8.36747e-05 0 40.431 -0.0097301 0 0 0 0)
(-0.00247596 0.000287961 0 36.2935 0.00238712 0 0 0 0)
(-0.00500801 6.96429e-05 0 36.4138 0.00624032 0 0 0 0)
(0.00246063 -0.000450633 0 36.5595 -0.00199777 0 0 0 0)
(0.00708975 -0.000180537 0 36.5271 -0.00764816 0 0 0 0)
(-0.00173863 0.000309881 0 32.7042 0.00126254 0 0 0 0)
(-0.00305671 2.65833e-06 0 32.8062 0.00306302 0 0 0 0)
(0.00322427 -0.000542225 0 32.9144 -0.00374532 0 0 0 0)
(0.0056058 -0.000169013 0 32.8749 -0.00543392 0 0 0 0)
(-0.00119665 0.000288325 0 29.367 0.000860435 0 0 0 0)
(-0.00150423 -1.38214e-05 0 29.4539 0.00180678 0 0 0 0)
(0.00360502 -0.000592249 0 29.532 -0.00343585 0 0 0 0)
(0.00412268 -0.000184257 0 29.4763 -0.00416656 0 0 0 0)
(-0.000730037 0.00028056 0 26.2759 0.000230071 0 0 0 0)
(-0.000305916 -6.89464e-05 0 26.3478 0.00059583 0 0 0 0)
(0.00359726 -0.00064178 0 26.4028 -0.00384846 0 0 0 0)
(0.00272731 -0.000142184 0 26.338 -0.0027124 0 0 0 0)
(-0.00045369 0.000246651 0 23.4249 0.000102739 0 0 0 0)
(0.000610614 -8.17968e-05 0 23.4816 -0.000411236 0 0 0 0)
(0.00344257 -0.000647386 0 23.5204 -0.00345523 0 0 0 0)
(0.00161872 -0.00012536 0 23.4507 -0.00153588 0 0 0 0)
(-0.000281226 0.00023088 0 20.7997 -0.000144493 0 0 0 0)
(0.00128574 -0.000128246 0 20.8507 -0.000971419 0 0 0 0)
(0.00308287 -0.000660524 0 20.876 -0.00325638 0 0 0 0)
(0.000653238 -6.95822e-05 0 20.8007 -0.00067872 0 0 0 0)
(-0.000148471 0.00019331 0 18.3907 -0.000292997 0 0 0 0)
(0.0018824 -0.000133662 0 18.4423 -0.0015117 0 0 0 0)
(0.00260998 -0.000642508 0 18.4543 -0.00260388 0 0 0 0)
(-0.000157705 -4.2615e-05 0 18.3815 0.000193281 0 0 0 0)
(-1.39054e-05 0.000171083 0 16.1974 -0.000286856 0 0 0 0)
(0.00234638 -0.000166761 0 16.2445 -0.00216879 0 0 0 0)
(0.00207049 -0.000632108 0 16.2427 -0.00233203 0 0 0 0)
(-0.000745996 9.24002e-06 0 16.1831 0.000730078 0 0 0 0)
(5.75934e-06 0.000130796 0 14.2156 -0.000534259 0 0 0 0)
(0.00263841 -0.000167748 0 14.2512 -0.00249859 0 0 0 0)
(0.00158744 -0.000594193 0 14.2336 -0.0016924 0 0 0 0)
(-0.00105772 4.17374e-05 0 14.1918 0.00110063 0 0 0 0)
(-0.000122256 0.000103782 0 12.4338 -2.7901e-05 0 0 0 0)
(0.00264525 -0.000186063 0 12.4517 -0.00228853 0 0 0 0)
(0.00108174 -0.000572121 0 12.429 -0.00117485 0 0 0 0)
(-0.00110611 8.29519e-05 0 12.4069 0.00103594 0 0 0 0)
(-0.000302783 6.06362e-05 0 10.8335 -0.000215699 0 0 0 0)
(0.00255861 -0.000186864 0 10.8345 -0.00252194 0 0 0 0)
(0.000840958 -0.000538785 0 10.818 -0.00110386 0 0 0 0)
(-0.00104746 0.000107037 0 10.8081 0.00121372 0 0 0 0)
(-0.000461409 3.45738e-05 0 9.40175 0.000156567 0 0 0 0)
(0.00238621 -0.000200866 0 9.38626 -0.00189275 0 0 0 0)
(0.00064269 -0.00050986 0 9.37742 -0.000340952 0 0 0 0)
(-0.00106418 0.000149331 0 9.37498 0.0010783 0 0 0 0)
(-0.00139525 0.000219892 0 24.6398 -0.000286842 0 0 0 0)
(-0.000990724 0.000188471 0 25.1078 0.0017139 0 0 0 0)
(-0.000311451 -0.000282552 0 24.7442 0.000884458 0 0 0 0)
(0.00111153 -0.000337972 0 24.6117 -0.000583964 0 0 0 0)
(0.0126452 0.000264837 0 41.3569 -0.00685634 0 0 0 0)
(0.000370556 0.000211473 0 41.6951 0.000523287 0 0 0 0)
(-0.00799731 -0.000309713 0 41.4578 0.00623949 0 0 0 0)
(-0.000353727 -0.000348747 0 41.2658 -0.000205643 0 0 0 0)
(0.00949902 0.000340325 0 40.2585 -0.0117836 0 0 0 0)
(0.000691128 0.000406735 0 40.0655 -0.00162751 0 0 0 0)
(-0.00746695 -0.000294701 0 40.2721 0.00777888 0 0 0 0)
(-0.00198764 -0.0003988 0 40.1531 0.00272279 0 0 0 0)
(0.0065527 0.00039988 0 36.3687 -0.00711805 0 0 0 0)
(0.00059653 0.000537514 0 36.2012 -0.00057882 0 0 0 0)
(-0.00653738 -0.000237208 0 36.3569 0.00627461 0 0 0 0)
(-0.00267828 -0.00042662 0 36.316 0.00355494 0 0 0 0)
(0.00406761 0.000458148 0 32.7364 -0.00396852 0 0 0 0)
(0.000495138 0.000629946 0 32.599 -0.000801467 0 0 0 0)
(-0.00555326 -0.000225804 0 32.7188 0.00581951 0 0 0 0)
(-0.00304423 -0.000463592 0 32.7294 0.00304118 0 0 0 0)
(0.00195441 0.000477087 0 29.3593 -0.00182613 0 0 0 0)
(0.000302842 0.000700648 0 29.2548 -0.000335851 0 0 0 0)
(-0.00436278 -0.000173164 0 29.3399 0.00373243 0 0 0 0)
(-0.0029213 -0.000502569 0 29.3934 0.00356609 0 0 0 0)
(0.000375913 0.000521993 0 26.2526 -0.000314634 0 0 0 0)
(0.000170936 0.000722589 0 26.1756 -0.000321264 0 0 0 0)
(-0.00324314 -0.000160772 0 26.2344 0.00317655 0 0 0 0)
(-0.00259233 -0.000511458 0 26.3032 0.00309631 0 0 0 0)
(-0.000752455 0.00051694 0 23.396 0.00090088 0 0 0 0)
(1.74675e-08 0.000758835 0 23.3318 1.89384e-05 0 0 0 0)
(-0.00223642 -0.000116204 0 23.3738 0.00197893 0 0 0 0)
(-0.00222935 -0.000551677 0 23.4546 0.00256951 0 0 0 0)
(-0.00160555 0.000547906 0 20.7694 0.00170834 0 0 0 0)
(-0.000198429 0.000740556 0 20.7149 0.000159681 0 0 0 0)
(-0.0011961 -0.000118262 0 20.7528 0.000955893 0 0 0 0)
(-0.00174055 -0.000542728 0 20.8324 0.00222898 0 0 0 0)
(-0.00218282 0.000530913 0 18.3704 0.00212545 0 0 0 0)
(-0.000276549 0.000746294 0 18.3288 6.55638e-05 0 0 0 0)
(-0.000278691 -8.17158e-05 0 18.3646 -0.000100734 0 0 0 0)
(-0.00144814 -0.000570017 0 18.4262 0.00207614 0 0 0 0)
(-0.00248474 0.000545778 0 16.1887 0.00272912 0 0 0 0)
(-0.000294608 0.000703453 0 16.1556 0.00025198 0 0 0 0)
(0.000428148 -8.47529e-05 0 16.1925 -0.000453196 0 0 0 0)
(-0.00130578 -0.000545933 0 16.2352 0.00158207 0 0 0 0)
(-0.00264208 0.000522945 0 14.212 0.00273031 0 0 0 0)
(-0.000213205 0.000693255 0 14.1844 0.000178331 0 0 0 0)
(0.00104888 -5.95476e-05 0 14.2253 -0.00115794 0 0 0 0)
(-0.00136748 -0.000567245 0 14.2577 0.00153949 0 0 0 0)
(-0.00260833 0.000530406 0 12.4296 0.00274312 0 0 0 0)
(-7.25034e-05 0.000638649 0 12.4057 -4.12742e-05 0 0 0 0)
(0.00164885 -6.20668e-05 0 12.4411 -0.00179796 0 0 0 0)
(-0.00146664 -0.000535538 0 12.4702 0.00192107 0 0 0 0)
(-0.00266251 0.000504991 0 10.8205 0.00287889 0 0 0 0)
(-2.2401e-05 0.000617571 0 10.8049 -0.000123798 0 0 0 0)
(0.00212434 -2.6842e-05 0 10.8276 -0.00213139 0 0 0 0)
(-0.00148876 -0.000537744 0 10.8548 0.00163053 0 0 0 0)
(-0.00266155 0.000508114 0 9.37786 0.00282047 0 0 0 0)
(4.63603e-05 0.000555144 0 9.37531 0.000244825 0 0 0 0)
(0.00248027 -3.28281e-05 0 9.38344 -0.00303172 0 0 0 0)
(-0.00136839 -0.00050361 0 9.40703 0.00227973 0 0 0 0)
)
;

boundaryField
{
    topWall
    {
        type            extrapolatedCalculated;
        value           nonuniform List<tensor> 0();
    }
    botWall
    {
        type            extrapolatedCalculated;
        value           nonuniform List<tensor> 0();
    }
    inlet
    {
        type            cyclic;
    }
    outlet
    {
        type            cyclic;
    }
    fixWall
    {
        type            empty;
    }
    procBoundary4to3
    {
        type            processor;
        value           nonuniform List<tensor> 8((0.000351403 0.000150266 0 6.78128 3.27621e-05 0 0 0 0) (0.00107897 0.000156251 0 6.75978 -0.000346027 0 0 0 0) (0.00154925 -9.0572e-05 0 6.73209 -0.00115098 0 0 0 0) (-0.000996739 -6.82946e-06 0 6.75235 0.000395658 0 0 0 0) (-0.00217153 0.000211722 0 6.76639 0.00114651 0 0 0 0) (-0.00136954 0.000191952 0 6.79368 0.000998135 0 0 0 0) (0.000270869 -0.000271415 0 6.79406 -7.99594e-05 0 0 0 0) (0.00128731 -0.000341373 0 6.75502 -0.00105398 0 0 0 0));
    }
    procBoundary4to5
    {
        type            processor;
        value           nonuniform List<tensor> 8((-0.000648823 -8.90505e-06 0 8.12711 0.000239758 0 0 0 0) (0.00215315 -0.000195156 0 8.09438 -0.00162193 0 0 0 0) (0.000652922 -0.000489268 0 8.09405 -0.000771368 0 0 0 0) (-0.00104021 0.000159727 0 8.09768 0.00117162 0 0 0 0) (-0.00265707 0.0004911 0 8.08813 0.00241898 0 0 0 0) (7.06651e-05 0.000520034 0 8.09867 -0.000635476 0 0 0 0) (0.00265297 7.07312e-06 0 8.09584 -0.00306003 0 0 0 0) (-0.00118361 -0.000484606 0 8.11708 0.00208341 0 0 0 0));
    }
}


// ************************************************************************* //
