/*--------------------------------*- C++ -*----------------------------------*\
  =========                 |
  \\      /  F ield         | OpenFOAM: The Open Source CFD Toolbox
   \\    /   O peration     | Website:  https://openfoam.org
    \\  /    A nd           | Version:  dev
     \\/     M anipulation  |

   OpenFOAM for Windows 20.09 (v1)
   Built by CFD Support, www.cfdsupport.com (based on Symscape).
\*---------------------------------------------------------------------------*/
FoamFile
{
    version     2.0;
    format      ascii;
    class       volVectorField;
    location    "8";
    object      gradp;
}
// * * * * * * * * * * * * * * * * * * * * * * * * * * * * * * * * * * * * * //

dimensions      [1 -2 -2 0 0 0 0];

internalField   nonuniform List<vector> 
120
(
(3.75 -32.3345 0)
(-1.24843 -32.6908 0)
(-1.24672 -33.2163 0)
(-1.2503 -33.0467 0)
(3.74846 -10.5176 0)
(-1.25221 -10.6156 0)
(-1.24772 -10.7442 0)
(-1.24688 -10.6762 0)
(3.74847 -9.81096 0)
(-1.2522 -9.8097 0)
(-1.24773 -9.8105 0)
(-1.24689 -9.80931 0)
(3.74846 -9.81072 0)
(-1.2522 -9.80975 0)
(-1.24771 -9.81031 0)
(-1.24688 -9.80843 0)
(3.74845 -9.81089 0)
(-1.2522 -9.80969 0)
(-1.24771 -9.81038 0)
(-1.24688 -9.80878 0)
(3.74845 -9.81089 0)
(-1.25219 -9.80965 0)
(-1.2477 -9.81033 0)
(-1.24687 -9.80886 0)
(3.74844 -9.81093 0)
(-1.25219 -9.80959 0)
(-1.24769 -9.8102 0)
(-1.24687 -9.80894 0)
(3.74843 -9.81099 0)
(-1.25218 -9.80957 0)
(-1.24769 -9.81013 0)
(-1.24687 -9.80896 0)
(3.74843 -9.81104 0)
(-1.25217 -9.80954 0)
(-1.24768 -9.81009 0)
(-1.24688 -9.80897 0)
(3.74842 -9.81112 0)
(-1.25217 -9.80947 0)
(-1.24768 -9.8101 0)
(-1.24688 -9.80899 0)
(3.74841 -9.81116 0)
(-1.25216 -9.8095 0)
(-1.24767 -9.81021 0)
(-1.24688 -9.809 0)
(3.7484 -9.81122 0)
(-1.25215 -9.80965 0)
(-1.24767 -9.81036 0)
(-1.24688 -9.80899 0)
(3.74839 -9.81129 0)
(-1.25214 -9.80971 0)
(-1.24766 -9.81043 0)
(-1.24688 -9.80895 0)
(3.74838 -9.81145 0)
(-1.25214 -9.80966 0)
(-1.24766 -9.81041 0)
(-1.24687 -9.80884 0)
(3.74837 -9.81183 0)
(-1.25213 -9.8094 0)
(-1.24765 -9.81016 0)
(-1.24686 -9.80873 0)
(-1.24934 -32.5965 0)
(-1.24788 -32.1225 0)
(-1.25394 -32.5216 0)
(3.74661 -32.5603 0)
(-1.24462 -10.5395 0)
(-1.24756 -10.3944 0)
(-1.25613 -10.5192 0)
(3.74665 -10.5238 0)
(-1.24464 -9.81061 0)
(-1.24755 -9.8122 0)
(-1.2561 -9.81011 0)
(3.74664 -9.80939 0)
(-1.24466 -9.80949 0)
(-1.24755 -9.81129 0)
(-1.25608 -9.81018 0)
(3.74663 -9.80888 0)
(-1.24469 -9.80998 0)
(-1.24756 -9.81154 0)
(-1.25606 -9.81028 0)
(3.74663 -9.80905 0)
(-1.24471 -9.81016 0)
(-1.24756 -9.81165 0)
(-1.25604 -9.81029 0)
(3.74662 -9.80905 0)
(-1.24473 -9.81027 0)
(-1.24756 -9.81167 0)
(-1.25601 -9.81044 0)
(3.74662 -9.80884 0)
(-1.24476 -9.81032 0)
(-1.24756 -9.81159 0)
(-1.25599 -9.81051 0)
(3.74662 -9.80868 0)
(-1.24478 -9.81033 0)
(-1.24756 -9.81144 0)
(-1.25597 -9.8106 0)
(3.74661 -9.80854 0)
(-1.2448 -9.81036 0)
(-1.24757 -9.81136 0)
(-1.25594 -9.81068 0)
(3.74661 -9.80838 0)
(-1.24482 -9.81027 0)
(-1.24757 -9.81126 0)
(-1.25592 -9.81056 0)
(3.74661 -9.80843 0)
(-1.24483 -9.81007 0)
(-1.24757 -9.81107 0)
(-1.25589 -9.81028 0)
(3.7466 -9.8087 0)
(-1.24485 -9.80987 0)
(-1.24757 -9.81086 0)
(-1.25588 -9.81012 0)
(3.74659 -9.80884 0)
(-1.24487 -9.80972 0)
(-1.24757 -9.81064 0)
(-1.25586 -9.81024 0)
(3.74658 -9.80862 0)
(-1.24488 -9.80975 0)
(-1.24758 -9.81031 0)
(-1.25584 -9.81091 0)
(3.74657 -9.80782 0)
)
;

boundaryField
{
    topWall
    {
        type            extrapolatedCalculated;
        value           nonuniform List<vector> 0();
    }
    botWall
    {
        type            extrapolatedCalculated;
        value           nonuniform List<vector> 0();
    }
    inlet
    {
        type            cyclic;
    }
    outlet
    {
        type            cyclic;
    }
    fixWall
    {
        type            empty;
    }
    procBoundary4to3
    {
        type            processor;
        value           nonuniform List<vector> 8((3.75064 -74.8952 0) (-1.23751 -75.2381 0) (-1.24179 -75.7838 0) (-1.25721 -75.664 0) (-1.26002 -75.3026 0) (-1.24881 -74.8588 0) (-1.24883 -75.1755 0) (3.74353 -75.2242 0));
    }
    procBoundary4to5
    {
        type            processor;
        value           nonuniform List<vector> 8((3.74836 -9.81232 0) (-1.25211 -9.80892 0) (-1.24765 -9.80988 0) (-1.24686 -9.80866 0) (-1.24489 -9.81007 0) (-1.24759 -9.8101 0) (-1.25582 -9.81192 0) (3.74656 -9.80662 0));
    }
}


// ************************************************************************* //
