/*--------------------------------*- C++ -*----------------------------------*\
  =========                 |
  \\      /  F ield         | OpenFOAM: The Open Source CFD Toolbox
   \\    /   O peration     | Website:  https://openfoam.org
    \\  /    A nd           | Version:  dev
     \\/     M anipulation  |

   OpenFOAM for Windows 20.09 (v1)
   Built by CFD Support, www.cfdsupport.com (based on Symscape).
\*---------------------------------------------------------------------------*/
FoamFile
{
    version     2.0;
    format      ascii;
    class       volScalarField;
    location    "8";
    object      k;
}
// * * * * * * * * * * * * * * * * * * * * * * * * * * * * * * * * * * * * * //

dimensions      [0 2 -2 0 0 0 0];

internalField   nonuniform List<scalar> 
120
(
1.1566e-14
1.15577e-14
1.15542e-14
1.15942e-14
1.26987e-14
1.26945e-14
1.26968e-14
1.27391e-14
1.33932e-14
1.33969e-14
1.34094e-14
1.34483e-14
1.36449e-14
1.36536e-14
1.36722e-14
1.37056e-14
1.3539e-14
1.35499e-14
1.35708e-14
1.35984e-14
1.31711e-14
1.31821e-14
1.32029e-14
1.3225e-14
1.26273e-14
1.2637e-14
1.2656e-14
1.26733e-14
1.19745e-14
1.19824e-14
1.19988e-14
1.20124e-14
1.12611e-14
1.1267e-14
1.12805e-14
1.12911e-14
1.05195e-14
1.05236e-14
1.05343e-14
1.05425e-14
9.77162e-15
9.77381e-15
9.78193e-15
9.78856e-15
9.03205e-15
9.03246e-15
9.03841e-15
9.0439e-15
8.31109e-15
8.30971e-15
8.31407e-15
8.31879e-15
7.61591e-15
7.61275e-15
7.61612e-15
7.62025e-15
6.9514e-15
6.94643e-15
6.94937e-15
6.95304e-15
1.16192e-14
1.16164e-14
1.16058e-14
1.1589e-14
1.27603e-14
1.27503e-14
1.27442e-14
1.27256e-14
1.34592e-14
1.34361e-14
1.34395e-14
1.34225e-14
1.37088e-14
1.36774e-14
1.3686e-14
1.36742e-14
1.35971e-14
1.35618e-14
1.35723e-14
1.35663e-14
1.32215e-14
1.31857e-14
1.31959e-14
1.31953e-14
1.26695e-14
1.26354e-14
1.26443e-14
1.26475e-14
1.20093e-14
1.19779e-14
1.1985e-14
1.19909e-14
1.12892e-14
1.1261e-14
1.12665e-14
1.12737e-14
1.0542e-14
1.05173e-14
1.05213e-14
1.05289e-14
9.78926e-15
9.76791e-15
9.7708e-15
9.77816e-15
9.04567e-15
9.0274e-15
9.02935e-15
9.03616e-15
8.32128e-15
8.30584e-15
8.30692e-15
8.31303e-15
7.62313e-15
7.6103e-15
7.61055e-15
7.61588e-15
6.95608e-15
6.94563e-15
6.94509e-15
6.94961e-15
)
;

boundaryField
{
    topWall
    {
        type            kqRWallFunction;
        value           nonuniform List<scalar> 0();
    }
    botWall
    {
        type            kqRWallFunction;
        value           nonuniform List<scalar> 0();
    }
    inlet
    {
        type            cyclic;
    }
    outlet
    {
        type            cyclic;
    }
    fixWall
    {
        type            empty;
    }
    procBoundary4to3
    {
        type            processor;
        value           nonuniform List<scalar> 8(1.03021e-14 1.0294e-14 1.02906e-14 1.03248e-14 1.03472e-14 1.03446e-14 1.03353e-14 1.03212e-14);
    }
    procBoundary4to5
    {
        type            processor;
        value           nonuniform List<scalar> 8(6.32062e-15 6.31378e-15 6.31681e-15 6.32012e-15 6.32314e-15 6.31484e-15 6.31358e-15 6.31736e-15);
    }
}


// ************************************************************************* //
