/*--------------------------------*- C++ -*----------------------------------*\
  =========                 |
  \\      /  F ield         | OpenFOAM: The Open Source CFD Toolbox
   \\    /   O peration     | Website:  https://openfoam.org
    \\  /    A nd           | Version:  dev
     \\/     M anipulation  |

   OpenFOAM for Windows 20.09 (v1)
   Built by CFD Support, www.cfdsupport.com (based on Symscape).
\*---------------------------------------------------------------------------*/
FoamFile
{
    version     2.0;
    format      ascii;
    class       volScalarField;
    location    "8";
    object      nut;
}
// * * * * * * * * * * * * * * * * * * * * * * * * * * * * * * * * * * * * * //

dimensions      [0 2 -1 0 0 0 0];

internalField   nonuniform List<scalar> 
120
(
1.89439e-16
1.91694e-16
1.94527e-16
1.93698e-16
1.3374e-16
1.34466e-16
1.35312e-16
1.35344e-16
1.47415e-16
1.47234e-16
1.46893e-16
1.47585e-16
1.60842e-16
1.60834e-16
1.60662e-16
1.61266e-16
1.66811e-16
1.66905e-16
1.66857e-16
1.6735e-16
1.68374e-16
1.68468e-16
1.68483e-16
1.68981e-16
1.68604e-16
1.68643e-16
1.68683e-16
1.69218e-16
1.69822e-16
1.69786e-16
1.69824e-16
1.7043e-16
1.73356e-16
1.73181e-16
1.73227e-16
1.73956e-16
1.79486e-16
1.79131e-16
1.79219e-16
1.80039e-16
1.87668e-16
1.87197e-16
1.87384e-16
1.88186e-16
1.97101e-16
1.9663e-16
1.9701e-16
1.97699e-16
2.07232e-16
2.06906e-16
2.07398e-16
2.07875e-16
2.17929e-16
2.17825e-16
2.18261e-16
2.18565e-16
2.29205e-16
2.29425e-16
2.29746e-16
2.29911e-16
1.91004e-16
1.87577e-16
1.89978e-16
1.90333e-16
1.34633e-16
1.33507e-16
1.34137e-16
1.34297e-16
1.48215e-16
1.48523e-16
1.47911e-16
1.4802e-16
1.61771e-16
1.61863e-16
1.61485e-16
1.61538e-16
1.67796e-16
1.67743e-16
1.67502e-16
1.67501e-16
1.69406e-16
1.69259e-16
1.69118e-16
1.68987e-16
1.69578e-16
1.69392e-16
1.693e-16
1.69083e-16
1.70703e-16
1.70574e-16
1.70483e-16
1.70119e-16
1.74148e-16
1.74085e-16
1.73921e-16
1.73454e-16
1.80119e-16
1.80065e-16
1.7982e-16
1.79391e-16
1.88124e-16
1.88084e-16
1.8773e-16
1.87396e-16
1.9745e-16
1.97428e-16
1.96916e-16
1.96628e-16
2.07549e-16
2.07562e-16
2.0701e-16
2.06687e-16
2.1839e-16
2.18334e-16
2.17896e-16
2.17513e-16
2.29932e-16
2.29648e-16
2.29445e-16
2.29031e-16
)
;

boundaryField
{
    topWall
    {
        type            nutkWallFunction;
        Cmu             0.09;
        kappa           0.41;
        E               9.8;
        value           nonuniform List<scalar> 0();
    }
    botWall
    {
        type            nutkWallFunction;
        Cmu             0.09;
        kappa           0.41;
        E               9.8;
        value           nonuniform List<scalar> 0();
    }
    inlet
    {
        type            cyclic;
    }
    outlet
    {
        type            cyclic;
    }
    fixWall
    {
        type            empty;
    }
    procBoundary4to3
    {
        type            processor;
        value           nonuniform List<scalar> 8(2.98477e-16 2.98312e-16 2.98214e-16 2.98482e-16 2.98902e-16 2.98632e-16 2.98594e-16 2.98699e-16);
    }
    procBoundary4to5
    {
        type            processor;
        value           nonuniform List<scalar> 8(2.41094e-16 2.41812e-16 2.41947e-16 2.41946e-16 2.42337e-16 2.41703e-16 2.41755e-16 2.41281e-16);
    }
}


// ************************************************************************* //
