/*--------------------------------*- C++ -*----------------------------------*\
  =========                 |
  \\      /  F ield         | OpenFOAM: The Open Source CFD Toolbox
   \\    /   O peration     | Website:  https://openfoam.org
    \\  /    A nd           | Version:  dev
     \\/     M anipulation  |

   OpenFOAM for Windows 20.09 (v1)
   Built by CFD Support, www.cfdsupport.com (based on Symscape).
\*---------------------------------------------------------------------------*/
FoamFile
{
    version     2.0;
    format      ascii;
    class       volScalarField;
    location    "8";
    object      omega;
}
// * * * * * * * * * * * * * * * * * * * * * * * * * * * * * * * * * * * * * //

dimensions      [0 0 -1 0 0 0 0];

internalField   nonuniform List<scalar> 
120
(
38.5912
38.5805
38.5706
38.664
42.583
42.5924
42.5963
42.6833
44.676
44.7373
44.783
44.8342
45.1053
45.2015
45.2659
45.2845
44.3742
44.4904
44.559
44.5504
42.8669
42.9932
43.0572
43.0316
40.8743
41.0035
41.0601
41.0242
38.6126
38.74
38.7884
38.7478
36.2399
36.3624
36.4028
36.3619
33.8694
33.9847
34.0176
33.98
31.5799
31.6857
31.7119
31.6801
29.423
29.5175
29.538
29.5131
27.4294
27.5115
27.5275
27.5095
25.6147
25.6836
25.6965
25.6846
23.9827
24.0386
24.0489
24.0421
38.7061
38.7451
38.7076
38.6418
42.7128
42.7363
42.7155
42.651
44.8106
44.7773
44.8039
44.7634
45.2342
45.1683
45.2182
45.2104
44.4927
44.4115
44.4712
44.4911
42.9752
42.8901
42.9505
42.9924
40.9748
40.8924
40.9493
41.0048
38.7076
38.6312
38.6833
38.7448
36.3309
36.2622
36.3096
36.3706
33.957
33.8969
33.9396
33.9956
31.6633
31.612
31.6501
31.6988
29.5007
29.4582
29.4914
29.532
27.5
27.4661
27.4939
27.5264
25.6766
25.651
25.673
25.698
24.0352
24.0174
24.0335
24.0516
)
;

boundaryField
{
    topWall
    {
        beta1           0.075;
        blended         0;
        type            omegaWallFunction;
        value           nonuniform List<scalar> 0();
    }
    botWall
    {
        beta1           0.075;
        blended         0;
        type            omegaWallFunction;
        value           nonuniform List<scalar> 0();
    }
    inlet
    {
        type            cyclic;
    }
    outlet
    {
        type            cyclic;
    }
    fixWall
    {
        type            empty;
    }
    procBoundary4to3
    {
        type            processor;
        value           nonuniform List<scalar> 8(34.5154 34.5076 34.5075 34.5911 34.6172 34.64 34.6134 34.554);
    }
    procBoundary4to5
    {
        type            processor;
        value           nonuniform List<scalar> 8(22.7614 22.8052 22.8166 22.8111 22.8063 22.7937 22.8038 22.8182);
    }
}


// ************************************************************************* //
