/*--------------------------------*- C++ -*----------------------------------*\
  =========                 |
  \\      /  F ield         | OpenFOAM: The Open Source CFD Toolbox
   \\    /   O peration     | Website:  https://openfoam.org
    \\  /    A nd           | Version:  dev
     \\/     M anipulation  |

   OpenFOAM for Windows 20.09 (v1)
   Built by CFD Support, www.cfdsupport.com (based on Symscape).
\*---------------------------------------------------------------------------*/
FoamFile
{
    version     2.0;
    format      ascii;
    class       volScalarField;
    location    "8";
    object      p;
}
// * * * * * * * * * * * * * * * * * * * * * * * * * * * * * * * * * * * * * //

dimensions      [1 -1 -2 0 0 0 0];

internalField   nonuniform List<scalar> 
120
(
-4.88691
-4.94959
-5.01175
-5.07426
-4.89626
-4.95911
-5.02148
-5.08388
-4.90444
-4.96728
-5.02966
-5.09206
-4.91261
-4.97546
-5.03783
-5.10023
-4.92079
-4.98363
-5.04601
-5.1084
-4.92896
-4.99181
-5.05418
-5.11658
-4.93714
-4.99998
-5.06236
-5.12475
-4.94531
-5.00816
-5.07053
-5.13293
-4.95349
-5.01633
-5.07871
-5.1411
-4.96167
-5.02451
-5.08688
-5.14927
-4.96984
-5.03268
-5.09506
-5.15745
-4.97802
-5.04086
-5.10323
-5.16562
-4.98619
-5.04903
-5.11141
-5.1738
-4.99437
-5.05721
-5.11958
-5.18197
-5.00255
-5.06538
-5.12776
-5.19014
-5.13678
-5.1992
-5.26157
-5.32459
-5.14617
-5.20834
-5.27092
-5.33396
-5.15435
-5.21652
-5.2791
-5.34213
-5.16252
-5.2247
-5.28727
-5.3503
-5.17069
-5.23287
-5.29545
-5.35848
-5.17887
-5.24105
-5.30363
-5.36665
-5.18704
-5.24923
-5.3118
-5.37483
-5.19522
-5.2574
-5.31998
-5.383
-5.2034
-5.26558
-5.32815
-5.39117
-5.21157
-5.27375
-5.33633
-5.39935
-5.21975
-5.28193
-5.3445
-5.40752
-5.22792
-5.29011
-5.35268
-5.4157
-5.2361
-5.29828
-5.36085
-5.42387
-5.24427
-5.30646
-5.36903
-5.43204
-5.25245
-5.31463
-5.3772
-5.44022
)
;

boundaryField
{
    topWall
    {
        type            calculated;
        value           nonuniform List<scalar> 0();
    }
    botWall
    {
        type            calculated;
        value           nonuniform List<scalar> 0();
    }
    inlet
    {
        type            cyclic;
    }
    outlet
    {
        type            cyclic;
    }
    fixWall
    {
        type            empty;
    }
    procBoundary4to3
    {
        type            processor;
        value           nonuniform List<scalar> 8(-4.84237 -4.90462 -4.96612 -5.0288 -5.09184 -5.15481 -5.21672 -5.27969);
    }
    procBoundary4to5
    {
        type            processor;
        value           nonuniform List<scalar> 8(-5.01072 -5.07355 -5.13593 -5.19832 -5.26062 -5.32281 -5.38538 -5.44839);
    }
}


// ************************************************************************* //
