/*--------------------------------*- C++ -*----------------------------------*\
  =========                 |
  \\      /  F ield         | OpenFOAM: The Open Source CFD Toolbox
   \\    /   O peration     | Website:  https://openfoam.org
    \\  /    A nd           | Version:  dev
     \\/     M anipulation  |

   OpenFOAM for Windows 20.09 (v1)
   Built by CFD Support, www.cfdsupport.com (based on Symscape).
\*---------------------------------------------------------------------------*/
FoamFile
{
    version     2.0;
    format      ascii;
    class       volScalarField;
    location    "8";
    object      p_rgh;
}
// * * * * * * * * * * * * * * * * * * * * * * * * * * * * * * * * * * * * * //

dimensions      [1 -1 -2 0 0 0 0];

internalField   nonuniform List<scalar> 
120
(
-4.24954
-4.29193
-4.32919
-4.40589
-4.39337
-4.45628
-4.51864
-4.58093
-4.3935
-4.45635
-4.51872
-4.58112
-4.3935
-4.45635
-4.51872
-4.58112
-4.3935
-4.45635
-4.51872
-4.58112
-4.3935
-4.45635
-4.51872
-4.58112
-4.3935
-4.45635
-4.51872
-4.58111
-4.3935
-4.45634
-4.51872
-4.58111
-4.3935
-4.45634
-4.51872
-4.58111
-4.3935
-4.45634
-4.51872
-4.58111
-4.3935
-4.45634
-4.51872
-4.58111
-4.39351
-4.45634
-4.51872
-4.58111
-4.39351
-4.45634
-4.51872
-4.58111
-4.39351
-4.45634
-4.51872
-4.58111
-4.39351
-4.45634
-4.51872
-4.58111
-4.49602
-4.58726
-4.62379
-4.68599
-4.64318
-4.70538
-4.76807
-4.83106
-4.64341
-4.70558
-4.76816
-4.83119
-4.64341
-4.70558
-4.76816
-4.83119
-4.64341
-4.70558
-4.76816
-4.83119
-4.64341
-4.70559
-4.76816
-4.83119
-4.64341
-4.70559
-4.76816
-4.83119
-4.64341
-4.70559
-4.76816
-4.83119
-4.64341
-4.70559
-4.76816
-4.83119
-4.64341
-4.70559
-4.76816
-4.83119
-4.64341
-4.70559
-4.76817
-4.83118
-4.64341
-4.70559
-4.76817
-4.83118
-4.64341
-4.70559
-4.76817
-4.83118
-4.64341
-4.7056
-4.76817
-4.83118
-4.64341
-4.7056
-4.76817
-4.83118
)
;

boundaryField
{
    topWall
    {
        type            zeroGradient;
    }
    botWall
    {
        type            zeroGradient;
    }
    inlet
    {
        type            fixedJump;
        patchType       cyclic;
        jump            uniform -0.5;
        value           nonuniform List<scalar> 
15
(
-4.36221
-4.21776
-4.36235
-4.36235
-4.36235
-4.36235
-4.36235
-4.36235
-4.36234
-4.36234
-4.36234
-4.36234
-4.36234
-4.36234
-4.36234
)
;
    }
    outlet
    {
        type            fixedJump;
        patchType       cyclic;
        value           nonuniform List<scalar> 
15
(
-4.86221
-4.71776
-4.86235
-4.86235
-4.86235
-4.86235
-4.86235
-4.86235
-4.86234
-4.86234
-4.86234
-4.86234
-4.86234
-4.86234
-4.86234
)
;
    }
    fixWall
    {
        type            empty;
    }
    procBoundary4to3
    {
        type            processor;
        value           nonuniform List<scalar> 8(-0.152412 -0.196251 -0.229395 -0.295522 -0.36936 -0.455323 -0.507553 -0.567753);
    }
    procBoundary4to5
    {
        type            processor;
        value           nonuniform List<scalar> 8(-4.39351 -4.45634 -4.51872 -4.58111 -4.64341 -4.7056 -4.76817 -4.83118);
    }
}


// ************************************************************************* //
