/*--------------------------------*- C++ -*----------------------------------*\
  =========                 |
  \\      /  F ield         | OpenFOAM: The Open Source CFD Toolbox
   \\    /   O peration     | Website:  https://openfoam.org
    \\  /    A nd           | Version:  dev
     \\/     M anipulation  |

   OpenFOAM for Windows 20.09 (v1)
   Built by CFD Support, www.cfdsupport.com (based on Symscape).
\*---------------------------------------------------------------------------*/
FoamFile
{
    version     2.0;
    format      ascii;
    class       surfaceScalarField;
    location    "8";
    object      phi;
}
// * * * * * * * * * * * * * * * * * * * * * * * * * * * * * * * * * * * * * //

dimensions      [0 3 -1 0 0 0 0];

internalField   nonuniform List<scalar> 
217
(
6.97575e-08
-5.67209e-10
6.97639e-08
-1.61198e-10
6.98252e-08
1.38487e-10
-5.61691e-10
6.98092e-08
9.7636e-08
-4.02709e-10
9.71981e-08
2.76646e-10
9.71897e-08
1.46881e-10
-9.87185e-10
9.76152e-08
1.26928e-07
-2.79761e-10
1.26605e-07
6.00209e-10
1.26665e-07
8.64325e-11
-1.35223e-09
1.2703e-07
1.53468e-07
-1.93881e-10
1.53248e-07
8.20386e-10
1.53355e-07
-2.08111e-11
-1.64666e-09
1.5365e-07
1.77419e-07
-1.38626e-10
1.77281e-07
9.59198e-10
1.7742e-07
-1.59842e-10
-1.87928e-09
1.77652e-07
1.98961e-07
-1.05842e-10
1.98887e-07
1.03325e-09
1.99042e-07
-3.14659e-10
-2.05015e-09
1.99213e-07
2.18267e-07
-9.24096e-11
2.18243e-07
1.05732e-09
2.18397e-07
-4.69109e-10
-2.16292e-09
2.1851e-07
2.35505e-07
-9.03937e-11
2.3552e-07
1.04314e-09
2.35668e-07
-6.17064e-10
-2.22955e-09
2.35734e-07
2.50841e-07
-9.55525e-11
2.50883e-07
1.0008e-09
2.51016e-07
-7.49991e-10
-2.25601e-09
2.51043e-07
2.64429e-07
-1.06167e-10
2.64497e-07
9.33546e-10
2.6461e-07
-8.63177e-10
-2.24873e-09
2.64603e-07
2.76419e-07
-1.22285e-10
2.76506e-07
8.46882e-10
2.76597e-07
-9.53844e-10
-2.21699e-09
2.76565e-07
2.86958e-07
-1.3909e-10
2.87057e-07
7.47941e-10
2.87128e-07
-1.02433e-09
-2.17234e-09
2.87083e-07
2.96188e-07
-1.50513e-10
2.96287e-07
6.48589e-10
2.96336e-07
-1.07369e-09
-2.12572e-09
2.9629e-07
3.0424e-07
-1.5435e-10
3.04335e-07
5.52681e-10
3.04375e-07
-1.11297e-09
-2.08158e-09
3.04331e-07
3.11235e-07
3.11324e-07
3.11354e-07
3.1131e-07
6.97508e-08
3.01412e-10
6.9708e-08
5.67138e-10
6.96997e-08
1.15272e-09
-9.37501e-10
9.81383e-08
-2.217e-10
9.81573e-08
5.48212e-10
9.78327e-08
1.47734e-09
-9.05425e-10
1.27422e-07
-6.13535e-10
1.27454e-07
5.15807e-10
1.27153e-07
1.77912e-09
-8.03996e-10
1.53919e-07
-8.82612e-10
1.53947e-07
4.87406e-10
1.53684e-07
2.04218e-09
-6.73809e-10
1.77818e-07
-1.04814e-09
1.77842e-07
4.63256e-10
1.7762e-07
2.26431e-09
-5.28478e-10
1.99291e-07
-1.12564e-09
1.99307e-07
4.47162e-10
1.99134e-07
2.43684e-09
-3.88346e-10
2.18522e-07
-1.13739e-09
2.18533e-07
4.36608e-10
2.18407e-07
2.56275e-09
-2.62004e-10
2.35699e-07
-1.1021e-09
2.35702e-07
4.33156e-10
2.35618e-07
2.64673e-09
-1.50866e-10
2.50972e-07
-1.03128e-09
2.50967e-07
4.38005e-10
2.50926e-07
2.68738e-09
-6.01138e-11
2.64508e-07
-9.36403e-10
2.64499e-07
4.46126e-10
2.64497e-07
2.68984e-09
1.83649e-11
2.76457e-07
-8.28924e-10
2.76449e-07
4.55021e-10
2.76475e-07
2.6629e-09
9.07877e-11
2.86969e-07
-7.14877e-10
2.86963e-07
4.60554e-10
2.87016e-07
2.61014e-09
1.65632e-10
2.96177e-07
-6.02189e-10
2.96177e-07
4.60286e-10
2.96255e-07
2.53237e-09
2.44561e-10
3.04216e-07
-4.87168e-10
3.04218e-07
4.57979e-10
3.04316e-07
2.43485e-09
3.24205e-10
3.11195e-07
3.112e-07
3.11312e-07
)
;

boundaryField
{
    topWall
    {
        type            calculated;
        value           nonuniform List<scalar> 0();
    }
    botWall
    {
        type            calculated;
        value           nonuniform List<scalar> 0();
    }
    inlet
    {
        type            cyclic;
        value           nonuniform List<scalar> 
15
(
-9.78005e-08
-6.97404e-08
-1.27051e-07
-1.53554e-07
-1.77474e-07
-1.98994e-07
-2.1828e-07
-2.35507e-07
-2.50836e-07
-2.64419e-07
-2.76403e-07
-2.86941e-07
-2.96176e-07
-3.04236e-07
-3.11238e-07
)
;
    }
    outlet
    {
        type            cyclic;
        value           nonuniform List<scalar> 
15
(
9.78005e-08
6.97404e-08
1.27051e-07
1.53554e-07
1.77474e-07
1.98994e-07
2.1828e-07
2.35507e-07
2.50836e-07
2.64419e-07
2.76403e-07
2.86941e-07
2.96176e-07
3.04236e-07
3.11238e-07
)
;
    }
    fixWall
    {
        type            empty;
        value           nonuniform List<scalar> 0();
    }
    procBoundary4to3
    {
        type            processor;
        value           nonuniform List<scalar> 8(5.50762e-10 1.55135e-10 -1.98135e-10 5.78364e-10 -2.39511e-10 -5.24389e-10 -1.14357e-09 8.98886e-10);
    }
    procBoundary4to5
    {
        type            processor;
        value           nonuniform List<scalar> 8(-1.47718e-10 4.64646e-10 -1.14253e-09 -2.03257e-09 -3.69841e-10 4.55338e-10 2.32619e-09 3.98659e-10);
    }
}


// ************************************************************************* //
