/*--------------------------------*- C++ -*----------------------------------*\
  =========                 |
  \\      /  F ield         | OpenFOAM: The Open Source CFD Toolbox
   \\    /   O peration     | Website:  https://openfoam.org
    \\  /    A nd           | Version:  dev
     \\/     M anipulation  |

   OpenFOAM for Windows 20.09 (v1)
   Built by CFD Support, www.cfdsupport.com (based on Symscape).
\*---------------------------------------------------------------------------*/
FoamFile
{
    version     2.0;
    format      ascii;
    class       volSymmTensorField;
    location    "8";
    object      R;
}
// * * * * * * * * * * * * * * * * * * * * * * * * * * * * * * * * * * * * * //

dimensions      [0 2 -2 0 0 0 0];

internalField   nonuniform List<symmTensor> 
120
(
(7.71066e-15 -4.66888e-15 -0 7.71061e-15 -0 7.71078e-15)
(7.70519e-15 -4.66399e-15 -0 7.70489e-15 -0 7.70528e-15)
(7.70231e-15 -4.66201e-15 -0 7.70328e-15 -0 7.70286e-15)
(7.7294e-15 -4.69114e-15 -0 7.72983e-15 -0 7.72926e-15)
(8.46682e-15 -5.51974e-15 -0 8.46497e-15 -0 8.46566e-15)
(8.46538e-15 -5.51925e-15 -0 8.46094e-15 -0 8.46262e-15)
(8.46444e-15 -5.52172e-15 -0 8.46487e-15 -0 8.46435e-15)
(8.4903e-15 -5.55471e-15 -0 8.49488e-15 -0 8.49307e-15)
(8.92979e-15 -5.91618e-15 -0 8.92788e-15 -0 8.9288e-15)
(8.93363e-15 -5.92835e-15 -0 8.92866e-15 -0 8.93142e-15)
(8.93931e-15 -5.94137e-15 -0 8.93987e-15 -0 8.93971e-15)
(8.96282e-15 -5.96699e-15 -0 8.96829e-15 -0 8.96541e-15)
(9.09737e-15 -5.83757e-15 -0 9.09581e-15 -0 9.09658e-15)
(9.10412e-15 -5.8566e-15 -0 9.1005e-15 -0 9.10251e-15)
(9.11405e-15 -5.87364e-15 -0 9.11548e-15 -0 9.11484e-15)
(9.1347e-15 -5.89055e-15 -0 9.13946e-15 -0 9.13699e-15)
(9.02651e-15 -5.45548e-15 -0 9.0255e-15 -0 9.02593e-15)
(9.03425e-15 -5.47551e-15 -0 9.03221e-15 -0 9.03323e-15)
(9.04607e-15 -5.49193e-15 -0 9.0484e-15 -0 9.04715e-15)
(9.06376e-15 -5.50157e-15 -0 9.06745e-15 -0 9.06563e-15)
(8.78113e-15 -4.94467e-15 -0 8.78044e-15 -0 8.78073e-15)
(8.78862e-15 -4.96204e-15 -0 8.7875e-15 -0 8.78811e-15)
(8.80072e-15 -4.97553e-15 -0 8.80309e-15 -0 8.80193e-15)
(8.81525e-15 -4.9809e-15 -0 8.81805e-15 -0 8.81664e-15)
(8.41836e-15 -4.43028e-15 -0 8.41803e-15 -0 8.41811e-15)
(8.4248e-15 -4.44337e-15 -0 8.4245e-15 -0 8.4247e-15)
(8.43606e-15 -4.4536e-15 -0 8.43857e-15 -0 8.43727e-15)
(8.44798e-15 -4.45685e-15 -0 8.44982e-15 -0 8.4489e-15)
(7.98314e-15 -3.97811e-15 -0 7.98295e-15 -0 7.98298e-15)
(7.9881e-15 -3.98682e-15 -0 7.98845e-15 -0 7.98831e-15)
(7.99803e-15 -3.99423e-15 -0 8.00038e-15 -0 7.9992e-15)
(8.00771e-15 -3.99669e-15 -0 8.00878e-15 -0 8.00826e-15)
(7.50745e-15 -3.60578e-15 -0 7.5074e-15 -0 7.50735e-15)
(7.51094e-15 -3.61091e-15 -0 7.51172e-15 -0 7.51138e-15)
(7.51927e-15 -3.61616e-15 -0 7.52147e-15 -0 7.52034e-15)
(7.52715e-15 -3.6184e-15 -0 7.52761e-15 -0 7.52738e-15)
(7.01303e-15 -3.30091e-15 -0 7.01308e-15 -0 7.01298e-15)
(7.01508e-15 -3.30355e-15 -0 7.0163e-15 -0 7.01576e-15)
(7.0219e-15 -3.30725e-15 -0 7.02377e-15 -0 7.02284e-15)
(7.0284e-15 -3.30937e-15 -0 7.02827e-15 -0 7.02834e-15)
(6.51438e-15 -3.03976e-15 -0 6.51448e-15 -0 6.51437e-15)
(6.51502e-15 -3.04089e-15 -0 6.51671e-15 -0 6.5159e-15)
(6.52048e-15 -3.04351e-15 -0 6.52213e-15 -0 6.52125e-15)
(6.52599e-15 -3.04543e-15 -0 6.52543e-15 -0 6.5257e-15)
(6.02129e-15 -2.80194e-15 -0 6.0215e-15 -0 6.02129e-15)
(6.02062e-15 -2.80217e-15 -0 6.02264e-15 -0 6.02166e-15)
(6.02497e-15 -2.80404e-15 -0 6.02626e-15 -0 6.02559e-15)
(6.02969e-15 -2.80572e-15 -0 6.02884e-15 -0 6.02928e-15)
(5.54076e-15 -2.5767e-15 -0 5.54072e-15 -0 5.54071e-15)
(5.53876e-15 -2.57628e-15 -0 5.5408e-15 -0 5.53985e-15)
(5.54225e-15 -2.57764e-15 -0 5.54319e-15 -0 5.5427e-15)
(5.54631e-15 -2.5791e-15 -0 5.54542e-15 -0 5.54585e-15)
(5.07733e-15 -2.36095e-15 -0 5.07729e-15 -0 5.0772e-15)
(5.07406e-15 -2.35997e-15 -0 5.07627e-15 -0 5.07517e-15)
(5.07701e-15 -2.36102e-15 -0 5.07786e-15 -0 5.07738e-15)
(5.08065e-15 -2.3623e-15 -0 5.07966e-15 -0 5.08019e-15)
(4.63443e-15 -2.15494e-15 -0 4.63415e-15 -0 4.63422e-15)
(4.62994e-15 -2.15339e-15 -0 4.6319e-15 -0 4.63103e-15)
(4.63266e-15 -2.15431e-15 -0 4.63312e-15 -0 4.63296e-15)
(4.63585e-15 -2.15544e-15 -0 4.63486e-15 -0 4.63536e-15)
(7.74645e-15 -4.70633e-15 -0 7.74603e-15 -0 7.74592e-15)
(7.74476e-15 -4.70969e-15 -0 7.74374e-15 -0 7.74439e-15)
(7.73737e-15 -4.70079e-15 -0 7.73691e-15 -0 7.73725e-15)
(7.72567e-15 -4.68435e-15 -0 7.72632e-15 -0 7.72609e-15)
(8.504e-15 -5.56804e-15 -0 8.50925e-15 -0 8.50741e-15)
(8.50019e-15 -5.56663e-15 -0 8.50015e-15 -0 8.50029e-15)
(8.49814e-15 -5.56099e-15 -0 8.49432e-15 -0 8.49599e-15)
(8.4838e-15 -5.54182e-15 -0 8.48376e-15 -0 8.48371e-15)
(8.96974e-15 -5.96697e-15 -0 8.97604e-15 -0 8.97255e-15)
(8.95707e-15 -5.95071e-15 -0 8.95776e-15 -0 8.95727e-15)
(8.96189e-15 -5.95662e-15 -0 8.95738e-15 -0 8.95969e-15)
(8.94901e-15 -5.9434e-15 -0 8.94761e-15 -0 8.94842e-15)
(9.13704e-15 -5.88347e-15 -0 9.14147e-15 -0 9.13916e-15)
(9.1181e-15 -5.85973e-15 -0 9.11848e-15 -0 9.11829e-15)
(9.12611e-15 -5.87104e-15 -0 9.12198e-15 -0 9.124e-15)
(9.11708e-15 -5.86637e-15 -0 9.11507e-15 -0 9.11622e-15)
(9.06335e-15 -5.49311e-15 -0 9.06605e-15 -0 9.06471e-15)
(9.04097e-15 -5.46835e-15 -0 9.04141e-15 -0 9.04114e-15)
(9.05009e-15 -5.48042e-15 -0 9.04628e-15 -0 9.04823e-15)
(9.04521e-15 -5.48213e-15 -0 9.04317e-15 -0 9.04419e-15)
(8.81368e-15 -4.97373e-15 -0 8.81496e-15 -0 8.81434e-15)
(8.79036e-15 -4.95175e-15 -0 8.79057e-15 -0 8.79046e-15)
(8.7987e-15 -4.96187e-15 -0 8.79596e-15 -0 8.79722e-15)
(8.79791e-15 -4.967e-15 -0 8.79571e-15 -0 8.79692e-15)
(8.44624e-15 -4.45195e-15 -0 8.44648e-15 -0 8.44637e-15)
(8.42352e-15 -4.43408e-15 -0 8.42369e-15 -0 8.42358e-15)
(8.4306e-15 -4.44146e-15 -0 8.42842e-15 -0 8.4295e-15)
(8.43262e-15 -4.44733e-15 -0 8.4307e-15 -0 8.43175e-15)
(8.00648e-15 -3.99385e-15 -0 8.00592e-15 -0 8.00622e-15)
(7.98525e-15 -3.97993e-15 -0 7.98525e-15 -0 7.98525e-15)
(7.99073e-15 -3.98483e-15 -0 7.98929e-15 -0 7.98997e-15)
(7.99471e-15 -3.98999e-15 -0 7.99308e-15 -0 7.99395e-15)
(7.52671e-15 -3.61704e-15 -0 7.52555e-15 -0 7.52615e-15)
(7.50742e-15 -3.60629e-15 -0 7.50729e-15 -0 7.50735e-15)
(7.51139e-15 -3.60933e-15 -0 7.51064e-15 -0 7.51098e-15)
(7.51648e-15 -3.61336e-15 -0 7.51511e-15 -0 7.51588e-15)
(7.02875e-15 -3.30894e-15 -0 7.0272e-15 -0 7.02797e-15)
(7.01158e-15 -3.3005e-15 -0 7.01146e-15 -0 7.01148e-15)
(7.01426e-15 -3.30231e-15 -0 7.0142e-15 -0 7.01416e-15)
(7.01986e-15 -3.30539e-15 -0 7.0186e-15 -0 7.01934e-15)
(6.52714e-15 -3.04559e-15 -0 6.52518e-15 -0 6.5262e-15)
(6.51204e-15 -3.03874e-15 -0 6.51184e-15 -0 6.51193e-15)
(6.51371e-15 -3.0398e-15 -0 6.51404e-15 -0 6.51387e-15)
(6.51929e-15 -3.0423e-15 -0 6.51821e-15 -0 6.5188e-15)
(6.0315e-15 -2.80625e-15 -0 6.02938e-15 -0 6.03046e-15)
(6.01835e-15 -2.80054e-15 -0 6.01819e-15 -0 6.01826e-15)
(6.01914e-15 -2.80118e-15 -0 6.02001e-15 -0 6.01955e-15)
(6.02466e-15 -2.80334e-15 -0 6.02352e-15 -0 6.02413e-15)
(5.54862e-15 -2.57987e-15 -0 5.5464e-15 -0 5.54754e-15)
(5.53724e-15 -2.57507e-15 -0 5.53723e-15 -0 5.53721e-15)
(5.53724e-15 -2.57541e-15 -0 5.53867e-15 -0 5.53792e-15)
(5.54269e-15 -2.57731e-15 -0 5.54129e-15 -0 5.54208e-15)
(5.08328e-15 -2.36319e-15 -0 5.08086e-15 -0 5.08212e-15)
(5.07352e-15 -2.35921e-15 -0 5.07356e-15 -0 5.07351e-15)
(5.07277e-15 -2.35929e-15 -0 5.07463e-15 -0 5.0737e-15)
(5.07792e-15 -2.36095e-15 -0 5.07657e-15 -0 5.07728e-15)
(4.63863e-15 -2.15638e-15 -0 4.63611e-15 -0 4.63741e-15)
(4.63044e-15 -2.15314e-15 -0 4.63035e-15 -0 4.63046e-15)
(4.62884e-15 -2.15298e-15 -0 4.63137e-15 -0 4.62997e-15)
(4.63384e-15 -2.15438e-15 -0 4.63217e-15 -0 4.63321e-15)
)
;

boundaryField
{
    topWall
    {
        type            kqRWallFunction;
        value           nonuniform List<symmTensor> 0();
    }
    botWall
    {
        type            kqRWallFunction;
        value           nonuniform List<symmTensor> 0();
    }
    inlet
    {
        type            cyclic;
    }
    outlet
    {
        type            cyclic;
    }
    fixWall
    {
        type            empty;
    }
    procBoundary4to3
    {
        type            processor;
        value           nonuniform List<symmTensor> 8((6.86791e-15 -2.0241e-15 -0 6.8681e-15 -0 6.86812e-15) (6.86219e-15 -2.01657e-15 -0 6.86304e-15 -0 6.86284e-15) (6.85956e-15 -2.00757e-15 -0 6.86117e-15 -0 6.86048e-15) (6.8837e-15 -2.01545e-15 -0 6.88287e-15 -0 6.88311e-15) (6.8992e-15 -2.02255e-15 -0 6.89721e-15 -0 6.8979e-15) (6.89714e-15 -2.02887e-15 -0 6.89573e-15 -0 6.89632e-15) (6.89011e-15 -2.02859e-15 -0 6.89032e-15 -0 6.89027e-15) (6.8801e-15 -2.01762e-15 -0 6.8815e-15 -0 6.88087e-15));
    }
    procBoundary4to5
    {
        type            processor;
        value           nonuniform List<symmTensor> 8((4.21399e-15 -1.95939e-15 -0 4.21356e-15 -0 4.21368e-15) (4.20823e-15 -1.95727e-15 -0 4.21006e-15 -0 4.20927e-15) (4.21087e-15 -1.95821e-15 -0 4.21156e-15 -0 4.21119e-15) (4.21394e-15 -1.95924e-15 -0 4.21287e-15 -0 4.21344e-15) (4.21668e-15 -1.96017e-15 -0 4.21422e-15 -0 4.21539e-15) (4.20977e-15 -1.9576e-15 -0 4.21011e-15 -0 4.2098e-15) (4.20771e-15 -1.95721e-15 -0 4.21047e-15 -0 4.20899e-15) (4.21229e-15 -1.95838e-15 -0 4.21071e-15 -0 4.21172e-15));
    }
}


// ************************************************************************* //
