/*--------------------------------*- C++ -*----------------------------------*\
  =========                 |
  \\      /  F ield         | OpenFOAM: The Open Source CFD Toolbox
   \\    /   O peration     | Website:  https://openfoam.org
    \\  /    A nd           | Version:  dev
     \\/     M anipulation  |

   OpenFOAM for Windows 20.09 (v1)
   Built by CFD Support, www.cfdsupport.com (based on Symscape).
\*---------------------------------------------------------------------------*/
FoamFile
{
    version     2.0;
    format      ascii;
    class       volVectorField;
    location    "8";
    object      U;
}
// * * * * * * * * * * * * * * * * * * * * * * * * * * * * * * * * * * * * * //

dimensions      [0 1 -1 0 0 0 0];

internalField   nonuniform List<vector> 
120
(
(0.0837374 -1.08387e-05 0)
(0.0836757 -2.3063e-06 0)
(0.0837623 4.25179e-06 0)
(0.0838163 -1.18177e-05 0)
(0.11743 -1.03046e-05 0)
(0.116879 -8.7034e-07 0)
(0.116405 2.7796e-06 0)
(0.116848 -1.41012e-05 0)
(0.152524 -6.52233e-06 0)
(0.152085 8.08609e-06 0)
(0.151775 1.05166e-06 0)
(0.152219 -2.29889e-05 0)
(0.184317 -5.12716e-06 0)
(0.183987 1.47453e-05 0)
(0.183817 1.83712e-06 0)
(0.184233 -3.0318e-05 0)
(0.213013 -2.54379e-06 0)
(0.212775 1.84866e-05 0)
(0.212707 -2.27796e-06 0)
(0.213097 -3.57358e-05 0)
(0.238824 -3.02293e-06 0)
(0.238664 1.98504e-05 0)
(0.238674 -4.40507e-06 0)
(0.239025 -3.93745e-05 0)
(0.261958 -1.10973e-06 0)
(0.261865 2.14979e-05 0)
(0.261927 -8.00437e-06 0)
(0.262224 -4.26801e-05 0)
(0.282618 -2.63948e-06 0)
(0.282577 2.08434e-05 0)
(0.282679 -1.08192e-05 0)
(0.282922 -4.38952e-05 0)
(0.301 -9.38503e-07 0)
(0.301 2.08125e-05 0)
(0.301128 -1.37631e-05 0)
(0.301309 -4.52399e-05 0)
(0.317284 -2.8803e-06 0)
(0.317328 1.92244e-05 0)
(0.317472 -1.62465e-05 0)
(0.317589 -4.50264e-05 0)
(0.331651 -1.42683e-06 0)
(0.331738 1.8293e-05 0)
(0.331885 -1.81029e-05 0)
(0.331945 -4.49178e-05 0)
(0.344279 -3.35839e-06 0)
(0.344403 1.56097e-05 0)
(0.344543 -2.01332e-05 0)
(0.344561 -4.38096e-05 0)
(0.355344 -2.31726e-06 0)
(0.355489 1.41287e-05 0)
(0.355608 -2.09236e-05 0)
(0.355598 -4.30834e-05 0)
(0.365002 -3.4049e-06 0)
(0.365155 1.17955e-05 0)
(0.365258 -2.20913e-05 0)
(0.365239 -4.2083e-05 0)
(0.373399 -2.67676e-06 0)
(0.373547 9.92546e-06 0)
(0.373638 -2.27633e-05 0)
(0.373611 -4.10605e-05 0)
(0.0837254 4.11142e-06 0)
(0.0836767 1.01715e-05 0)
(0.0836263 2.29586e-05 0)
(0.0836456 -1.80837e-05 0)
(0.117428 3.42268e-06 0)
(0.118113 1.23825e-05 0)
(0.117465 2.457e-05 0)
(0.117313 -1.85888e-05 0)
(0.152653 -7.31581e-06 0)
(0.153169 1.10436e-05 0)
(0.152723 3.33577e-05 0)
(0.152422 -1.84264e-05 0)
(0.184526 -1.62166e-05 0)
(0.184889 9.67e-06 0)
(0.184585 3.75348e-05 0)
(0.184235 -1.40508e-05 0)
(0.213268 -1.91792e-05 0)
(0.213504 1.00789e-05 0)
(0.213317 4.38154e-05 0)
(0.212949 -1.25015e-05 0)
(0.239086 -2.28308e-05 0)
(0.23922 8.33422e-06 0)
(0.239117 4.7234e-05 0)
(0.238784 -8.98215e-06 0)
(0.2622 -2.22228e-05 0)
(0.262262 9.51917e-06 0)
(0.262217 5.00361e-05 0)
(0.261938 -6.55803e-06 0)
(0.282841 -2.33552e-05 0)
(0.282846 7.79878e-06 0)
(0.282841 5.25283e-05 0)
(0.282623 -3.82164e-06 0)
(0.301193 -2.07213e-05 0)
(0.301148 9.55073e-06 0)
(0.301174 5.33343e-05 0)
(0.301029 -2.27551e-06 0)
(0.317456 -2.0508e-05 0)
(0.317371 8.06492e-06 0)
(0.317429 5.41214e-05 0)
(0.317343 -1.06666e-07 0)
(0.331811 -1.71789e-05 0)
(0.331696 9.66001e-06 0)
(0.331781 5.31664e-05 0)
(0.331739 1.18472e-06 0)
(0.344437 -1.59594e-05 0)
(0.344297 8.48488e-06 0)
(0.344416 5.33661e-05 0)
(0.344402 2.53012e-06 0)
(0.355497 -1.26284e-05 0)
(0.355337 9.95722e-06 0)
(0.35549 5.12365e-05 0)
(0.355502 3.75054e-06 0)
(0.365153 -1.13876e-05 0)
(0.364973 8.41609e-06 0)
(0.365151 5.03695e-05 0)
(0.365186 5.7319e-06 0)
(0.373532 -7.83023e-06 0)
(0.373345 9.7509e-06 0)
(0.373536 4.76842e-05 0)
(0.373593 6.46809e-06 0)
)
;

boundaryField
{
    topWall
    {
        type            noSlip;
    }
    botWall
    {
        type            noSlip;
    }
    inlet
    {
        type            cyclic;
    }
    outlet
    {
        type            cyclic;
    }
    fixWall
    {
        type            empty;
    }
    procBoundary4to3
    {
        type            processor;
        value           nonuniform List<vector> 8((0.0763537 -1.10414e-05 0) (0.0763287 -2.58894e-06 0) (0.0764616 4.5837e-06 0) (0.0764836 -1.16461e-05 0) (0.0763619 3.90075e-06 0) (0.0762665 9.52602e-06 0) (0.076225 2.30959e-05 0) (0.0762936 -1.76155e-05 0));
    }
    procBoundary4to5
    {
        type            processor;
        value           nonuniform List<vector> 8((0.380672 -3.14395e-06 0) (0.380799 8.64094e-06 0) (0.380887 -2.26595e-05 0) (0.380864 -4.02859e-05 0) (0.380783 -6.68679e-06 0) (0.380599 8.82414e-06 0) (0.38079 4.53166e-05 0) (0.380864 9.53145e-06 0));
    }
}


// ************************************************************************* //
