/*--------------------------------*- C++ -*----------------------------------*\
  =========                 |
  \\      /  F ield         | OpenFOAM: The Open Source CFD Toolbox
   \\    /   O peration     | Website:  https://openfoam.org
    \\  /    A nd           | Version:  dev
     \\/     M anipulation  |

   OpenFOAM for Windows 20.09 (v1)
   Built by CFD Support, www.cfdsupport.com (based on Symscape).
\*---------------------------------------------------------------------------*/
FoamFile
{
    version     2.0;
    format      ascii;
    class       volVectorField;
    location    "8";
    object      UMean;
}
// * * * * * * * * * * * * * * * * * * * * * * * * * * * * * * * * * * * * * //

dimensions      [0 1 -1 0 0 0 0];

internalField   nonuniform List<vector> 
120
(
(0.0520876 7.02271e-06 0)
(0.0520462 -3.2524e-06 0)
(0.0519933 -1.64989e-06 0)
(0.0520205 -5.14445e-06 0)
(0.079079 4.8922e-06 0)
(0.0792508 -1.65332e-06 0)
(0.0789201 7.17775e-07 0)
(0.0791641 -5.7368e-06 0)
(0.104978 1.16588e-06 0)
(0.105096 -2.94776e-06 0)
(0.104804 -5.05758e-06 0)
(0.10503 -1.09872e-05 0)
(0.127681 3.80418e-06 0)
(0.127755 8.65979e-07 0)
(0.127519 3.33829e-06 0)
(0.127716 -9.28262e-06 0)
(0.147466 -3.5992e-06 0)
(0.147528 3.84089e-06 0)
(0.147342 -1.88803e-06 0)
(0.147503 -1.25512e-05 0)
(0.164637 2.68879e-06 0)
(0.164684 -1.3087e-07 0)
(0.164542 1.12527e-06 0)
(0.16467 -1.35852e-05 0)
(0.179441 -5.84674e-06 0)
(0.179493 6.08643e-06 0)
(0.17939 -6.109e-07 0)
(0.179481 -1.32005e-05 0)
(0.192164 8.05201e-07 0)
(0.192208 1.6476e-06 0)
(0.192132 1.60659e-06 0)
(0.192204 -1.49653e-05 0)
(0.203023 -6.34998e-06 0)
(0.203072 6.03066e-06 0)
(0.203019 -5.01752e-07 0)
(0.203069 -1.36037e-05 0)
(0.212256 -2.15354e-06 0)
(0.2123 2.17771e-06 0)
(0.212273 1.35826e-06 0)
(0.212312 -1.56659e-05 0)
(0.22006 -6.12702e-06 0)
(0.220106 5.07599e-06 0)
(0.2201 -3.01302e-07 0)
(0.220125 -1.37789e-05 0)
(0.226634 -4.21705e-06 0)
(0.226661 2.75511e-06 0)
(0.226681 1.17373e-06 0)
(0.226705 -1.33454e-05 0)
(0.232136 -6.22042e-06 0)
(0.232149 4.01476e-06 0)
(0.232188 -1.01412e-06 0)
(0.232208 -1.42401e-05 0)
(0.236726 -5.04e-06 0)
(0.236714 2.4346e-06 0)
(0.236774 1.77049e-07 0)
(0.236798 -1.07529e-05 0)
(0.240527 -5.7606e-06 0)
(0.240499 3.61781e-06 0)
(0.240573 -1.88046e-06 0)
(0.240596 -1.21102e-05 0)
(0.0520076 4.49568e-06 0)
(0.052045 -4.81978e-06 0)
(0.0520182 -4.57334e-06 0)
(0.0520214 8.2602e-06 0)
(0.079208 3.74778e-06 0)
(0.0792575 -4.86219e-06 0)
(0.0792165 -3.59483e-06 0)
(0.0789031 4.52833e-06 0)
(0.105043 4.16753e-06 0)
(0.105064 -4.4332e-06 0)
(0.105074 -5.35127e-07 0)
(0.104864 1.54492e-05 0)
(0.127704 3.39669e-06 0)
(0.12771 -6.97645e-06 0)
(0.127745 1.02255e-06 0)
(0.127585 6.09967e-06 0)
(0.147478 2.74417e-06 0)
(0.14748 -3.20087e-06 0)
(0.147531 1.17014e-06 0)
(0.147409 1.25094e-05 0)
(0.164639 5.05428e-06 0)
(0.16464 -9.19614e-06 0)
(0.164686 3.04306e-06 0)
(0.164579 1.10751e-05 0)
(0.179448 2.71843e-06 0)
(0.179456 -4.01282e-06 0)
(0.1795 2.04901e-06 0)
(0.1794 1.21225e-05 0)
(0.192168 5.47909e-06 0)
(0.192177 -9.17422e-06 0)
(0.192216 3.9122e-06 0)
(0.192123 1.12268e-05 0)
(0.20303 3.33592e-06 0)
(0.203044 -6.04429e-06 0)
(0.20308 3.35219e-06 0)
(0.202994 1.38159e-05 0)
(0.212259 5.55088e-06 0)
(0.212272 -8.99149e-06 0)
(0.212311 4.60646e-06 0)
(0.212231 1.15518e-05 0)
(0.220056 4.25523e-06 0)
(0.220076 -7.84632e-06 0)
(0.220122 4.89079e-06 0)
(0.220046 1.5077e-05 0)
(0.226609 6.84276e-06 0)
(0.226632 -9.07748e-06 0)
(0.226686 4.63459e-06 0)
(0.226622 1.29282e-05 0)
(0.232096 4.66756e-06 0)
(0.232125 -1.05144e-05 0)
(0.232188 4.34152e-06 0)
(0.232134 1.47225e-05 0)
(0.236667 8.58419e-06 0)
(0.236695 -9.86308e-06 0)
(0.236762 4.82378e-06 0)
(0.236728 1.48894e-05 0)
(0.240457 6.83032e-06 0)
(0.240488 -1.24058e-05 0)
(0.24056 3.42659e-06 0)
(0.240541 1.4486e-05 0)
)
;

boundaryField
{
    topWall
    {
        type            calculated;
        value           nonuniform List<vector> 0();
    }
    botWall
    {
        type            calculated;
        value           nonuniform List<vector> 0();
    }
    inlet
    {
        type            cyclic;
    }
    outlet
    {
        type            cyclic;
    }
    fixWall
    {
        type            empty;
    }
    procBoundary4to3
    {
        type            processor;
        value           nonuniform List<vector> 8((0.0464344 7.96031e-06 0) (0.0463902 -4.46496e-06 0) (0.0463649 -2.75731e-06 0) (0.0463727 -5.28134e-06 0) (0.0463704 5.09758e-06 0) (0.046399 -4.57976e-06 0) (0.0463675 -4.90918e-06 0) (0.0463754 1.07039e-05 0));
    }
    procBoundary4to5
    {
        type            processor;
        value           nonuniform List<vector> 8((0.243674 -4.83798e-06 0) (0.243613 8.71883e-07 0) (0.243707 -2.39269e-06 0) (0.243737 -1.16665e-05 0) (0.243587 8.24129e-06 0) (0.243613 -1.22134e-05 0) (0.243681 4.91323e-06 0) (0.243692 1.4876e-05 0));
    }
}


// ************************************************************************* //
