/*--------------------------------*- C++ -*----------------------------------*\
  =========                 |
  \\      /  F ield         | OpenFOAM: The Open Source CFD Toolbox
   \\    /   O peration     | Website:  https://openfoam.org
    \\  /    A nd           | Version:  dev
     \\/     M anipulation  |

   OpenFOAM for Windows 20.09 (v1)
   Built by CFD Support, www.cfdsupport.com (based on Symscape).
\*---------------------------------------------------------------------------*/
FoamFile
{
    version     2.0;
    format      ascii;
    class       volSymmTensorField;
    location    "8";
    object      UPrime2Mean;
}
// * * * * * * * * * * * * * * * * * * * * * * * * * * * * * * * * * * * * * //

dimensions      [0 2 -2 0 0 0 0];

internalField   nonuniform List<symmTensor> 
120
(
(0.000242211 -1.40075e-07 0 3.69753e-10 0 0)
(0.000242385 8.14667e-08 0 6.4214e-11 0 0)
(0.000243936 1.684e-08 0 4.1276e-11 0 0)
(0.000243407 -1.24241e-07 0 1.01993e-10 0 0)
(0.000363862 -1.37389e-07 0 1.70666e-10 0 0)
(0.000350689 1.55144e-07 0 1.65354e-10 0 0)
(0.000352591 9.5556e-09 0 3.4126e-11 0 0)
(0.0003647 -1.39838e-07 0 6.66522e-11 0 0)
(0.000570646 -4.3644e-08 0 1.24437e-10 0 0)
(0.000558395 8.71819e-08 0 2.18846e-11 0 0)
(0.000562104 -1.13568e-07 0 2.01942e-10 0 0)
(0.00057424 -3.08319e-07 0 2.98151e-10 0 0)
(0.00081959 -1.82944e-07 0 1.49565e-10 0 0)
(0.000809378 3.58204e-07 0 2.35507e-10 0 0)
(0.000814689 -1.59742e-07 0 1.58981e-10 0 0)
(0.000825803 -3.24601e-07 0 1.31444e-10 0 0)
(0.00110518 1.19078e-07 0 4.04881e-11 0 0)
(0.00109775 2.43878e-07 0 8.83764e-11 0 0)
(0.00110393 -2.87014e-07 0 2.78709e-10 0 0)
(0.00111394 -4.9008e-07 0 3.36831e-10 0 0)
(0.00142149 -1.50706e-07 0 4.5889e-11 0 0)
(0.00141667 4.06775e-07 0 1.22522e-10 0 0)
(0.00142356 -4.17931e-07 0 4.71375e-10 0 0)
(0.00143192 -5.66331e-07 0 2.77919e-10 0 0)
(0.00176097 1.90854e-07 0 2.89871e-11 0 0)
(0.00175909 3.26061e-07 0 1.11671e-10 0 0)
(0.00176566 -4.8163e-07 0 3.71563e-10 0 0)
(0.00177255 -6.394e-07 0 3.50262e-10 0 0)
(0.0021164 -1.00844e-07 0 8.71904e-12 0 0)
(0.00211666 4.4927e-07 0 9.97698e-11 0 0)
(0.00212317 -6.34978e-07 0 5.83591e-10 0 0)
(0.00212838 -7.22365e-07 0 3.32881e-10 0 0)
(0.00247986 1.95181e-07 0 1.80854e-11 0 0)
(0.00248221 3.30619e-07 0 7.20613e-11 0 0)
(0.00248803 -6.83128e-07 0 4.76981e-10 0 0)
(0.00249175 -7.75635e-07 0 3.5746e-10 0 0)
(0.00284417 -7.35558e-08 0 3.80149e-12 0 0)
(0.00284811 4.34783e-07 0 6.92184e-11 0 0)
(0.00285351 -8.2673e-07 0 6.29029e-10 0 0)
(0.00285536 -8.12434e-07 0 3.25987e-10 0 0)
(0.00320201 1.64864e-07 0 1.01502e-11 0 0)
(0.0032077 2.89253e-07 0 4.12773e-11 0 0)
(0.00321187 -8.68592e-07 0 5.55107e-10 0 0)
(0.00321227 -8.75521e-07 0 3.37558e-10 0 0)
(0.00354792 -4.36922e-08 0 2.65687e-12 0 0)
(0.00355546 4.15774e-07 0 5.11079e-11 0 0)
(0.00355828 -9.10918e-07 0 5.36662e-10 0 0)
(0.00355697 -7.68541e-07 0 2.26395e-10 0 0)
(0.00387702 4.23818e-08 0 1.0257e-11 0 0)
(0.00388606 2.52848e-07 0 2.05738e-11 0 0)
(0.00388708 -9.96239e-07 0 5.90444e-10 0 0)
(0.00388467 -9.96402e-07 0 3.64812e-10 0 0)
(0.00418626 -1.58243e-08 0 2.95313e-12 0 0)
(0.00419601 3.12776e-07 0 2.62295e-11 0 0)
(0.0041959 -9.68745e-07 0 4.67653e-10 0 0)
(0.00419276 -7.63071e-07 0 1.94842e-10 0 0)
(0.00447314 -5.18664e-08 0 1.81427e-11 0 0)
(0.00448283 2.74436e-07 0 1.86884e-11 0 0)
(0.00448156 -1.01162e-06 0 5.03073e-10 0 0)
(0.00447782 -9.40561e-07 0 2.61576e-10 0 0)
(0.000242404 -1.43363e-08 0 4.13493e-11 0 0)
(0.000242211 2.59423e-08 0 1.29798e-10 0 0)
(0.000242127 2.11346e-07 0 2.59658e-10 0 0)
(0.000241802 -8.59368e-08 0 1.12794e-10 0 0)
(0.000363483 -2.45159e-08 0 3.09893e-11 0 0)
(0.000371603 4.50093e-08 0 1.6926e-10 0 0)
(0.00036267 2.60341e-07 0 2.69387e-10 0 0)
(0.00036433 -8.23496e-08 0 9.81166e-11 0 0)
(0.00057324 -4.00698e-08 0 5.04969e-11 0 0)
(0.00058073 3.7319e-08 0 9.06631e-11 0 0)
(0.000573307 4.36575e-07 0 5.27451e-10 0 0)
(0.000571767 -5.98954e-08 0 3.08783e-10 0 0)
(0.000825011 -1.17084e-07 0 6.87516e-11 0 0)
(0.000830879 5.31225e-08 0 2.01632e-10 0 0)
(0.0008253 4.56604e-07 0 3.65407e-10 0 0)
(0.000821604 -1.17573e-07 0 7.4118e-11 0 0)
(0.00111274 -1.26646e-07 0 8.3269e-11 0 0)
(0.00111694 5.97546e-08 0 6.08059e-11 0 0)
(0.00111328 6.17412e-07 0 5.71029e-10 0 0)
(0.00110751 -1.26001e-07 0 1.16106e-10 0 0)
(0.00143005 -1.66834e-07 0 1.57066e-10 0 0)
(0.00143234 5.51071e-08 0 2.54445e-10 0 0)
(0.00143051 7.54612e-07 0 5.89354e-10 0 0)
(0.0014244 2.96821e-08 0 1.55606e-10 0 0)
(0.00176958 -1.55239e-07 0 1.1982e-10 0 0)
(0.00177026 8.11261e-08 0 7.89017e-11 0 0)
(0.00176989 8.10345e-07 0 6.2997e-10 0 0)
(0.00176386 -8.44812e-08 0 7.7896e-11 0 0)
(0.00212441 -1.91351e-07 0 1.79174e-10 0 0)
(0.00212372 5.37339e-08 0 2.38803e-10 0 0)
(0.00212453 9.55383e-07 0 6.2998e-10 0 0)
(0.00211924 9.56614e-08 0 1.28772e-10 0 0)
(0.00248671 -1.35402e-07 0 1.24638e-10 0 0)
(0.00248442 1.13475e-07 0 1.22201e-10 0 0)
(0.00248662 1.0011e-06 0 6.60002e-10 0 0)
(0.00248269 1.37683e-08 0 1.02339e-10 0 0)
(0.0028497 -1.62608e-07 0 1.5948e-10 0 0)
(0.00284637 5.77711e-08 0 2.00384e-10 0 0)
(0.00284962 1.09779e-06 0 6.20522e-10 0 0)
(0.00284688 1.49781e-07 0 1.13654e-10 0 0)
(0.00320659 -7.83417e-08 0 1.19125e-10 0 0)
(0.0032022 1.32664e-07 0 1.47032e-10 0 0)
(0.00320664 1.11774e-06 0 6.12407e-10 0 0)
(0.00320485 1.2441e-07 0 1.36368e-10 0 0)
(0.00355227 -5.36097e-08 0 1.51611e-10 0 0)
(0.00354718 1.0323e-07 0 1.80079e-10 0 0)
(0.00355269 1.20616e-06 0 6.08e-10 0 0)
(0.0035512 1.98306e-07 0 1.21e-10 0 0)
(0.00388127 -7.06185e-08 0 8.18243e-11 0 0)
(0.00387531 1.15991e-07 0 1.77482e-10 0 0)
(0.0038822 1.17375e-06 0 5.51386e-10 0 0)
(0.00388126 1.29397e-07 0 8.96397e-11 0 0)
(0.0041906 5.96926e-08 0 1.60976e-10 0 0)
(0.00418419 1.24245e-07 0 1.61135e-10 0 0)
(0.00419205 1.25322e-06 0 5.55659e-10 0 0)
(0.00419139 2.91116e-07 0 1.54733e-10 0 0)
(0.00447655 -7.54252e-09 0 7.34316e-11 0 0)
(0.00446978 1.37905e-07 0 2.04008e-10 0 0)
(0.00447834 1.19903e-06 0 5.04963e-10 0 0)
(0.00447878 1.68377e-07 0 6.84199e-11 0 0)
)
;

boundaryField
{
    topWall
    {
        type            calculated;
        value           nonuniform List<symmTensor> 0();
    }
    botWall
    {
        type            calculated;
        value           nonuniform List<symmTensor> 0();
    }
    inlet
    {
        type            cyclic;
    }
    outlet
    {
        type            cyclic;
    }
    fixWall
    {
        type            empty;
    }
    procBoundary4to3
    {
        type            processor;
        value           nonuniform List<symmTensor> 8((0.000215038 -1.35085e-07 0 4.26212e-10 0 0) (0.000216008 5.97188e-08 0 4.63517e-11 0 0) (0.000217328 1.27573e-08 0 5.36711e-11 0 0) (0.000216304 -1.23929e-07 0 1.24651e-10 0 0) (0.000215308 -7.84743e-09 0 5.29309e-11 0 0) (0.000214823 2.16365e-08 0 1.18843e-10 0 0) (0.000214784 2.06361e-07 0 2.87237e-10 0 0) (0.000214767 -7.50469e-08 0 1.43477e-10 0 0));
    }
    procBoundary4to5
    {
        type            processor;
        value           nonuniform List<symmTensor> 8((0.0047352 -4.31982e-08 0 1.31805e-11 0 0) (0.0047443 1.54298e-07 0 1.0157e-11 0 0) (0.00474288 -1.09303e-06 0 5.44512e-10 0 0) (0.0047392 -9.61628e-07 0 2.70136e-10 0 0) (0.00473846 6.42659e-08 0 1.00965e-10 0 0) (0.0047321 8.52867e-08 0 1.70952e-10 0 0) (0.00474129 1.19289e-06 0 4.51778e-10 0 0) (0.00474173 3.50516e-07 0 1.31026e-10 0 0));
    }
}


// ************************************************************************* //
