/*--------------------------------*- C++ -*----------------------------------*\
  =========                 |
  \\      /  F ield         | OpenFOAM: The Open Source CFD Toolbox
   \\    /   O peration     | Website:  https://openfoam.org
    \\  /    A nd           | Version:  dev
     \\/     M anipulation  |

   OpenFOAM for Windows 20.09 (v1)
   Built by CFD Support, www.cfdsupport.com (based on Symscape).
\*---------------------------------------------------------------------------*/
FoamFile
{
    version     2.0;
    format      ascii;
    class       surfaceScalarField;
    location    "4";
    object      alphaPhi0.water;
}
// * * * * * * * * * * * * * * * * * * * * * * * * * * * * * * * * * * * * * //

dimensions      [0 3 -1 0 0 0 0];

internalField   nonuniform List<scalar> 
217
(
1.98029e-08
6.39021e-10
1.97614e-08
-8.61922e-10
1.97549e-08
-4.50296e-11
4.32831e-10
1.97716e-08
2.00523e-08
6.38646e-10
1.99998e-08
-8.09377e-10
1.99874e-08
-3.26315e-11
4.11123e-10
2.00091e-08
2.03565e-08
6.35589e-10
2.02976e-08
-7.50457e-10
2.02819e-08
-1.69492e-11
3.87421e-10
2.03056e-08
2.0727e-08
6.32103e-10
2.06636e-08
-6.87029e-10
2.06467e-08
-6.16456e-14
3.61692e-10
2.06724e-08
2.11791e-08
6.2925e-10
2.11117e-08
-6.19642e-10
2.10941e-08
1.76421e-11
3.34233e-10
2.11215e-08
2.1726e-08
6.26955e-10
2.1656e-08
-5.49749e-10
2.16385e-08
3.51812e-11
3.05107e-10
2.16676e-08
2.23842e-08
6.25858e-10
2.2312e-08
-4.77575e-10
2.22947e-08
5.25268e-11
2.73965e-10
2.23258e-08
2.31711e-08
6.25582e-10
2.30975e-08
-4.04044e-10
2.3081e-08
6.91389e-11
2.40764e-10
2.31142e-08
2.41059e-08
6.27229e-10
2.40313e-08
-3.29418e-10
2.40153e-08
8.51922e-11
2.05373e-10
2.40506e-08
2.52094e-08
6.29647e-10
2.51339e-08
-2.54008e-10
2.51187e-08
1.00447e-10
1.67757e-10
2.51563e-08
2.6503e-08
6.3485e-10
2.64271e-08
-1.78203e-10
2.64124e-08
1.15221e-10
1.28544e-10
2.64516e-08
2.80107e-08
6.41093e-10
2.79343e-08
-1.01759e-10
2.79203e-08
1.2924e-10
8.82581e-11
2.79605e-08
2.97576e-08
6.51309e-10
2.968e-08
-2.42067e-11
2.96658e-08
1.43418e-10
4.93492e-11
2.97047e-08
3.17722e-08
6.63014e-10
3.16888e-08
5.91336e-11
3.16736e-08
1.58443e-10
1.28876e-11
3.17102e-08
3.37156e-08
3.34433e-08
3.34679e-08
3.34112e-08
1.97983e-08
3.02592e-10
1.98127e-08
-8.22628e-10
1.98119e-08
-9.49947e-10
1.29197e-09
2.0039e-08
2.72724e-10
2.00531e-08
-8.3684e-10
2.0044e-08
-9.40863e-10
1.28415e-09
2.03388e-08
2.39535e-10
2.03513e-08
-8.49385e-10
2.03394e-08
-9.28918e-10
1.27012e-09
2.07073e-08
2.04636e-10
2.07186e-08
-8.60609e-10
2.07049e-08
-9.15265e-10
1.25148e-09
2.11581e-08
1.68076e-10
2.11687e-08
-8.71184e-10
2.11546e-08
-9.0119e-10
1.22977e-09
2.17056e-08
1.30133e-10
2.17151e-08
-8.80626e-10
2.17004e-08
-8.86483e-10
1.20646e-09
2.23653e-08
9.06861e-11
2.23742e-08
-8.89475e-10
2.23592e-08
-8.71451e-10
1.1825e-09
2.31549e-08
4.99713e-11
2.31626e-08
-8.97157e-10
2.31464e-08
-8.55232e-10
1.15809e-09
2.40934e-08
7.22672e-12
2.41004e-08
-9.04114e-10
2.40835e-08
-8.38363e-10
1.13408e-09
2.52014e-08
-3.78887e-11
2.52066e-08
-9.09304e-10
2.5188e-08
-8.19656e-10
1.11032e-09
2.65e-08
-8.63287e-11
2.65052e-08
-9.14446e-10
2.64853e-08
-7.99728e-10
1.08751e-09
2.80121e-08
-1.37897e-10
2.8016e-08
-9.18302e-10
2.79935e-08
-7.7724e-10
1.06412e-09
2.97605e-08
-1.93653e-10
2.9767e-08
-9.24808e-10
2.97444e-08
-7.54633e-10
1.04082e-09
3.17679e-08
-2.51786e-10
3.17758e-08
-9.32793e-10
3.17536e-08
-7.31944e-10
1.01156e-09
3.35571e-08
3.34165e-08
3.36476e-08
)
;

boundaryField
{
    topWall
    {
        type            calculated;
        value           nonuniform List<scalar> 0();
    }
    botWall
    {
        type            calculated;
        value           nonuniform List<scalar> 0();
    }
    inlet
    {
        type            cyclic;
        value           nonuniform List<scalar> 
15
(
-3.37549e-08
-3.17837e-08
-2.97677e-08
-2.80169e-08
-2.65081e-08
-2.52117e-08
-2.41075e-08
-2.31708e-08
-2.23831e-08
-2.17237e-08
-2.11763e-08
-2.07235e-08
-2.03534e-08
-2.00519e-08
-1.98114e-08
)
;
    }
    outlet
    {
        type            cyclic;
        value           nonuniform List<scalar> 
15
(
3.37549e-08
3.17837e-08
2.97677e-08
2.80169e-08
2.65081e-08
2.52117e-08
2.41075e-08
2.31708e-08
2.23831e-08
2.17237e-08
2.11763e-08
2.07235e-08
2.03534e-08
2.00519e-08
1.98114e-08
)
;
    }
    fixWall
    {
        type            empty;
        value           nonuniform List<scalar> 0();
    }
    procBoundary3to2
    {
        type            processor;
        value           nonuniform List<scalar> 8(-6.31846e-10 9.0321e-10 5.17138e-11 -4.49499e-10 -3.30146e-10 8.07007e-10 9.50937e-10 -1.29137e-09);
    }
    procBoundary3to4
    {
        type            processor;
        value           nonuniform List<scalar> 8(6.63293e-10 1.40312e-10 1.64566e-10 -4.29923e-13 -8.74868e-12 -3.95875e-11 -2.34707e-11 9.59893e-10);
    }
}


// ************************************************************************* //
