/*--------------------------------*- C++ -*----------------------------------*\
  =========                 |
  \\      /  F ield         | OpenFOAM: The Open Source CFD Toolbox
   \\    /   O peration     | Website:  https://openfoam.org
    \\  /    A nd           | Version:  dev
     \\/     M anipulation  |

   OpenFOAM for Windows 20.09 (v1)
   Built by CFD Support, www.cfdsupport.com (based on Symscape).
\*---------------------------------------------------------------------------*/
FoamFile
{
    version     2.0;
    format      ascii;
    class       volSymmTensorField;
    location    "4";
    object      devReff;
}
// * * * * * * * * * * * * * * * * * * * * * * * * * * * * * * * * * * * * * //

dimensions      [0 2 -2 0 0 0 0];

internalField   nonuniform List<symmTensor> 
120
(
(7.21355e-08 -6.41872e-05 -0 -6.8576e-08 -0 -3.55952e-09)
(3.71599e-07 -6.41331e-05 -0 -3.53605e-07 -0 -1.79945e-08)
(6.72784e-08 -6.24843e-05 -0 -3.9278e-08 -0 -2.80003e-08)
(-2.24839e-07 -6.04877e-05 -0 2.49687e-07 -0 -2.48485e-08)
(5.63592e-08 -7.92173e-05 -0 -9.2205e-08 -0 3.58458e-08)
(4.58843e-07 -7.82547e-05 -0 -4.7655e-07 -0 1.77065e-08)
(1.46353e-07 -7.63227e-05 -0 -1.45711e-07 -0 -6.42122e-10)
(-1.84136e-07 -7.57996e-05 -0 1.67662e-07 -0 1.64739e-08)
(-2.98608e-08 -9.69361e-05 -0 4.58521e-08 -0 -1.59912e-08)
(5.027e-07 -9.57597e-05 -0 -5.15002e-07 -0 1.23018e-08)
(1.65888e-07 -9.41903e-05 -0 -1.52195e-07 -0 -1.36931e-08)
(-2.06285e-07 -9.4226e-05 -0 1.99682e-07 -0 6.60383e-09)
(-4.43544e-08 -0.000117767 -0 6.12445e-08 -0 -1.689e-08)
(5.53782e-07 -0.000116597 -0 -5.7076e-07 -0 1.69783e-08)
(1.81905e-07 -0.00011547 -0 -1.63319e-07 -0 -1.8586e-08)
(-2.1857e-07 -0.000115768 -0 2.08343e-07 -0 1.02272e-08)
(-1.99518e-08 -0.000142249 -0 6.987e-09 -0 1.29648e-08)
(5.91574e-07 -0.000141206 -0 -6.1226e-07 -0 2.06865e-08)
(2.10729e-07 -0.00014044 -0 -2.11953e-07 -0 1.22444e-09)
(-2.34127e-07 -0.000140831 -0 2.20998e-07 -0 1.31291e-08)
(-4.13619e-08 -0.000170836 -0 5.52917e-08 -0 -1.39298e-08)
(6.01862e-07 -0.00016997 -0 -6.02923e-07 -0 1.06117e-09)
(1.94143e-07 -0.000169486 -0 -1.73126e-07 -0 -2.10177e-08)
(-2.68532e-07 -0.000169896 -0 2.71771e-07 -0 -3.23944e-09)
(-1.55262e-08 -0.000203938 -0 7.28584e-09 -0 8.24033e-09)
(6.3374e-07 -0.000203224 -0 -6.48141e-07 -0 1.44014e-08)
(2.14669e-07 -0.000202989 -0 -2.15291e-07 -0 6.22403e-10)
(-2.75561e-07 -0.00020337 -0 2.67249e-07 -0 8.31216e-09)
(-2.99557e-08 -0.000242107 -0 4.989e-08 -0 -1.99343e-08)
(6.41972e-07 -0.000241451 -0 -6.48327e-07 -0 6.35448e-09)
(1.92368e-07 -0.000241387 -0 -1.72472e-07 -0 -1.98957e-08)
(-2.97389e-07 -0.000241723 -0 2.92164e-07 -0 5.22474e-09)
(1.43057e-08 -0.000285663 -0 -3.12993e-08 -0 1.69937e-08)
(6.63041e-07 -0.00028499 -0 -6.79823e-07 -0 1.6782e-08)
(2.07715e-07 -0.000285161 -0 -2.08577e-07 -0 8.62094e-10)
(-3.21857e-07 -0.000285301 -0 3.21706e-07 -0 1.5099e-10)
(-1.29892e-08 -0.000335182 -0 4.4312e-08 -0 -3.13228e-08)
(6.56917e-07 -0.000334278 -0 -6.58794e-07 -0 1.87704e-09)
(1.84444e-07 -0.000334605 -0 -1.65203e-07 -0 -1.92414e-08)
(-3.25879e-07 -0.000334542 -0 3.14814e-07 -0 1.10653e-08)
(7.62522e-08 -0.000390786 -0 -1.24633e-07 -0 4.83806e-08)
(6.91554e-07 -0.000389577 -0 -7.15232e-07 -0 2.36775e-08)
(2.05079e-07 -0.000390171 -0 -2.10427e-07 -0 5.34847e-09)
(-3.53668e-07 -0.000389748 -0 3.5793e-07 -0 -4.2627e-09)
(3.56885e-08 -0.00045354 -0 -1.56149e-08 -0 -2.00736e-08)
(7.13038e-07 -0.000451564 -0 -7.48384e-07 -0 3.53462e-08)
(1.85758e-07 -0.000452068 -0 -1.71965e-07 -0 -1.37937e-08)
(-3.332e-07 -0.000451344 -0 3.18626e-07 -0 1.4574e-08)
(1.57019e-07 -0.000522878 -0 -2.50304e-07 -0 9.32853e-08)
(7.86842e-07 -0.000520467 -0 -8.54947e-07 -0 6.81048e-08)
(2.12723e-07 -0.000520498 -0 -2.16928e-07 -0 4.20412e-09)
(-3.32455e-07 -0.000519354 -0 3.28665e-07 -0 3.79027e-09)
(4.2793e-07 -0.000600414 -0 -7.53575e-07 -0 3.25646e-07)
(9.3185e-07 -0.000597865 -0 -1.10513e-06 -0 1.73278e-07)
(2.31481e-07 -0.000597399 -0 -2.24989e-07 -0 -6.49238e-09)
(-2.74338e-07 -0.000596326 -0 2.52053e-07 -0 2.22854e-08)
(-7.61097e-08 -0.000935898 -0 2.14925e-07 -0 -1.38815e-07)
(7.09388e-07 -0.000939332 -0 -5.98406e-07 -0 -1.10982e-07)
(1.76312e-07 -0.000935508 -0 -9.15032e-08 -0 -8.48088e-08)
(-2.08798e-07 -0.000936032 -0 1.59531e-07 -0 4.92675e-08)
(-1.60802e-07 -6.08317e-05 -0 1.37481e-07 -0 2.33216e-08)
(-1.14859e-07 -6.37338e-05 -0 8.7542e-08 -0 2.73167e-08)
(2.23905e-08 -6.06793e-05 -0 -3.16307e-08 -0 9.24021e-09)
(-9.12389e-08 -5.98743e-05 -0 1.3505e-07 -0 -4.38107e-08)
(-2.49391e-07 -7.66163e-05 -0 2.5996e-07 -0 -1.05695e-08)
(-1.56044e-07 -7.83533e-05 -0 1.82611e-07 -0 -2.65665e-08)
(5.62245e-08 -7.59095e-05 -0 -4.11364e-08 -0 -1.50881e-08)
(-9.98358e-08 -7.57247e-05 -0 8.8622e-08 -0 1.12139e-08)
(-2.73926e-07 -9.49441e-05 -0 2.7589e-07 -0 -1.96381e-09)
(-1.02969e-07 -9.59565e-05 -0 9.07703e-08 -0 1.21987e-08)
(1.23505e-07 -9.42809e-05 -0 -1.4076e-07 -0 1.72547e-08)
(-1.75904e-07 -9.44765e-05 -0 1.89466e-07 -0 -1.35624e-08)
(-3.12128e-07 -0.000116415 -0 3.25174e-07 -0 -1.30459e-08)
(-1.17658e-07 -0.000117011 -0 1.31462e-07 -0 -1.38039e-08)
(1.21376e-07 -0.000115796 -0 -1.16697e-07 -0 -4.67902e-09)
(-2.0259e-07 -0.000116179 -0 2.01029e-07 -0 1.56148e-09)
(-3.19369e-07 -0.000141451 -0 3.22862e-07 -0 -3.49314e-09)
(-9.7436e-08 -0.000141792 -0 1.03703e-07 -0 -6.26709e-09)
(1.42944e-07 -0.000140941 -0 -1.46599e-07 -0 3.65531e-09)
(-2.26818e-07 -0.00014136 -0 2.21175e-07 -0 5.64311e-09)
(-3.36044e-07 -0.000170506 -0 3.38667e-07 -0 -2.62312e-09)
(-7.33705e-08 -0.000170756 -0 6.33491e-08 -0 1.00214e-08)
(1.58901e-07 -0.000170042 -0 -1.72111e-07 -0 1.32098e-08)
(-2.67912e-07 -0.000170395 -0 2.83707e-07 -0 -1.57952e-08)
(-3.43749e-07 -0.000204033 -0 3.40768e-07 -0 2.98036e-09)
(-8.98851e-08 -0.000204238 -0 1.07375e-07 -0 -1.74896e-08)
(1.64307e-07 -0.000203634 -0 -1.72165e-07 -0 7.85774e-09)
(-2.71646e-07 -0.000203895 -0 2.80222e-07 -0 -8.57618e-09)
(-3.72447e-07 -0.000242462 -0 3.80497e-07 -0 -8.04973e-09)
(-4.07156e-08 -0.00024269 -0 1.47177e-08 -0 2.59979e-08)
(1.69399e-07 -0.000242031 -0 -1.76643e-07 -0 7.24416e-09)
(-2.71721e-07 -0.000242231 -0 2.77151e-07 -0 -5.43029e-09)
(-3.81789e-07 -0.000286126 -0 3.82731e-07 -0 -9.41763e-10)
(-1.00028e-07 -0.000286498 -0 1.45257e-07 -0 -4.52285e-08)
(1.76526e-07 -0.000285822 -0 -1.76371e-07 -0 -1.55915e-10)
(-2.75645e-07 -0.000285986 -0 2.81838e-07 -0 -6.19301e-09)
(-4.0141e-07 -0.000335367 -0 3.96792e-07 -0 4.61798e-09)
(8.00006e-09 -0.000335896 -0 -6.93913e-08 -0 6.13913e-08)
(2.12355e-07 -0.000335174 -0 -2.40701e-07 -0 2.83464e-08)
(-2.71679e-07 -0.00033534 -0 2.78654e-07 -0 -6.97506e-09)
(-4.39642e-07 -0.000390442 -0 4.5172e-07 -0 -1.20787e-08)
(-1.0817e-07 -0.000391299 -0 1.71135e-07 -0 -6.29642e-08)
(1.90983e-07 -0.000390573 -0 -1.82004e-07 -0 -8.97866e-09)
(-2.68241e-07 -0.00039084 -0 2.63216e-07 -0 5.02483e-09)
(-4.69184e-07 -0.000451623 -0 4.79243e-07 -0 -1.00588e-08)
(-4.18952e-08 -0.000452723 -0 2.89906e-08 -0 1.29046e-08)
(1.90028e-07 -0.000452194 -0 -1.76245e-07 -0 -1.37832e-08)
(-2.80934e-07 -0.000452784 -0 2.86751e-07 -0 -5.81635e-09)
(-4.65636e-07 -0.000518921 -0 4.56536e-07 -0 9.0998e-09)
(-3.8161e-08 -0.000520447 -0 1.52171e-08 -0 2.29439e-08)
(2.81814e-07 -0.00052051 -0 -3.61145e-07 -0 7.93312e-08)
(-2.74126e-07 -0.000522 -0 2.26865e-07 -0 4.72613e-08)
(-5.10852e-07 -0.000595017 -0 5.25124e-07 -0 -1.42721e-08)
(-1.30212e-07 -0.000597397 -0 1.55481e-07 -0 -2.52688e-08)
(1.67201e-07 -0.000596813 -0 -1.78079e-07 -0 1.08786e-08)
(-1.77524e-07 -0.000597978 -0 -1.95712e-09 -0 1.79481e-07)
(-4.54951e-07 -0.000931826 -0 3.98694e-07 -0 5.62574e-08)
(-2.31923e-08 -0.000934875 -0 -7.15978e-08 -0 9.47901e-08)
(1.8268e-07 -0.000934585 -0 -1.77977e-07 -0 -4.70235e-09)
(-3.70036e-07 -0.000933685 -0 2.95749e-07 -0 7.42865e-08)
)
;

boundaryField
{
    topWall
    {
        type            calculated;
        value           nonuniform List<symmTensor> 0();
    }
    botWall
    {
        type            calculated;
        value           nonuniform List<symmTensor> 0();
    }
    inlet
    {
        type            cyclic;
    }
    outlet
    {
        type            cyclic;
    }
    fixWall
    {
        type            empty;
    }
    procBoundary3to2
    {
        type            processor;
        value           nonuniform List<symmTensor> 8((1.89799e-07 -5.14633e-05 -0 -2.11945e-07 -0 2.2146e-08) (3.85661e-07 -5.15456e-05 -0 -3.91427e-07 -0 5.76543e-09) (2.39978e-08 -5.04157e-05 -0 -2.50076e-08 -0 1.00977e-09) (-2.45215e-07 -4.86682e-05 -0 2.37958e-07 -0 7.25734e-09) (-1.10013e-07 -4.87684e-05 -0 9.21858e-08 -0 1.78274e-08) (-1.32225e-07 -5.13028e-05 -0 1.2643e-07 -0 5.79487e-09) (-6.2045e-08 -4.852e-05 -0 6.12899e-08 -0 7.55101e-10) (1.46255e-09 -4.76945e-05 -0 7.67119e-09 -0 -9.13375e-09));
    }
    procBoundary3to4
    {
        type            processor;
        value           nonuniform List<symmTensor> 8((-9.95104e-07 -0.00354633 -0 1.89919e-06 -0 -9.04085e-07) (1.76793e-07 -0.00366582 -0 4.18798e-07 -0 -5.95591e-07) (4.93141e-07 -0.00362486 -0 -6.36938e-07 -0 1.43797e-07) (-3.5562e-07 -0.00364953 -0 5.36373e-07 -0 -1.80753e-07) (-2.4519e-07 -0.00362197 -0 3.17278e-08 -0 2.13462e-07) (-3.52493e-07 -0.00356508 -0 5.10951e-07 -0 -1.58458e-07) (2.72662e-07 -0.00360723 -0 -3.44996e-07 -0 7.23348e-08) (-9.15343e-07 -0.00356033 -0 1.4272e-06 -0 -5.11861e-07));
    }
}


// ************************************************************************* //
