/*--------------------------------*- C++ -*----------------------------------*\
  =========                 |
  \\      /  F ield         | OpenFOAM: The Open Source CFD Toolbox
   \\    /   O peration     | Website:  https://openfoam.org
    \\  /    A nd           | Version:  dev
     \\/     M anipulation  |

   OpenFOAM for Windows 20.09 (v1)
   Built by CFD Support, www.cfdsupport.com (based on Symscape).
\*---------------------------------------------------------------------------*/
FoamFile
{
    version     2.0;
    format      ascii;
    class       volScalarField;
    location    "4";
    object      epsilon;
}
// * * * * * * * * * * * * * * * * * * * * * * * * * * * * * * * * * * * * * //

dimensions      [0 2 -3 0 0 0 0];

internalField   nonuniform List<scalar> 
120
(
3.58014e-16
3.57877e-16
3.578e-16
3.57852e-16
3.57613e-16
3.57479e-16
3.57384e-16
3.57434e-16
3.58431e-16
3.58302e-16
3.58187e-16
3.58233e-16
3.60521e-16
3.60399e-16
3.6026e-16
3.60302e-16
3.63954e-16
3.63842e-16
3.63677e-16
3.63713e-16
3.68828e-16
3.68729e-16
3.68535e-16
3.68562e-16
3.83105e-16
3.83508e-16
3.83246e-16
3.83384e-16
4.09198e-16
4.09701e-16
4.09385e-16
4.09533e-16
4.40999e-16
4.41624e-16
4.41239e-16
4.41394e-16
4.79508e-16
4.80283e-16
4.7981e-16
4.79971e-16
5.25989e-16
5.26958e-16
5.26369e-16
5.26533e-16
5.82045e-16
5.83269e-16
5.82527e-16
5.82697e-16
6.49714e-16
6.51282e-16
6.50336e-16
6.50521e-16
7.31598e-16
7.33644e-16
7.32423e-16
7.32644e-16
8.31032e-16
8.33757e-16
8.32165e-16
8.32461e-16
3.57852e-16
3.57863e-16
3.57866e-16
3.57879e-16
3.57442e-16
3.5746e-16
3.57463e-16
3.57472e-16
3.5825e-16
3.58276e-16
3.58281e-16
3.58284e-16
3.60329e-16
3.60364e-16
3.60372e-16
3.60366e-16
3.6375e-16
3.63796e-16
3.63808e-16
3.63792e-16
3.68607e-16
3.68666e-16
3.68685e-16
3.68656e-16
3.83295e-16
3.83116e-16
3.83394e-16
3.83062e-16
4.0942e-16
4.09207e-16
4.09552e-16
4.09152e-16
4.41249e-16
4.40996e-16
4.41425e-16
4.40945e-16
4.79779e-16
4.79474e-16
4.80015e-16
4.79438e-16
5.26273e-16
5.259e-16
5.2659e-16
5.25895e-16
5.82337e-16
5.81867e-16
5.82756e-16
5.81917e-16
6.50019e-16
6.49406e-16
6.50562e-16
6.49545e-16
7.31944e-16
7.3112e-16
7.32626e-16
7.31383e-16
8.31499e-16
8.30355e-16
8.32323e-16
8.30789e-16
)
;

boundaryField
{
    topWall
    {
        type            epsilonWallFunction;
        value           nonuniform List<scalar> 0();
    }
    botWall
    {
        type            epsilonWallFunction;
        value           nonuniform List<scalar> 0();
    }
    inlet
    {
        type            cyclic;
    }
    outlet
    {
        type            cyclic;
    }
    fixWall
    {
        type            empty;
    }
    procBoundary3to2
    {
        type            processor;
        value           nonuniform List<scalar> 8(3.58794e-16 3.58655e-16 3.58595e-16 3.58648e-16 3.58642e-16 3.58647e-16 3.5865e-16 3.58666e-16);
    }
    procBoundary3to4
    {
        type            processor;
        value           nonuniform List<scalar> 8(9.57744e-16 9.61735e-16 9.59732e-16 9.60268e-16 9.58995e-16 9.57171e-16 9.59742e-16 9.57608e-16);
    }
}


// ************************************************************************* //
