/*--------------------------------*- C++ -*----------------------------------*\
  =========                 |
  \\      /  F ield         | OpenFOAM: The Open Source CFD Toolbox
   \\    /   O peration     | Website:  https://openfoam.org
    \\  /    A nd           | Version:  dev
     \\/     M anipulation  |

   OpenFOAM for Windows 20.09 (v1)
   Built by CFD Support, www.cfdsupport.com (based on Symscape).
\*---------------------------------------------------------------------------*/
FoamFile
{
    version     2.0;
    format      ascii;
    class       volVectorField;
    location    "4";
    object      gradp;
}
// * * * * * * * * * * * * * * * * * * * * * * * * * * * * * * * * * * * * * //

dimensions      [1 -2 -2 0 0 0 0];

internalField   nonuniform List<vector> 
120
(
(3.74096 -98.1701 0)
(-1.22927 -98.1662 0)
(-1.21739 -98.4669 0)
(-1.25405 -99.035 0)
(3.73892 -97.9345 0)
(-1.2391 -98.1579 0)
(-1.2364 -98.593 0)
(-1.24572 -99.3163 0)
(3.73855 -97.9563 0)
(-1.24024 -98.0631 0)
(-1.2367 -98.0884 0)
(-1.24631 -98.0929 0)
(3.7381 -97.9366 0)
(-1.2413 -98.0448 0)
(-1.2369 -98.0881 0)
(-1.24661 -98.0933 0)
(3.73804 -97.9037 0)
(-1.24277 -98.0196 0)
(-1.2375 -98.0877 0)
(-1.24668 -98.0926 0)
(3.73798 -97.9116 0)
(-1.24436 -98.017 0)
(-1.23812 -98.0865 0)
(-1.24676 -98.0928 0)
(3.73794 -97.9207 0)
(-1.24568 -98.0248 0)
(-1.23877 -98.0871 0)
(-1.24685 -98.0948 0)
(3.73774 -97.9147 0)
(-1.24714 -98.0264 0)
(-1.23928 -98.0904 0)
(-1.24692 -98.0945 0)
(3.73767 -97.9153 0)
(-1.24861 -98.0183 0)
(-1.2399 -98.0897 0)
(-1.24696 -98.093 0)
(3.73761 -97.9158 0)
(-1.25004 -98.0177 0)
(-1.24053 -98.0874 0)
(-1.24704 -98.0929 0)
(3.73752 -97.9198 0)
(-1.25147 -98.0088 0)
(-1.24116 -98.0699 0)
(-1.24711 -98.0669 0)
(3.7376 -97.912 0)
(-1.25255 -98.0287 0)
(-1.2415 -98.072 0)
(-1.24734 -98.0767 0)
(3.73719 -97.9153 0)
(-1.25414 -98.0384 0)
(-1.24196 -98.0905 0)
(-1.24726 -98.1025 0)
(3.73711 -97.7158 0)
(-1.25547 -97.6643 0)
(-1.24256 -97.7554 0)
(-1.24732 -97.7004 0)
(3.73942 -76.0306 0)
(-1.2548 -75.428 0)
(-1.24256 -75.5952 0)
(-1.24733 -75.4431 0)
(-1.268 -98.6303 0)
(-1.25274 -98.0292 0)
(-1.25557 -99.2703 0)
(3.73605 -98.6865 0)
(-1.24936 -98.1284 0)
(-1.2584 -98.1995 0)
(-1.25315 -98.43 0)
(3.74322 -98.0133 0)
(-1.24939 -98.1416 0)
(-1.25776 -98.0923 0)
(-1.25247 -98.0799 0)
(3.74431 -98.0144 0)
(-1.24935 -98.1103 0)
(-1.25737 -98.1 0)
(-1.25185 -98.08 0)
(3.74528 -98.014 0)
(-1.2495 -98.097 0)
(-1.25726 -98.1049 0)
(-1.25104 -98.0812 0)
(3.7467 -98.0123 0)
(-1.24956 -98.0971 0)
(-1.25711 -98.0984 0)
(-1.25031 -98.0807 0)
(3.74824 -98.011 0)
(-1.24959 -98.0967 0)
(-1.25698 -98.0987 0)
(-1.24958 -98.0807 0)
(3.74952 -98.0106 0)
(-1.24962 -98.097 0)
(-1.25684 -98.0984 0)
(-1.24884 -98.0797 0)
(3.7509 -98.0101 0)
(-1.24966 -98.0969 0)
(-1.2567 -98.0956 0)
(-1.24811 -98.0795 0)
(3.75227 -98.01 0)
(-1.24966 -98.0964 0)
(-1.25655 -98.1006 0)
(-1.24741 -98.0721 0)
(3.75364 -98.0086 0)
(-1.24979 -98.0882 0)
(-1.25629 -98.1028 0)
(-1.24657 -98.078 0)
(3.75487 -98.0082 0)
(-1.25026 -98.0809 0)
(-1.25638 -98.0986 0)
(-1.24584 -98.0853 0)
(3.75627 -98.009 0)
(-1.25016 -98.089 0)
(-1.25636 -98.0981 0)
(-1.24508 -98.078 0)
(3.75776 -98.0094 0)
(-1.25019 -97.7595 0)
(-1.2562 -97.6602 0)
(-1.24436 -97.7518 0)
(3.75898 -97.7982 0)
(-1.24949 -75.6057 0)
(-1.25623 -75.5221 0)
(-1.24738 -75.6475 0)
(3.75836 -76.0542 0)
)
;

boundaryField
{
    topWall
    {
        type            extrapolatedCalculated;
        value           nonuniform List<vector> 0();
    }
    botWall
    {
        type            extrapolatedCalculated;
        value           nonuniform List<vector> 0();
    }
    inlet
    {
        type            cyclic;
    }
    outlet
    {
        type            cyclic;
    }
    fixWall
    {
        type            empty;
    }
    procBoundary3to2
    {
        type            processor;
        value           nonuniform List<vector> 8((3.73024 -97.0738 0) (-1.23415 -97.4332 0) (-1.22192 -97.9423 0) (-1.24299 -97.8041 0) (-1.26612 -98.0071 0) (-1.24773 -97.8506 0) (-1.2422 -98.4178 0) (3.72488 -97.6219 0));
    }
    procBoundary3to4
    {
        type            processor;
        value           nonuniform List<vector> 8((3.74755 -32.653 0) (-1.24821 -31.8984 0) (-1.24282 -32.0757 0) (-1.24749 -31.9225 0) (-1.2515 -32.0654 0) (-1.2569 -32.2056 0) (-1.25323 -32.1549 0) (3.7526 -32.5878 0));
    }
}


// ************************************************************************* //
