/*--------------------------------*- C++ -*----------------------------------*\
  =========                 |
  \\      /  F ield         | OpenFOAM: The Open Source CFD Toolbox
   \\    /   O peration     | Website:  https://openfoam.org
    \\  /    A nd           | Version:  dev
     \\/     M anipulation  |

   OpenFOAM for Windows 20.09 (v1)
   Built by CFD Support, www.cfdsupport.com (based on Symscape).
\*---------------------------------------------------------------------------*/
FoamFile
{
    version     2.0;
    format      ascii;
    class       volVectorField;
    location    "4";
    object      gradp_rgh;
}
// * * * * * * * * * * * * * * * * * * * * * * * * * * * * * * * * * * * * * //

dimensions      [1 -2 -2 0 0 0 0];

internalField   nonuniform List<vector> 
120
(
(-1.25924 -0.0270005 0)
(-1.22835 -0.0372487 0)
(-1.21611 -0.382693 0)
(-1.25448 -0.97192 0)
(-1.26107 0.198796 0)
(-1.23911 -0.0302719 0)
(-1.23642 -0.514681 0)
(-1.24572 -1.26657 0)
(-1.26144 0.141775 0)
(-1.24024 0.0351459 0)
(-1.23672 0.0106024 0)
(-1.24632 0.00532443 0)
(-1.26191 0.161909 0)
(-1.24129 0.0537927 0)
(-1.23691 0.0108148 0)
(-1.24662 0.00613529 0)
(-1.26198 0.195454 0)
(-1.24276 0.0795612 0)
(-1.23751 0.0110954 0)
(-1.24668 0.00683413 0)
(-1.26205 0.188254 0)
(-1.24436 0.0825184 0)
(-1.23813 0.0124923 0)
(-1.24676 0.00676095 0)
(-1.2621 0.179683 0)
(-1.24569 0.0753959 0)
(-1.23878 0.0125609 0)
(-1.24684 0.00518783 0)
(-1.26229 0.1857 0)
(-1.24715 0.0744712 0)
(-1.2393 0.00970414 0)
(-1.24691 0.00585926 0)
(-1.26236 0.185403 0)
(-1.24863 0.0827722 0)
(-1.23992 0.0109699 0)
(-1.24695 0.00775872 0)
(-1.26241 0.185274 0)
(-1.25006 0.083315 0)
(-1.24055 0.0135423 0)
(-1.24704 0.00745944 0)
(-1.26249 0.180658 0)
(-1.25149 0.0921204 0)
(-1.24118 0.0312176 0)
(-1.24712 0.0342761 0)
(-1.2624 0.188264 0)
(-1.25255 0.0706914 0)
(-1.24151 0.0287235 0)
(-1.24736 0.0241067 0)
(-1.26283 0.180302 0)
(-1.25415 0.0582749 0)
(-1.24196 -0.00702059 0)
(-1.24727 -0.0107341 0)
(-1.26259 -26.7385 0)
(-1.25567 -42.6725 0)
(-1.24266 -39.6098 0)
(-1.24719 -46.2981 0)
(-1.54854 -2590.82 0)
(-1.46867 -2621.03 0)
(-1.30239 -2613.5 0)
(-1.24838 -2620.39 0)
(-1.26876 -0.504712 0)
(-1.25244 0.0736677 0)
(-1.25589 -1.15086 0)
(-1.26472 -0.545152 0)
(-1.24937 -0.0249249 0)
(-1.25842 -0.103892 0)
(-1.25314 -0.344045 0)
(-1.25676 0.102144 0)
(-1.24938 -0.0435789 0)
(-1.25776 0.00733904 0)
(-1.25246 0.0199076 0)
(-1.25568 0.0856289 0)
(-1.24933 -0.0109724 0)
(-1.25736 8.7808e-05 0)
(-1.25184 0.0199871 0)
(-1.25473 0.0861811 0)
(-1.24948 0.0028861 0)
(-1.25724 -0.00445691 0)
(-1.25102 0.0186991 0)
(-1.25331 0.0879003 0)
(-1.24952 0.00297824 0)
(-1.2571 0.00200976 0)
(-1.2503 0.0193369 0)
(-1.25178 0.0891934 0)
(-1.24956 0.00326266 0)
(-1.25697 0.0017467 0)
(-1.24957 0.0195143 0)
(-1.2505 0.0898672 0)
(-1.24958 0.00299071 0)
(-1.25683 0.00181291 0)
(-1.24883 0.0205105 0)
(-1.24911 0.0901349 0)
(-1.24962 0.00321433 0)
(-1.25668 0.00467102 0)
(-1.2481 0.0207836 0)
(-1.24774 0.0900459 0)
(-1.24963 0.00378856 0)
(-1.25653 -0.000731044 0)
(-1.24741 0.0282659 0)
(-1.24637 0.091484 0)
(-1.24976 0.0124023 0)
(-1.25627 -0.00270845 0)
(-1.24656 0.0219962 0)
(-1.24513 0.0913338 0)
(-1.25025 0.0198236 0)
(-1.25637 0.000755649 0)
(-1.24584 0.0142477 0)
(-1.24372 0.0907238 0)
(-1.25015 0.00279405 0)
(-1.25636 -0.00499887 0)
(-1.24506 -0.00689498 0)
(-1.24223 0.0694215 0)
(-1.25015 -39.6769 0)
(-1.25653 -51.337 0)
(-1.2446 -38.4972 0)
(-1.2406 -25.5299 0)
(-1.33413 -2615.76 0)
(-1.2367 -2600.76 0)
(-0.814945 -2609.72 0)
(-1.04625 -2596.78 0)
)
;

boundaryField
{
    topWall
    {
        type            extrapolatedCalculated;
        value           nonuniform List<vector> 0();
    }
    botWall
    {
        type            extrapolatedCalculated;
        value           nonuniform List<vector> 0();
    }
    inlet
    {
        type            cyclic;
    }
    outlet
    {
        type            cyclic;
    }
    fixWall
    {
        type            empty;
    }
    procBoundary3to2
    {
        type            processor;
        value           nonuniform List<vector> 8((-1.26954 0.992363 0) (-1.23318 0.638958 0) (-1.22084 0.178494 0) (-1.24368 0.345011 0) (-1.26679 0.0889504 0) (-1.24765 0.253496 0) (-1.24283 -0.30426 0) (-1.27549 0.462864 0));
    }
    procBoundary3to4
    {
        type            processor;
        value           nonuniform List<vector> 8((-1.66677 -2622.34 0) (-1.63371 -2605.56 0) (-1.23189 -2608.91 0) (-1.28487 -2602.02 0) (-0.923014 -2608.85 0) (-1.15588 -2597.24 0) (-1.17833 -2610.11 0) (-0.925537 -2623.56 0));
    }
}


// ************************************************************************* //
