/*--------------------------------*- C++ -*----------------------------------*\
  =========                 |
  \\      /  F ield         | OpenFOAM: The Open Source CFD Toolbox
   \\    /   O peration     | Website:  https://openfoam.org
    \\  /    A nd           | Version:  dev
     \\/     M anipulation  |

   OpenFOAM for Windows 20.09 (v1)
   Built by CFD Support, www.cfdsupport.com (based on Symscape).
\*---------------------------------------------------------------------------*/
FoamFile
{
    version     2.0;
    format      ascii;
    class       volTensorField;
    location    "4";
    object      gradU;
}
// * * * * * * * * * * * * * * * * * * * * * * * * * * * * * * * * * * * * * //

dimensions      [0 0 -1 0 0 0 0];

internalField   nonuniform List<tensor> 
120
(
(-0.000200592 -0.000415182 0 0.340607 0.000172294 0 0 0 0)
(-0.00103242 -0.000293597 0 0.340199 0.000889368 0 0 0 0)
(-0.000252489 0.000296603 0 0.33087 2.98859e-05 0 0 0 0)
(0.000529975 0.000102481 0 0.320482 -0.00072752 0 0 0 0)
(-5.43604e-05 -0.000404618 0 0.420256 0.000339335 0 0 0 0)
(-0.00116901 -0.000296011 0 0.415046 0.00130978 0 0 0 0)
(-0.000389537 0.000282189 0 0.404228 0.000384432 0 0 0 0)
(0.000531616 9.59536e-05 0 0.401642 -0.000400648 0 0 0 0)
(3.67545e-05 -0.000389934 0 0.514151 -0.000163885 0 0 0 0)
(-0.00129956 -0.000292845 0 0.507819 0.00139735 0 0 0 0)
(-0.000475891 0.000268096 0 0.498941 0.000367031 0 0 0 0)
(0.000564157 8.41251e-05 0 0.499314 -0.000511656 0 0 0 0)
(7.27806e-05 -0.000372362 0 0.624539 -0.000207057 0 0 0 0)
(-0.00142253 -0.000287162 0 0.61825 0.00155751 0 0 0 0)
(-0.000531302 0.000250372 0 0.611742 0.000383543 0 0 0 0)
(0.000606312 7.75645e-05 0 0.613492 -0.000525006 0 0 0 0)
(8.72289e-05 -0.000355165 0 0.754277 1.58411e-05 0 0 0 0)
(-0.00151285 -0.000283002 0 0.748675 0.00167731 0 0 0 0)
(-0.000555187 0.000233388 0 0.744101 0.000564921 0 0 0 0)
(0.00065523 6.27947e-05 0 0.746342 -0.000550853 0 0 0 0)
(7.2695e-05 -0.000334887 0 0.905766 -0.000183437 0 0 0 0)
(-0.00159212 -0.000278011 0 0.901119 0.00160056 0 0 0 0)
(-0.000570177 0.000213236 0 0.898062 0.000403086 0 0 0 0)
(0.000703024 5.37351e-05 0 0.900397 -0.000728778 0 0 0 0)
(6.29812e-05 -0.000315261 0 1.08119 2.52941e-06 0 0 0 0)
(-0.00164125 -0.000273226 0 1.07736 0.00175574 0 0 0 0)
(-0.000567222 0.000194565 0 1.07565 0.000572171 0 0 0 0)
(0.000752264 4.1003e-05 0 1.07782 -0.000686182 0 0 0 0)
(2.65565e-05 -0.00029287 0 1.28346 -0.000185034 0 0 0 0)
(-0.00168439 -0.000268517 0 1.27996 0.0017349 0 0 0 0)
(-0.000562499 0.000172537 0 1.27918 0.000404328 0 0 0 0)
(0.000801925 2.928e-05 0 1.2811 -0.000760388 0 0 0 0)
(7.12327e-06 -0.000273866 0 1.51429 0.000127977 0 0 0 0)
(-0.00171259 -0.000263404 0 1.51071 0.001846 0 0 0 0)
(-0.00054816 0.000152977 0 1.5112 0.000555013 0 0 0 0)
(0.00085332 1.71034e-05 0 1.51208 -0.00085212 0 0 0 0)
(-4.8584e-05 -0.000249382 0 1.77672 -0.000200432 0 0 0 0)
(-0.00173585 -0.000261399 0 1.77194 0.00175078 0 0 0 0)
(-0.000539767 0.000127568 0 1.77328 0.000386798 0 0 0 0)
(0.000892902 3.08425e-06 0 1.77307 -0.000804933 0 0 0 0)
(-7.38598e-05 -0.000232071 0 2.0714 0.000458485 0 0 0 0)
(-0.00176987 -0.000253617 0 2.06501 0.00195811 0 0 0 0)
(-0.000529285 0.000110382 0 2.0678 0.000571805 0 0 0 0)
(0.000925923 -6.66426e-06 0 2.06567 -0.000959811 0 0 0 0)
(-0.000147769 -0.000205343 0 2.40397 -1.18154e-05 0 0 0 0)
(-0.00179588 -0.000259511 0 2.39355 0.00207689 0 0 0 0)
(-0.000528813 7.89364e-05 0 2.39588 0.000419154 0 0 0 0)
(0.000921601 -2.69303e-05 0 2.39215 -0.000805738 0 0 0 0)
(-0.000168894 -0.000184534 0 2.77144 0.000910513 0 0 0 0)
(-0.00190465 -0.000246434 0 2.75872 0.00244609 0 0 0 0)
(-0.000552576 6.23381e-05 0 2.75858 0.000585999 0 0 0 0)
(0.00089105 -3.5261e-05 0 2.75261 -0.000860917 0 0 0 0)
(-0.000271053 -0.000156642 0 3.18235 0.00285993 0 0 0 0)
(-0.00201022 -0.000264919 0 3.16895 0.00338778 0 0 0 0)
(-0.00063063 2.38196e-05 0 3.16619 0.000579015 0 0 0 0)
(0.000786052 -5.64587e-05 0 3.16058 -0.000608883 0 0 0 0)
(-0.000166169 -0.000136085 0 4.96039 -0.000937411 0 0 0 0)
(-0.00217398 -0.000284449 0 4.97875 0.00129167 0 0 0 0)
(-0.00069197 -4.27287e-06 0 4.9582 1.77401e-05 0 0 0 0)
(0.000683875 -6.87346e-05 0 4.96104 -0.000292198 0 0 0 0)
(0.000487929 -0.000215942 0 0.322624 -0.000302522 0 0 0 0)
(0.000376765 -0.000338704 0 0.338128 -0.000159597 0 0 0 0)
(-3.48482e-05 0.000334521 0 0.321266 0.000108308 0 0 0 0)
(0.000125685 0.00052982 0 0.316804 -0.00047398 0 0 0 0)
(0.000632876 -0.000212715 0 0.406279 -0.000716904 0 0 0 0)
(0.000343116 -0.000335742 0 0.415608 -0.000554319 0 0 0 0)
(-0.000188978 0.000335144 0 0.401985 6.90282e-05 0 0 0 0)
(0.000294282 0.000535799 0 0.400805 -0.000205131 0 0 0 0)
(0.000720701 -0.000218503 0 0.503422 -0.000736313 0 0 0 0)
(0.000305194 -0.000325605 0 0.508895 -0.000208215 0 0 0 0)
(-0.000281564 0.000340341 0 0.499348 0.000418739 0 0 0 0)
(0.000430204 0.000534325 0 0.500191 -0.000538026 0 0 0 0)
(0.000792567 -0.000207657 0 0.617206 -0.000896282 0 0 0 0)
(0.000275214 -0.000316491 0 0.620475 -0.000384955 0 0 0 0)
(-0.000334046 0.000329647 0 0.61339 0.000296847 0 0 0 0)
(0.000541003 0.000526089 0 0.615222 -0.000528589 0 0 0 0)
(0.000837072 -0.000216169 0 0.749904 -0.000864842 0 0 0 0)
(0.000241598 -0.000305719 0 0.751802 -0.000291421 0 0 0 0)
(-0.000369114 0.000337947 0 0.74665 0.000398174 0 0 0 0)
(0.000616023 0.000525926 0 0.74868 -0.00057116 0 0 0 0)
(0.000883564 -0.000203333 0 0.903884 -0.000904418 0 0 0 0)
(0.000220988 -0.000295441 0 0.905302 -0.000141319 0 0 0 0)
(-0.000386082 0.000324985 0 0.900899 0.0004911 0 0 0 0)
(0.00066811 0.000519716 0 0.902574 -0.000793682 0 0 0 0)
(0.000918832 -0.000206378 0 1.08158 -0.000895138 0 0 0 0)
(0.000191848 -0.000282461 0 1.08274 -0.00033089 0 0 0 0)
(-0.00041459 0.000327074 0 1.07893 0.000477059 0 0 0 0)
(0.000697134 0.000514684 0 1.08013 -0.000765315 0 0 0 0)
(0.000965652 -0.000197412 0 1.28524 -0.00102965 0 0 0 0)
(0.000176791 -0.000272571 0 1.28653 2.98926e-05 0 0 0 0)
(-0.00042971 0.000317745 0 1.28245 0.000487301 0 0 0 0)
(0.000705671 0.000511808 0 1.28331 -0.000748842 0 0 0 0)
(0.00100924 -0.000193206 0 1.51666 -0.00101673 0 0 0 0)
(0.000145219 -0.000257178 0 1.5187 -0.000504786 0 0 0 0)
(-0.000468208 0.000314095 0 1.51454 0.000466969 0 0 0 0)
(0.000714047 0.000503478 0 1.51522 -0.000763282 0 0 0 0)
(0.00107597 -0.000191623 0 1.77763 -0.00103926 0 0 0 0)
(0.000141487 -0.000247843 0 1.7805 0.000346574 0 0 0 0)
(-0.000487622 0.000313436 0 1.77611 0.000712976 0 0 0 0)
(0.000701466 0.000506158 0 1.77679 -0.000756918 0 0 0 0)
(0.00113304 -0.000174015 0 2.06952 -0.00122907 0 0 0 0)
(0.000119797 -0.000227974 0 2.07411 -0.000620362 0 0 0 0)
(-0.000529897 0.000295703 0 2.06974 0.000458517 0 0 0 0)
(0.000724154 0.000488255 0 2.07096 -0.000684207 0 0 0 0)
(0.00121668 -0.000185966 0 2.39379 -0.00129665 0 0 0 0)
(0.00014522 -0.000219716 0 2.39965 -4.26278e-05 0 0 0 0)
(-0.000540099 0.000312372 0 2.39632 0.000430523 0 0 0 0)
(0.000729063 0.000506157 0 2.39925 -0.000775303 0 0 0 0)
(0.00125805 -0.000161296 0 2.75044 -0.00118571 0 0 0 0)
(0.000161928 -0.000199188 0 2.75857 2.04761e-05 0 0 0 0)
(-0.000536578 0.000283492 0 2.75842 0.00116726 0 0 0 0)
(0.000851677 0.000480883 0 2.76612 -0.000475949 0 0 0 0)
(0.00131594 -0.000171276 0 3.15376 -0.0014294 0 0 0 0)
(0.0002781 -0.0001805 0 3.16638 -0.000478987 0 0 0 0)
(-0.000414254 0.000304099 0 3.16281 0.000500739 0 0 0 0)
(0.000946063 0.000501878 0 3.16878 0.000480811 0 0 0 0)
(0.0013547 -0.000159131 0 4.93884 -0.000907456 0 0 0 0)
(0.000312653 -0.000167019 0 4.95501 0.000440928 0 0 0 0)
(-0.000496563 0.000299489 0 4.953 0.000459179 0 0 0 0)
(0.00117745 0.000520203 0 4.94801 -0.000586876 0 0 0 0)
)
;

boundaryField
{
    topWall
    {
        type            extrapolatedCalculated;
        value           nonuniform List<tensor> 0();
    }
    botWall
    {
        type            extrapolatedCalculated;
        value           nonuniform List<tensor> 0();
    }
    inlet
    {
        type            cyclic;
    }
    outlet
    {
        type            cyclic;
    }
    fixWall
    {
        type            empty;
    }
    procBoundary3to2
    {
        type            processor;
        value           nonuniform List<tensor> 8((-0.00044428 -0.000427341 0 0.273183 0.000620341 0 0 0 0) (-0.00100672 -0.000293637 0 0.273485 0.00105256 0 0 0 0) (-6.09184e-05 0.000309137 0 0.266894 6.8946e-05 0 0 0 0) (0.000669052 0.000101494 0 0.25784 -0.000611356 0 0 0 0) (0.000338778 -0.00022218 0 0.258695 -0.00019705 0 0 0 0) (0.000365752 -0.000342589 0 0.272247 -0.000319683 0 0 0 0) (0.00016642 0.000340384 0 0.256815 -0.000160417 0 0 0 0) (-2.80802e-05 0.000534733 0 0.252246 -4.45331e-05 0 0 0 0));
    }
    procBoundary3to4
    {
        type            processor;
        value           nonuniform List<tensor> 8((0.000241201 -0.000125333 0 18.7957 -0.00742868 0 0 0 0) (-0.00204682 -0.000249 0 19.4291 -0.00268813 0 0 0 0) (-0.000925761 -2.57823e-06 0 19.2118 0.00206895 0 0 0 0) (0.000463397 -7.18786e-05 0 19.3426 -0.00190039 0 0 0 0) (0.00121543 -0.000159057 0 19.1966 0.000481595 0 0 0 0) (0.000514193 -0.000157723 0 18.8951 -0.00177393 0 0 0 0) (-0.000530866 0.000286968 0 19.118 0.00110593 0 0 0 0) (0.00106923 0.000478602 0 18.8693 -0.00513852 0 0 0 0));
    }
}


// ************************************************************************* //
