/*--------------------------------*- C++ -*----------------------------------*\
  =========                 |
  \\      /  F ield         | OpenFOAM: The Open Source CFD Toolbox
   \\    /   O peration     | Website:  https://openfoam.org
    \\  /    A nd           | Version:  dev
     \\/     M anipulation  |

   OpenFOAM for Windows 20.09 (v1)
   Built by CFD Support, www.cfdsupport.com (based on Symscape).
\*---------------------------------------------------------------------------*/
FoamFile
{
    version     2.0;
    format      ascii;
    class       volScalarField;
    location    "4";
    object      k;
}
// * * * * * * * * * * * * * * * * * * * * * * * * * * * * * * * * * * * * * //

dimensions      [0 2 -2 0 0 0 0];

internalField   nonuniform List<scalar> 
120
(
2.22045e-16
2.22045e-16
2.22045e-16
2.22045e-16
2.22045e-16
2.22045e-16
2.22045e-16
2.22045e-16
2.22045e-16
2.22045e-16
2.22045e-16
2.22045e-16
2.22045e-16
2.22045e-16
2.22045e-16
2.22045e-16
2.22045e-16
2.22045e-16
2.22045e-16
2.22045e-16
2.22045e-16
2.22045e-16
2.22045e-16
2.22045e-16
2.26685e-16
2.26972e-16
2.26955e-16
2.27027e-16
2.36977e-16
2.37305e-16
2.37286e-16
2.37371e-16
2.48869e-16
2.49239e-16
2.49217e-16
2.49317e-16
2.62473e-16
2.62887e-16
2.62862e-16
2.62977e-16
2.77914e-16
2.78377e-16
2.78346e-16
2.78478e-16
2.95339e-16
2.95855e-16
2.95815e-16
2.95966e-16
3.14909e-16
3.15486e-16
3.15433e-16
3.15605e-16
3.36811e-16
3.37458e-16
3.37388e-16
3.37584e-16
3.61256e-16
3.61987e-16
3.61894e-16
3.62118e-16
2.22045e-16
2.22045e-16
2.22045e-16
2.22045e-16
2.22045e-16
2.22045e-16
2.22045e-16
2.22045e-16
2.22045e-16
2.22045e-16
2.22045e-16
2.22045e-16
2.22045e-16
2.22045e-16
2.22045e-16
2.22045e-16
2.22045e-16
2.22045e-16
2.22045e-16
2.22045e-16
2.22045e-16
2.22045e-16
2.22045e-16
2.22045e-16
2.26942e-16
2.26792e-16
2.26939e-16
2.2677e-16
2.37271e-16
2.37093e-16
2.37264e-16
2.37072e-16
2.492e-16
2.48992e-16
2.49189e-16
2.48973e-16
2.62841e-16
2.626e-16
2.62826e-16
2.62584e-16
2.78321e-16
2.78044e-16
2.78303e-16
2.78033e-16
2.95786e-16
2.95468e-16
2.95765e-16
2.95462e-16
3.154e-16
3.15037e-16
3.15377e-16
3.15036e-16
3.37352e-16
3.36937e-16
3.37326e-16
3.3694e-16
3.61856e-16
3.61381e-16
3.61828e-16
3.61388e-16
)
;

boundaryField
{
    topWall
    {
        type            kqRWallFunction;
        value           nonuniform List<scalar> 0();
    }
    botWall
    {
        type            kqRWallFunction;
        value           nonuniform List<scalar> 0();
    }
    inlet
    {
        type            cyclic;
    }
    outlet
    {
        type            cyclic;
    }
    fixWall
    {
        type            empty;
    }
    procBoundary3to2
    {
        type            processor;
        value           uniform 2.22045e-16;
    }
    procBoundary3to4
    {
        type            processor;
        value           nonuniform List<scalar> 8(3.87931e-16 3.88746e-16 3.88632e-16 3.88884e-16 3.88598e-16 3.88049e-16 3.88564e-16 3.88065e-16);
    }
}


// ************************************************************************* //
