/*--------------------------------*- C++ -*----------------------------------*\
  =========                 |
  \\      /  F ield         | OpenFOAM: The Open Source CFD Toolbox
   \\    /   O peration     | Website:  https://openfoam.org
    \\  /    A nd           | Version:  dev
     \\/     M anipulation  |

   OpenFOAM for Windows 20.09 (v1)
   Built by CFD Support, www.cfdsupport.com (based on Symscape).
\*---------------------------------------------------------------------------*/
FoamFile
{
    version     2.0;
    format      ascii;
    class       volScalarField;
    location    "4";
    object      nut;
}
// * * * * * * * * * * * * * * * * * * * * * * * * * * * * * * * * * * * * * //

dimensions      [0 2 -1 0 0 0 0];

internalField   nonuniform List<scalar> 
120
(
1.23943e-17
1.23991e-17
1.24017e-17
1.23999e-17
1.24082e-17
1.24129e-17
1.24162e-17
1.24144e-17
1.23799e-17
1.23844e-17
1.23884e-17
1.23867e-17
1.23081e-17
1.23123e-17
1.2317e-17
1.23156e-17
1.2192e-17
1.21958e-17
1.22013e-17
1.22001e-17
1.20309e-17
1.20342e-17
1.20405e-17
1.20396e-17
1.20717e-17
1.20897e-17
1.20961e-17
1.20994e-17
1.23516e-17
1.23705e-17
1.23781e-17
1.23825e-17
1.264e-17
1.26596e-17
1.26685e-17
1.26742e-17
1.29305e-17
1.29504e-17
1.29607e-17
1.29677e-17
1.32156e-17
1.32353e-17
1.32471e-17
1.32555e-17
1.34874e-17
1.35062e-17
1.35197e-17
1.35295e-17
1.37369e-17
1.37541e-17
1.37695e-17
1.37806e-17
1.39554e-17
1.397e-17
1.39875e-17
1.39995e-17
1.41337e-17
1.41446e-17
1.41643e-17
1.41768e-17
1.23999e-17
1.23995e-17
1.23995e-17
1.2399e-17
1.24142e-17
1.24135e-17
1.24134e-17
1.24131e-17
1.23861e-17
1.23853e-17
1.23851e-17
1.2385e-17
1.23147e-17
1.23135e-17
1.23132e-17
1.23134e-17
1.21989e-17
1.21973e-17
1.21969e-17
1.21975e-17
1.20381e-17
1.20362e-17
1.20356e-17
1.20365e-17
1.20932e-17
1.20829e-17
1.20897e-17
1.20821e-17
1.23755e-17
1.23634e-17
1.23708e-17
1.23628e-17
1.26664e-17
1.26525e-17
1.26602e-17
1.26521e-17
1.29595e-17
1.29439e-17
1.29516e-17
1.29434e-17
1.32472e-17
1.32302e-17
1.32375e-17
1.32292e-17
1.35215e-17
1.35033e-17
1.35098e-17
1.35016e-17
1.37734e-17
1.37546e-17
1.37598e-17
1.37516e-17
1.39936e-17
1.3975e-17
1.39784e-17
1.39702e-17
1.41727e-17
1.4155e-17
1.41564e-17
1.41482e-17
)
;

boundaryField
{
    topWall
    {
        type            nutkWallFunction;
        Cmu             0.09;
        kappa           0.41;
        E               9.8;
        value           nonuniform List<scalar> 0();
    }
    botWall
    {
        type            nutkWallFunction;
        Cmu             0.09;
        kappa           0.41;
        E               9.8;
        value           nonuniform List<scalar> 0();
    }
    inlet
    {
        type            cyclic;
    }
    outlet
    {
        type            cyclic;
    }
    fixWall
    {
        type            empty;
    }
    procBoundary3to2
    {
        type            processor;
        value           nonuniform List<scalar> 8(1.23674e-17 1.23722e-17 1.23742e-17 1.23724e-17 1.23726e-17 1.23725e-17 1.23724e-17 1.23718e-17);
    }
    procBoundary3to4
    {
        type            processor;
        value           nonuniform List<scalar> 8(6.64313e-18 6.44345e-18 6.51069e-18 6.4705e-18 6.51378e-18 6.60776e-18 6.54189e-18 6.61815e-18);
    }
}


// ************************************************************************* //
