/*--------------------------------*- C++ -*----------------------------------*\
  =========                 |
  \\      /  F ield         | OpenFOAM: The Open Source CFD Toolbox
   \\    /   O peration     | Website:  https://openfoam.org
    \\  /    A nd           | Version:  dev
     \\/     M anipulation  |

   OpenFOAM for Windows 20.09 (v1)
   Built by CFD Support, www.cfdsupport.com (based on Symscape).
\*---------------------------------------------------------------------------*/
FoamFile
{
    version     2.0;
    format      ascii;
    class       volScalarField;
    location    "4";
    object      omega;
}
// * * * * * * * * * * * * * * * * * * * * * * * * * * * * * * * * * * * * * //

dimensions      [0 0 -1 0 0 0 0];

internalField   nonuniform List<scalar> 
120
(
17.915
17.9081
17.9043
17.9069
17.8949
17.8883
17.8835
17.886
17.9359
17.9294
17.9237
17.926
18.0405
18.0344
18.0274
18.0295
18.2123
18.2067
18.1984
18.2002
18.4561
18.4512
18.4415
18.4428
18.7782
18.7741
18.7627
18.7635
19.186
19.1831
19.1698
19.1698
19.689
19.6877
19.6722
19.6713
20.2987
20.2996
20.2815
20.2794
21.0292
21.033
21.0118
21.0084
21.8974
21.9052
21.8803
21.8756
22.9242
22.9375
22.908
22.9021
24.1348
24.1559
24.1207
24.114
25.56
25.592
25.5497
25.5429
17.9069
17.9075
17.9076
17.9083
17.8864
17.8873
17.8875
17.8879
17.9268
17.9281
17.9284
17.9285
18.0309
18.0326
18.033
18.0327
18.202
18.2043
18.205
18.2041
18.4451
18.448
18.449
18.4475
18.7661
18.7698
18.7713
18.769
19.1727
19.1771
19.1794
19.1762
19.6741
19.6792
19.6828
19.6784
20.2818
20.2875
20.2929
20.2872
21.0098
21.0159
21.0238
21.0165
21.8753
21.8812
21.8926
21.8835
22.8993
22.9041
22.9201
22.909
24.1075
24.11
24.1318
24.1185
25.5319
25.5303
25.5592
25.5431
)
;

boundaryField
{
    topWall
    {
        beta1           0.075;
        blended         0;
        type            omegaWallFunction;
        value           nonuniform List<scalar> 0();
    }
    botWall
    {
        beta1           0.075;
        blended         0;
        type            omegaWallFunction;
        value           nonuniform List<scalar> 0();
    }
    inlet
    {
        type            cyclic;
    }
    outlet
    {
        type            cyclic;
    }
    fixWall
    {
        type            empty;
    }
    procBoundary3to2
    {
        type            processor;
        value           nonuniform List<scalar> 8(17.9541 17.9471 17.9441 17.9467 17.9464 17.9467 17.9468 17.9476);
    }
    procBoundary3to4
    {
        type            processor;
        value           nonuniform List<scalar> 8(27.4317 27.4882 27.4391 27.4366 27.4204 27.4069 27.4441 27.4183);
    }
}


// ************************************************************************* //
