/*--------------------------------*- C++ -*----------------------------------*\
  =========                 |
  \\      /  F ield         | OpenFOAM: The Open Source CFD Toolbox
   \\    /   O peration     | Website:  https://openfoam.org
    \\  /    A nd           | Version:  dev
     \\/     M anipulation  |

   OpenFOAM for Windows 20.09 (v1)
   Built by CFD Support, www.cfdsupport.com (based on Symscape).
\*---------------------------------------------------------------------------*/
FoamFile
{
    version     2.0;
    format      ascii;
    class       volScalarField;
    location    "4";
    object      p;
}
// * * * * * * * * * * * * * * * * * * * * * * * * * * * * * * * * * * * * * //

dimensions      [1 -1 -2 0 0 0 0];

internalField   nonuniform List<scalar> 
120
(
-3.67152
-3.73396
-3.79445
-3.8557
-3.75312
-3.81584
-3.87703
-3.93948
-3.83474
-3.89756
-3.95877
-4.02123
-3.91638
-3.97928
-4.04051
-4.10297
-3.99797
-4.06096
-4.12225
-4.18471
-4.07955
-4.14265
-4.20399
-4.26646
-4.16116
-4.22433
-4.28573
-4.3482
-4.24275
-4.30602
-4.36747
-4.42995
-4.32435
-4.3877
-4.44921
-4.51169
-4.40595
-4.46938
-4.53095
-4.59344
-4.48754
-4.55107
-4.61269
-4.67518
-4.56915
-4.63273
-4.6944
-4.75688
-4.65073
-4.71445
-4.77614
-4.83864
-4.73234
-4.79613
-4.85788
-4.92039
-4.81359
-4.87722
-4.93907
-5.00148
-3.91985
-3.9825
-4.04513
-4.10806
-4.0016
-4.06442
-4.12744
-4.18973
-4.0834
-4.14616
-4.20918
-4.27141
-4.16517
-4.22791
-4.29091
-4.35309
-4.24692
-4.30966
-4.37264
-4.43477
-4.32866
-4.39141
-4.45438
-4.51644
-4.41041
-4.47316
-4.53611
-4.59812
-4.49216
-4.55491
-4.61784
-4.6798
-4.57391
-4.63666
-4.69958
-4.76147
-4.65565
-4.7184
-4.78131
-4.84315
-4.7374
-4.80016
-4.86303
-4.92482
-4.81913
-4.88191
-4.94477
-5.00649
-4.90087
-4.96366
-5.02651
-5.08817
-4.98262
-5.04541
-5.10824
-5.16984
-5.0638
-5.12643
-5.18943
-5.25116
)
;

boundaryField
{
    topWall
    {
        type            calculated;
        value           nonuniform List<scalar> 0();
    }
    botWall
    {
        type            calculated;
        value           nonuniform List<scalar> 0();
    }
    inlet
    {
        type            cyclic;
    }
    outlet
    {
        type            cyclic;
    }
    fixWall
    {
        type            empty;
    }
    procBoundary3to2
    {
        type            processor;
        value           nonuniform List<scalar> 8(-3.5895 -3.65223 -3.71292 -3.77442 -3.83722 -3.90104 -3.96199 -4.02526);
    }
    procBoundary3to4
    {
        type            processor;
        value           nonuniform List<scalar> 8(-4.85906 -4.92184 -4.98388 -5.04613 -5.10863 -5.17128 -5.23432 -5.2966);
    }
}


// ************************************************************************* //
