/*--------------------------------*- C++ -*----------------------------------*\
  =========                 |
  \\      /  F ield         | OpenFOAM: The Open Source CFD Toolbox
   \\    /   O peration     | Website:  https://openfoam.org
    \\  /    A nd           | Version:  dev
     \\/     M anipulation  |

   OpenFOAM for Windows 20.09 (v1)
   Built by CFD Support, www.cfdsupport.com (based on Symscape).
\*---------------------------------------------------------------------------*/
FoamFile
{
    version     2.0;
    format      ascii;
    class       volScalarField;
    location    "4";
    object      p_rgh;
}
// * * * * * * * * * * * * * * * * * * * * * * * * * * * * * * * * * * * * * //

dimensions      [1 -1 -2 0 0 0 0];

internalField   nonuniform List<scalar> 
120
(
0.0480485
-0.0143808
-0.0747868
-0.135992
0.0482571
-0.0144654
-0.0756534
-0.138107
0.0483799
-0.0144312
-0.0756446
-0.138103
0.0484934
-0.0144069
-0.0756357
-0.138098
0.0486497
-0.0143416
-0.0756266
-0.138093
0.0488192
-0.0142743
-0.0756172
-0.138087
0.0489635
-0.014204
-0.0756057
-0.138082
0.0491187
-0.0141486
-0.0755963
-0.138078
0.049273
-0.0140799
-0.0755896
-0.138072
0.0494277
-0.0140106
-0.075578
-0.138065
0.0495818
-0.013941
-0.075567
-0.138059
0.0497288
-0.0138571
-0.075526
-0.138008
0.0498955
-0.0138232
-0.0755191
-0.138019
0.0500293
-0.01376
-0.0755377
-0.138026
0.00533143
-0.084944
-0.141535
-0.215183
-0.200235
-0.262868
-0.325479
-0.388457
-0.200225
-0.263044
-0.326067
-0.388358
-0.200277
-0.263041
-0.326052
-0.388287
-0.200298
-0.263032
-0.326034
-0.388216
-0.200295
-0.263041
-0.326019
-0.388143
-0.200293
-0.263039
-0.326003
-0.388069
-0.20029
-0.263037
-0.325987
-0.387994
-0.200288
-0.263036
-0.32597
-0.387919
-0.200285
-0.263034
-0.325953
-0.387844
-0.200282
-0.263028
-0.325935
-0.387769
-0.200279
-0.263036
-0.325906
-0.387692
-0.200262
-0.263033
-0.325899
-0.387617
-0.200246
-0.263034
-0.325882
-0.387541
-0.200257
-0.263041
-0.32591
-0.387501
-0.266374
-0.348596
-0.390044
-0.43009
)
;

boundaryField
{
    topWall
    {
        type            zeroGradient;
    }
    botWall
    {
        type            zeroGradient;
    }
    inlet
    {
        type            fixedJump;
        patchType       cyclic;
        jump            uniform -0.5;
        value           nonuniform List<scalar> 
15
(
0.0376205
0.0812639
0.0811775
0.0810558
0.080945
0.0808292
0.0807144
0.0805996
0.0804845
0.080375
0.0802533
0.0801389
0.0800466
0.0799494
0.0797958
)
;
    }
    outlet
    {
        type            fixedJump;
        patchType       cyclic;
        value           nonuniform List<scalar> 
15
(
-0.46238
-0.418736
-0.418822
-0.418944
-0.419055
-0.419171
-0.419286
-0.4194
-0.419515
-0.419625
-0.419747
-0.419861
-0.419953
-0.420051
-0.420204
)
;
    }
    fixWall
    {
        type            empty;
    }
    procBoundary3to2
    {
        type            processor;
        value           nonuniform List<scalar> 8(0.0483021 -0.0144034 -0.0750156 -0.136487 -0.199384 -0.263167 -0.324149 -0.38745);
    }
    procBoundary3to4
    {
        type            processor;
        value           nonuniform List<scalar> 8(-4.268 -4.38215 -4.43137 -4.50534 -4.55985 -4.59764 -4.67544 -4.71547);
    }
}


// ************************************************************************* //
