/*--------------------------------*- C++ -*----------------------------------*\
  =========                 |
  \\      /  F ield         | OpenFOAM: The Open Source CFD Toolbox
   \\    /   O peration     | Website:  https://openfoam.org
    \\  /    A nd           | Version:  dev
     \\/     M anipulation  |

   OpenFOAM for Windows 20.09 (v1)
   Built by CFD Support, www.cfdsupport.com (based on Symscape).
\*---------------------------------------------------------------------------*/
FoamFile
{
    version     2.0;
    format      ascii;
    class       surfaceScalarField;
    location    "4";
    object      phi;
}
// * * * * * * * * * * * * * * * * * * * * * * * * * * * * * * * * * * * * * //

dimensions      [0 3 -1 0 0 0 0];

internalField   nonuniform List<scalar> 
217
(
2.04438e-08
1.41998e-09
2.04e-08
-1.1027e-09
2.03932e-08
-5.50128e-11
3.43374e-10
2.04109e-08
2.07057e-08
1.42283e-09
2.06541e-08
-1.05114e-09
2.06413e-08
-4.2136e-11
3.23233e-10
2.06614e-08
2.10254e-08
1.42155e-09
2.09681e-08
-9.93821e-10
2.09517e-08
-2.5705e-11
3.01589e-10
2.09733e-08
2.14157e-08
1.41868e-09
2.13532e-08
-9.31323e-10
2.13344e-08
-6.91021e-12
2.78032e-10
2.13579e-08
2.18887e-08
1.41487e-09
2.18223e-08
-8.6493e-10
2.18024e-08
1.29325e-11
2.52394e-10
2.18281e-08
2.24597e-08
1.41154e-09
2.23899e-08
-7.95177e-10
2.23694e-08
3.34631e-11
2.24777e-10
2.2397e-08
2.31437e-08
1.40817e-09
2.30718e-08
-7.23261e-10
2.30513e-08
5.39945e-11
1.95073e-10
2.3081e-08
2.3959e-08
1.40597e-09
2.38851e-08
-6.49351e-10
2.38647e-08
7.43539e-11
1.63251e-10
2.38966e-08
2.49242e-08
1.40427e-09
2.48489e-08
-5.74076e-10
2.48292e-08
9.41074e-11
1.29279e-10
2.48632e-08
2.60601e-08
1.40446e-09
2.59836e-08
-4.97656e-10
2.59642e-08
1.13569e-10
9.36624e-11
2.59998e-08
2.73889e-08
1.40554e-09
2.73109e-08
-4.19734e-10
2.72919e-08
1.32647e-10
5.66041e-11
2.73289e-08
2.8933e-08
1.40923e-09
2.88535e-08
-3.40251e-10
2.88347e-08
1.5147e-10
1.99098e-11
2.88714e-08
3.07208e-08
1.41365e-09
3.06369e-08
-2.56297e-10
3.06168e-08
1.71524e-10
-1.57353e-11
3.06525e-08
3.27735e-08
1.42208e-09
3.26851e-08
-1.67844e-10
3.26617e-08
1.94874e-10
-4.70501e-11
3.2693e-08
3.5132e-08
3.50361e-08
3.50103e-08
3.50377e-08
2.04341e-08
4.35224e-10
2.0449e-08
-7.41391e-10
2.04471e-08
-1.25247e-09
9.48277e-10
2.0689e-08
4.07678e-10
2.07035e-08
-7.55921e-10
2.06937e-08
-1.24263e-09
9.33425e-10
2.10043e-08
3.76648e-10
2.10175e-08
-7.69102e-10
2.10036e-08
-1.22867e-09
9.12933e-10
2.13917e-08
3.42922e-10
2.14039e-08
-7.81355e-10
2.13876e-08
-1.21227e-09
8.87744e-10
2.18637e-08
3.07322e-10
2.18745e-08
-7.92104e-10
2.18567e-08
-1.19452e-09
8.59669e-10
2.24347e-08
2.69662e-10
2.24445e-08
-8.01893e-10
2.2426e-08
-1.17597e-09
8.29348e-10
2.31202e-08
2.30491e-10
2.31288e-08
-8.10432e-10
2.31091e-08
-1.15627e-09
7.98136e-10
2.39377e-08
1.89399e-10
2.39457e-08
-8.18368e-10
2.39254e-08
-1.13592e-09
7.66718e-10
2.49061e-08
1.46474e-10
2.49128e-08
-8.24983e-10
2.48909e-08
-1.11393e-09
7.35082e-10
2.60457e-08
1.00614e-10
2.6052e-08
-8.31246e-10
2.60295e-08
-1.09134e-09
7.04336e-10
2.73771e-08
5.24511e-11
2.73826e-08
-8.36679e-10
2.73582e-08
-1.0669e-09
6.7265e-10
2.89233e-08
5.66808e-13
2.89298e-08
-8.43123e-10
2.89048e-08
-1.04191e-09
6.4083e-10
3.07059e-08
-5.28544e-11
3.07133e-08
-8.50413e-10
3.06884e-08
-1.017e-09
6.0395e-10
3.27489e-08
-1.08707e-10
3.27611e-08
-8.6254e-10
3.27412e-08
-9.9713e-10
5.6323e-10
3.50945e-08
3.51092e-08
3.5085e-08
)
;

boundaryField
{
    topWall
    {
        type            calculated;
        value           nonuniform List<scalar> 0();
    }
    botWall
    {
        type            calculated;
        value           nonuniform List<scalar> 0();
    }
    inlet
    {
        type            cyclic;
        value           nonuniform List<scalar> 
15
(
-3.51354e-08
-3.27819e-08
-3.07252e-08
-2.89366e-08
-2.73899e-08
-2.60602e-08
-2.49225e-08
-2.39568e-08
-2.31403e-08
-2.24563e-08
-2.18848e-08
-2.14128e-08
-2.10241e-08
-2.07085e-08
-2.0454e-08
)
;
    }
    outlet
    {
        type            cyclic;
        value           nonuniform List<scalar> 
15
(
3.51354e-08
3.27819e-08
3.07252e-08
2.89366e-08
2.73899e-08
2.60602e-08
2.49225e-08
2.39568e-08
2.31403e-08
2.24563e-08
2.18848e-08
2.14128e-08
2.10241e-08
2.07085e-08
2.0454e-08
)
;
    }
    fixWall
    {
        type            empty;
        value           nonuniform List<scalar> 0();
    }
    procBoundary3to2
    {
        type            processor;
        value           nonuniform List<scalar> 8(-1.40985e-09 1.14779e-09 5.95343e-11 -3.61871e-10 -4.55899e-10 7.25115e-10 1.25244e-09 -9.56545e-10);
    }
    procBoundary3to4
    {
        type            processor;
        value           nonuniform List<scalar> 8(1.42577e-09 -7.17918e-11 2.21031e-10 -7.32377e-11 -1.65408e-10 -8.76859e-10 -9.73494e-10 5.12082e-10);
    }
}


// ************************************************************************* //
