/*--------------------------------*- C++ -*----------------------------------*\
  =========                 |
  \\      /  F ield         | OpenFOAM: The Open Source CFD Toolbox
   \\    /   O peration     | Website:  https://openfoam.org
    \\  /    A nd           | Version:  dev
     \\/     M anipulation  |

   OpenFOAM for Windows 20.09 (v1)
   Built by CFD Support, www.cfdsupport.com (based on Symscape).
\*---------------------------------------------------------------------------*/
FoamFile
{
    version     2.0;
    format      ascii;
    class       volSymmTensorField;
    location    "4";
    object      R;
}
// * * * * * * * * * * * * * * * * * * * * * * * * * * * * * * * * * * * * * //

dimensions      [0 2 -2 0 0 0 0];

internalField   nonuniform List<symmTensor> 
120
(
(1.48034e-16 -4.21646e-18 -0 1.48025e-16 -0 1.4803e-16)
(1.48054e-16 -4.21452e-18 -0 1.48006e-16 -0 1.48029e-16)
(1.48034e-16 -4.10704e-18 -0 1.48027e-16 -0 1.48028e-16)
(1.48015e-16 -3.97523e-18 -0 1.48046e-16 -0 1.48028e-16)
(1.48033e-16 -5.20962e-18 -0 1.48024e-16 -0 1.48032e-16)
(1.4806e-16 -5.14824e-18 -0 1.47998e-16 -0 1.48031e-16)
(1.48039e-16 -5.02247e-18 -0 1.4802e-16 -0 1.4803e-16)
(1.48018e-16 -4.98735e-18 -0 1.48041e-16 -0 1.48031e-16)
(1.48028e-16 -6.36032e-18 -0 1.48033e-16 -0 1.48029e-16)
(1.48063e-16 -6.28539e-18 -0 1.47996e-16 -0 1.48031e-16)
(1.48041e-16 -6.18437e-18 -0 1.4802e-16 -0 1.48029e-16)
(1.48016e-16 -6.18591e-18 -0 1.48043e-16 -0 1.4803e-16)
(1.48027e-16 -7.68234e-18 -0 1.48034e-16 -0 1.48029e-16)
(1.48066e-16 -7.60855e-18 -0 1.47992e-16 -0 1.48031e-16)
(1.48042e-16 -7.53794e-18 -0 1.48019e-16 -0 1.48029e-16)
(1.48015e-16 -7.55649e-18 -0 1.48043e-16 -0 1.4803e-16)
(1.48028e-16 -9.19184e-18 -0 1.4803e-16 -0 1.48031e-16)
(1.48068e-16 -9.12723e-18 -0 1.4799e-16 -0 1.48031e-16)
(1.48043e-16 -9.08186e-18 -0 1.48016e-16 -0 1.4803e-16)
(1.48015e-16 -9.10622e-18 -0 1.48044e-16 -0 1.48031e-16)
(1.48027e-16 -1.08932e-17 -0 1.48033e-16 -0 1.48029e-16)
(1.48068e-16 -1.08409e-17 -0 1.47991e-16 -0 1.4803e-16)
(1.48042e-16 -1.08157e-17 -0 1.48019e-16 -0 1.48028e-16)
(1.48013e-16 -1.08411e-17 -0 1.48047e-16 -0 1.4803e-16)
(1.51122e-16 -1.3048e-17 -0 1.51123e-16 -0 1.51124e-16)
(1.51355e-16 -1.30216e-17 -0 1.51273e-16 -0 1.51316e-16)
(1.51317e-16 -1.30135e-17 -0 1.5129e-16 -0 1.51303e-16)
(1.51334e-16 -1.30415e-17 -0 1.51369e-16 -0 1.51352e-16)
(1.57983e-16 -1.58492e-17 -0 1.57988e-16 -0 1.57983e-16)
(1.58245e-16 -1.58304e-17 -0 1.58161e-16 -0 1.58204e-16)
(1.58203e-16 -1.5836e-17 -0 1.58179e-16 -0 1.58189e-16)
(1.58228e-16 -1.58637e-17 -0 1.58267e-16 -0 1.58248e-16)
(1.65914e-16 -1.91372e-17 -0 1.65911e-16 -0 1.65914e-16)
(1.66204e-16 -1.91217e-17 -0 1.66113e-16 -0 1.6616e-16)
(1.66159e-16 -1.91466e-17 -0 1.66131e-16 -0 1.66145e-16)
(1.6619e-16 -1.91645e-17 -0 1.66233e-16 -0 1.66211e-16)
(1.74981e-16 -2.29706e-17 -0 1.74985e-16 -0 1.7498e-16)
(1.75303e-16 -2.29438e-17 -0 1.75213e-16 -0 1.75258e-16)
(1.75254e-16 -2.29845e-17 -0 1.7523e-16 -0 1.7524e-16)
(1.75295e-16 -2.29926e-17 -0 1.75339e-16 -0 1.75318e-16)
(1.85282e-16 -2.73718e-17 -0 1.85268e-16 -0 1.8528e-16)
(1.85633e-16 -2.73276e-17 -0 1.85534e-16 -0 1.85586e-16)
(1.85578e-16 -2.73938e-17 -0 1.85549e-16 -0 1.85564e-16)
(1.85627e-16 -2.73815e-17 -0 1.85677e-16 -0 1.85652e-16)
(1.96895e-16 -3.24204e-17 -0 1.96891e-16 -0 1.96891e-16)
(1.97288e-16 -3.23241e-17 -0 1.97183e-16 -0 1.97239e-16)
(1.97223e-16 -3.23926e-17 -0 1.97198e-16 -0 1.97209e-16)
(1.97287e-16 -3.23643e-17 -0 1.97333e-16 -0 1.97312e-16)
(2.09951e-16 -3.80685e-17 -0 2.09921e-16 -0 2.09946e-16)
(2.10381e-16 -3.79404e-17 -0 2.10262e-16 -0 2.10329e-16)
(2.10304e-16 -3.79852e-17 -0 2.10273e-16 -0 2.10289e-16)
(2.10379e-16 -3.79322e-17 -0 2.10427e-16 -0 2.10404e-16)
(2.24572e-16 -4.44087e-17 -0 2.24485e-16 -0 2.24564e-16)
(2.25041e-16 -4.42666e-17 -0 2.2489e-16 -0 2.24985e-16)
(2.24942e-16 -4.42874e-17 -0 2.24909e-16 -0 2.24925e-16)
(2.25036e-16 -4.42459e-17 -0 2.25075e-16 -0 2.25058e-16)
(2.40832e-16 -7.01067e-17 -0 2.40854e-16 -0 2.40827e-16)
(2.41378e-16 -7.04182e-17 -0 2.4128e-16 -0 2.41317e-16)
(2.41276e-16 -7.02295e-17 -0 2.41256e-16 -0 2.41256e-16)
(2.41397e-16 -7.03309e-17 -0 2.41424e-16 -0 2.41416e-16)
(1.48019e-16 -3.99784e-18 -0 1.48039e-16 -0 1.48031e-16)
(1.48022e-16 -4.18843e-18 -0 1.48035e-16 -0 1.48032e-16)
(1.48031e-16 -3.98767e-18 -0 1.48028e-16 -0 1.4803e-16)
(1.48024e-16 -3.93462e-18 -0 1.48039e-16 -0 1.48027e-16)
(1.48013e-16 -5.04098e-18 -0 1.48047e-16 -0 1.48029e-16)
(1.48019e-16 -5.155e-18 -0 1.48042e-16 -0 1.48028e-16)
(1.48033e-16 -4.99417e-18 -0 1.48027e-16 -0 1.48029e-16)
(1.48023e-16 -4.98189e-18 -0 1.48036e-16 -0 1.4803e-16)
(1.48012e-16 -6.23276e-18 -0 1.48048e-16 -0 1.4803e-16)
(1.48023e-16 -6.29876e-18 -0 1.48036e-16 -0 1.48031e-16)
(1.48038e-16 -6.18868e-18 -0 1.4802e-16 -0 1.48031e-16)
(1.48018e-16 -6.20148e-18 -0 1.48042e-16 -0 1.48029e-16)
(1.48009e-16 -7.59815e-18 -0 1.48051e-16 -0 1.48029e-16)
(1.48022e-16 -7.63631e-18 -0 1.48038e-16 -0 1.48029e-16)
(1.48038e-16 -7.55687e-18 -0 1.48022e-16 -0 1.48029e-16)
(1.48017e-16 -7.58196e-18 -0 1.48043e-16 -0 1.4803e-16)
(1.48009e-16 -9.14536e-18 -0 1.48051e-16 -0 1.4803e-16)
(1.48023e-16 -9.16626e-18 -0 1.48036e-16 -0 1.48029e-16)
(1.48039e-16 -9.11097e-18 -0 1.4802e-16 -0 1.4803e-16)
(1.48015e-16 -9.13842e-18 -0 1.48044e-16 -0 1.4803e-16)
(1.48008e-16 -1.08786e-17 -0 1.48051e-16 -0 1.4803e-16)
(1.48025e-16 -1.08929e-17 -0 1.48034e-16 -0 1.4803e-16)
(1.4804e-16 -1.08468e-17 -0 1.48019e-16 -0 1.48031e-16)
(1.48013e-16 -1.08701e-17 -0 1.48048e-16 -0 1.48029e-16)
(1.51273e-16 -1.30773e-17 -0 1.51317e-16 -0 1.51295e-16)
(1.51189e-16 -1.30792e-17 -0 1.51202e-16 -0 1.51194e-16)
(1.51303e-16 -1.30479e-17 -0 1.51282e-16 -0 1.51293e-16)
(1.51162e-16 -1.30565e-17 -0 1.51198e-16 -0 1.51179e-16)
(1.58156e-16 -1.59031e-17 -0 1.58205e-16 -0 1.5818e-16)
(1.58059e-16 -1.59025e-17 -0 1.58063e-16 -0 1.58064e-16)
(1.58187e-16 -1.58688e-17 -0 1.58164e-16 -0 1.58176e-16)
(1.5803e-16 -1.58717e-17 -0 1.58066e-16 -0 1.58048e-16)
(1.66107e-16 -1.92082e-17 -0 1.66159e-16 -0 1.66133e-16)
(1.65988e-16 -1.92121e-17 -0 1.66004e-16 -0 1.65991e-16)
(1.66138e-16 -1.91784e-17 -0 1.66114e-16 -0 1.66126e-16)
(1.65964e-16 -1.91771e-17 -0 1.66001e-16 -0 1.65982e-16)
(1.752e-16 -2.30347e-17 -0 1.75254e-16 -0 1.75227e-16)
(1.75067e-16 -2.30434e-17 -0 1.75062e-16 -0 1.75071e-16)
(1.75232e-16 -2.30075e-17 -0 1.75201e-16 -0 1.75219e-16)
(1.75038e-16 -2.30043e-17 -0 1.75075e-16 -0 1.75056e-16)
(1.85517e-16 -2.74131e-17 -0 1.85579e-16 -0 1.85547e-16)
(1.85355e-16 -2.74379e-17 -0 1.85375e-16 -0 1.85358e-16)
(1.85549e-16 -2.74022e-17 -0 1.85523e-16 -0 1.85535e-16)
(1.85336e-16 -2.74037e-17 -0 1.85374e-16 -0 1.85355e-16)
(1.97157e-16 -3.23651e-17 -0 1.97225e-16 -0 1.9719e-16)
(1.96976e-16 -3.24003e-17 -0 1.96981e-16 -0 1.9698e-16)
(1.97191e-16 -3.23781e-17 -0 1.97164e-16 -0 1.97176e-16)
(1.96955e-16 -3.24005e-17 -0 1.96995e-16 -0 1.96974e-16)
(2.10233e-16 -3.78807e-17 -0 2.103e-16 -0 2.10267e-16)
(2.10022e-16 -3.79403e-17 -0 2.10026e-16 -0 2.10026e-16)
(2.10272e-16 -3.79593e-17 -0 2.10225e-16 -0 2.10257e-16)
(2.10004e-16 -3.80452e-17 -0 2.10041e-16 -0 2.10027e-16)
(2.24863e-16 -4.41302e-17 -0 2.2494e-16 -0 2.249e-16)
(2.24615e-16 -4.42475e-17 -0 2.24636e-16 -0 2.24623e-16)
(2.24896e-16 -4.42154e-17 -0 2.24871e-16 -0 2.24885e-16)
(2.24614e-16 -4.42756e-17 -0 2.24627e-16 -0 2.2464e-16)
(2.41203e-16 -6.99944e-17 -0 2.41267e-16 -0 2.41242e-16)
(2.40919e-16 -7.01356e-17 -0 2.40915e-16 -0 2.40928e-16)
(2.41232e-16 -7.01211e-17 -0 2.41205e-16 -0 2.41218e-16)
(2.40898e-16 -7.00126e-17 -0 2.40948e-16 -0 2.40931e-16)
)
;

boundaryField
{
    topWall
    {
        type            kqRWallFunction;
        value           nonuniform List<symmTensor> 0();
    }
    botWall
    {
        type            kqRWallFunction;
        value           nonuniform List<symmTensor> 0();
    }
    inlet
    {
        type            cyclic;
    }
    outlet
    {
        type            cyclic;
    }
    fixWall
    {
        type            empty;
    }
    procBoundary3to2
    {
        type            processor;
        value           nonuniform List<symmTensor> 8((1.48042e-16 -3.37327e-18 -0 1.48016e-16 -0 1.48031e-16) (1.48055e-16 -3.37998e-18 -0 1.48004e-16 -0 1.4803e-16) (1.48031e-16 -3.30643e-18 -0 1.48028e-16 -0 1.4803e-16) (1.48014e-16 -3.19136e-18 -0 1.48045e-16 -0 1.4803e-16) (1.48023e-16 -3.19799e-18 -0 1.48036e-16 -0 1.48031e-16) (1.48021e-16 -3.36413e-18 -0 1.48038e-16 -0 1.4803e-16) (1.48026e-16 -3.18162e-18 -0 1.48034e-16 -0 1.4803e-16) (1.4803e-16 -3.12735e-18 -0 1.4803e-16 -0 1.48029e-16));
    }
    procBoundary3to4
    {
        type            processor;
        value           nonuniform List<symmTensor> 8((2.58585e-16 -1.24861e-16 -0 2.58687e-16 -0 2.58589e-16) (2.5917e-16 -1.25189e-16 -0 2.59179e-16 -0 2.59144e-16) (2.59105e-16 -1.25082e-16 -0 2.59066e-16 -0 2.59093e-16) (2.59244e-16 -1.25156e-16 -0 2.59274e-16 -0 2.5925e-16) (2.59057e-16 -1.25041e-16 -0 2.59066e-16 -0 2.59073e-16) (2.58687e-16 -1.24853e-16 -0 2.58717e-16 -0 2.58694e-16) (2.59052e-16 -1.2507e-16 -0 2.59031e-16 -0 2.59045e-16) (2.58678e-16 -1.24883e-16 -0 2.5876e-16 -0 2.58692e-16));
    }
}


// ************************************************************************* //
