/*--------------------------------*- C++ -*----------------------------------*\
  =========                 |
  \\      /  F ield         | OpenFOAM: The Open Source CFD Toolbox
   \\    /   O peration     | Website:  https://openfoam.org
    \\  /    A nd           | Version:  dev
     \\/     M anipulation  |

   OpenFOAM for Windows 20.09 (v1)
   Built by CFD Support, www.cfdsupport.com (based on Symscape).
\*---------------------------------------------------------------------------*/
FoamFile
{
    version     2.0;
    format      ascii;
    class       volVectorField;
    location    "4";
    object      U;
}
// * * * * * * * * * * * * * * * * * * * * * * * * * * * * * * * * * * * * * //

dimensions      [0 1 -1 0 0 0 0];

internalField   nonuniform List<vector> 
120
(
(0.0245563 2.81239e-05 0)
(0.0245103 -2.25652e-05 0)
(0.024453 -1.23579e-06 0)
(0.024485 7.09512e-06 0)
(0.024871 2.86071e-05 0)
(0.0248209 -2.18262e-05 0)
(0.0247541 -9.93958e-07 0)
(0.024782 6.39262e-06 0)
(0.0252567 2.86894e-05 0)
(0.025202 -2.03822e-05 0)
(0.0251267 -5.95068e-07 0)
(0.0251544 6.42738e-06 0)
(0.0257279 2.8334e-05 0)
(0.0256673 -1.94973e-05 0)
(0.0255857 -3.8224e-07 0)
(0.0256142 5.53986e-06 0)
(0.0262976 2.83444e-05 0)
(0.0262324 -1.77864e-05 0)
(0.0261463 4.41707e-08 0)
(0.0261769 5.55237e-06 0)
(0.0269851 2.83604e-05 0)
(0.0269151 -1.67018e-05 0)
(0.0268258 5.59295e-07 0)
(0.0268581 4.62177e-06 0)
(0.0278072 2.80386e-05 0)
(0.0277343 -1.51188e-05 0)
(0.0276431 7.1598e-07 0)
(0.0276776 4.33774e-06 0)
(0.028787 2.83646e-05 0)
(0.0287107 -1.37756e-05 0)
(0.0286186 1.51291e-06 0)
(0.0286544 3.47813e-06 0)
(0.0299463 2.77302e-05 0)
(0.0298676 -1.22273e-05 0)
(0.029775 1.38986e-06 0)
(0.0298128 3.07042e-06 0)
(0.0313108 2.85779e-05 0)
(0.0312285 -1.06989e-05 0)
(0.0311373 2.43794e-06 0)
(0.0311746 2.05793e-06 0)
(0.0329075 2.73962e-05 0)
(0.0328208 -9.30932e-06 0)
(0.0327305 2.03452e-06 0)
(0.0327679 1.72887e-06 0)
(0.0347632 2.9342e-05 0)
(0.0346702 -7.43539e-06 0)
(0.0345836 3.39094e-06 0)
(0.0346173 4.58246e-07 0)
(0.0369141 2.73765e-05 0)
(0.03681 -5.84784e-06 0)
(0.0367236 2.73311e-06 0)
(0.0367548 3.85972e-07 0)
(0.0393822 3.08595e-05 0)
(0.0392681 -3.35858e-06 0)
(0.0391812 4.36761e-06 0)
(0.039205 -9.76616e-07 0)
(0.042218 3.2143e-05 0)
(0.0420916 -2.01546e-07 0)
(0.0420006 3.69814e-06 0)
(0.0420224 -6.28833e-07 0)
(0.024506 9.01228e-06 0)
(0.0245338 -1.4499e-05 0)
(0.0245437 -2.48581e-05 0)
(0.0245303 1.8953e-05 0)
(0.0248073 8.6014e-06 0)
(0.0248453 -1.48789e-05 0)
(0.0248416 -2.49728e-05 0)
(0.0248264 1.86356e-05 0)
(0.0251832 7.81744e-06 0)
(0.0252265 -1.54229e-05 0)
(0.0252137 -2.4743e-05 0)
(0.0251983 1.86111e-05 0)
(0.0256463 7.37421e-06 0)
(0.0256934 -1.52259e-05 0)
(0.0256738 -2.42749e-05 0)
(0.02566 1.77389e-05 0)
(0.0262118 6.32364e-06 0)
(0.0262606 -1.60645e-05 0)
(0.026236 -2.42483e-05 0)
(0.0262237 1.77302e-05 0)
(0.0268961 5.93281e-06 0)
(0.0269464 -1.57116e-05 0)
(0.0269182 -2.36113e-05 0)
(0.0269078 1.67869e-05 0)
(0.0277183 4.81628e-06 0)
(0.0277695 -1.63e-05 0)
(0.0277375 -2.34298e-05 0)
(0.027728 1.64074e-05 0)
(0.0286988 4.44091e-06 0)
(0.028751 -1.62631e-05 0)
(0.0287165 -2.28162e-05 0)
(0.028708 1.55114e-05 0)
(0.0298604 3.1002e-06 0)
(0.0299137 -1.62502e-05 0)
(0.0298749 -2.26176e-05 0)
(0.0298669 1.51593e-05 0)
(0.0312265 2.74636e-06 0)
(0.0312822 -1.71044e-05 0)
(0.0312407 -2.20379e-05 0)
(0.0312334 1.42393e-05 0)
(0.0328231 1.3681e-06 0)
(0.0328812 -1.56726e-05 0)
(0.0328351 -2.14293e-05 0)
(0.0328282 1.38978e-05 0)
(0.0346757 6.97914e-07 0)
(0.034739 -1.81383e-05 0)
(0.0346903 -2.12737e-05 0)
(0.034685 1.30989e-05 0)
(0.0368127 -7.92984e-07 0)
(0.0368806 -1.57436e-05 0)
(0.0368289 -2.07118e-05 0)
(0.0368269 1.26056e-05 0)
(0.0392598 -1.27826e-06 0)
(0.0393366 -1.81042e-05 0)
(0.0392876 -1.93283e-05 0)
(0.0392952 1.23057e-05 0)
(0.042069 -3.17532e-06 0)
(0.0421579 -1.6542e-05 0)
(0.0421003 -1.98772e-05 0)
(0.0421082 1.34069e-05 0)
)
;

boundaryField
{
    topWall
    {
        type            noSlip;
    }
    botWall
    {
        type            noSlip;
    }
    inlet
    {
        type            cyclic;
    }
    outlet
    {
        type            cyclic;
    }
    fixWall
    {
        type            empty;
    }
    procBoundary3to2
    {
        type            processor;
        value           nonuniform List<vector> 8((0.0243033 2.83199e-05 0) (0.0242539 -2.33085e-05 0) (0.0242027 -1.04377e-06 0) (0.0242478 7.60515e-06 0) (0.0242696 9.1056e-06 0) (0.0242817 -1.46129e-05 0) (0.0243061 -2.51533e-05 0) (0.0242984 1.94255e-05 0));
    }
    procBoundary3to4
    {
        type            processor;
        value           nonuniform List<vector> 8((0.0476496 2.92972e-05 0) (0.047566 -1.20579e-06 0) (0.0474449 4.39718e-06 0) (0.0474734 -1.46361e-06 0) (0.0474912 -2.79069e-06 0) (0.047595 -1.73693e-05 0) (0.0475426 -1.8563e-05 0) (0.0475419 1.13275e-05 0));
    }
}


// ************************************************************************* //
