/*--------------------------------*- C++ -*----------------------------------*\
  =========                 |
  \\      /  F ield         | OpenFOAM: The Open Source CFD Toolbox
   \\    /   O peration     | Website:  https://openfoam.org
    \\  /    A nd           | Version:  dev
     \\/     M anipulation  |

   OpenFOAM for Windows 20.09 (v1)
   Built by CFD Support, www.cfdsupport.com (based on Symscape).
\*---------------------------------------------------------------------------*/
FoamFile
{
    version     2.0;
    format      ascii;
    class       volVectorField;
    location    "4";
    object      UMean;
}
// * * * * * * * * * * * * * * * * * * * * * * * * * * * * * * * * * * * * * //

dimensions      [0 1 -1 0 0 0 0];

internalField   nonuniform List<vector> 
120
(
(0.0216035 1.59494e-05 0)
(0.0215678 -2.24154e-05 0)
(0.0215316 -1.98074e-06 0)
(0.0215611 9.60705e-06 0)
(0.0218529 1.64045e-05 0)
(0.0218121 -2.19648e-05 0)
(0.0217682 -1.9579e-06 0)
(0.0217966 8.97255e-06 0)
(0.0221626 1.64252e-05 0)
(0.0221174 -2.08159e-05 0)
(0.022067 -1.78864e-06 0)
(0.0220965 8.9281e-06 0)
(0.0225464 1.64506e-05 0)
(0.0224961 -2.02628e-05 0)
(0.0224413 -1.69576e-06 0)
(0.0224723 8.01962e-06 0)
(0.0230174 1.63338e-05 0)
(0.0229636 -1.88722e-05 0)
(0.0229057 -1.55848e-06 0)
(0.0229388 8.0236e-06 0)
(0.023594 1.67321e-05 0)
(0.0235366 -1.8225e-05 0)
(0.0234768 -1.28911e-06 0)
(0.0235116 7.05801e-06 0)
(0.0242936 1.62816e-05 0)
(0.0242342 -1.68413e-05 0)
(0.0241733 -1.3035e-06 0)
(0.02421 6.82199e-06 0)
(0.0251387 1.69929e-05 0)
(0.025077 -1.60792e-05 0)
(0.025016 -8.98136e-07 0)
(0.0250538 5.95201e-06 0)
(0.0261515 1.62064e-05 0)
(0.0260885 -1.46545e-05 0)
(0.0260277 -1.06708e-06 0)
(0.0260667 5.56458e-06 0)
(0.0273582 1.7427e-05 0)
(0.027293 -1.39344e-05 0)
(0.0272339 -5.69783e-07 0)
(0.0272729 4.71689e-06 0)
(0.028786 1.60719e-05 0)
(0.0287183 -1.23615e-05 0)
(0.0286608 -8.1495e-07 0)
(0.0287004 4.24511e-06 0)
(0.0304639 1.82409e-05 0)
(0.0303919 -1.17777e-05 0)
(0.030338 -3.13555e-07 0)
(0.0303765 3.44011e-06 0)
(0.0324258 1.62479e-05 0)
(0.0323471 -9.97366e-06 0)
(0.0322943 -7.35552e-07 0)
(0.032334 2.93034e-06 0)
(0.0346992 1.94996e-05 0)
(0.0346136 -8.80562e-06 0)
(0.0345615 7.44497e-08 0)
(0.0346007 2.21837e-06 0)
(0.0373315 1.96573e-05 0)
(0.03724 -6.36746e-06 0)
(0.0371815 -6.89337e-07 0)
(0.0372238 2.0748e-06 0)
(0.0215794 1.01214e-05 0)
(0.0215885 -7.25502e-06 0)
(0.0215904 -1.99261e-05 0)
(0.0215878 1.6078e-05 0)
(0.0218193 9.93359e-06 0)
(0.0218354 -7.34244e-06 0)
(0.0218279 -1.99857e-05 0)
(0.0218245 1.57673e-05 0)
(0.0221222 9.50125e-06 0)
(0.022142 -7.6084e-06 0)
(0.0221284 -1.98641e-05 0)
(0.0221248 1.57489e-05 0)
(0.0225006 9.13194e-06 0)
(0.0225231 -7.35965e-06 0)
(0.0225049 -1.95001e-05 0)
(0.0225021 1.5008e-05 0)
(0.0229688 8.56276e-06 0)
(0.0229925 -7.83786e-06 0)
(0.0229711 -1.95114e-05 0)
(0.022969 1.50568e-05 0)
(0.0235434 8.26799e-06 0)
(0.023568 -7.41801e-06 0)
(0.0235445 -1.9077e-05 0)
(0.0235433 1.42244e-05 0)
(0.0242432 7.58429e-06 0)
(0.024268 -7.8041e-06 0)
(0.0242424 -1.89157e-05 0)
(0.0242416 1.40566e-05 0)
(0.0250887 7.3408e-06 0)
(0.0251139 -7.54532e-06 0)
(0.0250872 -1.85526e-05 0)
(0.0250867 1.32096e-05 0)
(0.0261031 6.537e-06 0)
(0.0261286 -7.59222e-06 0)
(0.0260998 -1.83364e-05 0)
(0.0260994 1.31411e-05 0)
(0.027311 6.3199e-06 0)
(0.0273376 -7.84329e-06 0)
(0.0273079 -1.80614e-05 0)
(0.0273076 1.21949e-05 0)
(0.0287391 5.49232e-06 0)
(0.0287667 -7.08373e-06 0)
(0.0287345 -1.75163e-05 0)
(0.0287348 1.22297e-05 0)
(0.0304152 5.1831e-06 0)
(0.0304452 -8.23043e-06 0)
(0.0304126 -1.76035e-05 0)
(0.0304143 1.13007e-05 0)
(0.0323696 4.37698e-06 0)
(0.0324016 -6.97515e-06 0)
(0.0323668 -1.7105e-05 0)
(0.0323721 1.12696e-05 0)
(0.0346321 4.0262e-06 0)
(0.0346668 -8.04624e-06 0)
(0.0346346 -1.62544e-05 0)
(0.0346485 1.06588e-05 0)
(0.0372463 3.09014e-06 0)
(0.0372881 -7.17592e-06 0)
(0.037249 -1.67683e-05 0)
(0.0372658 1.17517e-05 0)
)
;

boundaryField
{
    topWall
    {
        type            calculated;
        value           nonuniform List<vector> 0();
    }
    botWall
    {
        type            calculated;
        value           nonuniform List<vector> 0();
    }
    inlet
    {
        type            cyclic;
    }
    outlet
    {
        type            cyclic;
    }
    fixWall
    {
        type            empty;
    }
    procBoundary3to2
    {
        type            processor;
        value           nonuniform List<vector> 8((0.0214042 1.60728e-05 0) (0.0213693 -2.30769e-05 0) (0.0213406 -1.84451e-06 0) (0.021376 1.01219e-05 0) (0.0213933 1.02494e-05 0) (0.0213919 -7.37354e-06 0) (0.0214043 -2.0185e-05 0) (0.0214053 1.6468e-05 0));
    }
    procBoundary3to4
    {
        type            processor;
        value           nonuniform List<vector> 8((0.0424227 1.81866e-05 0) (0.0423622 -6.83243e-06 0) (0.0422686 -6.00836e-08 0) (0.0423138 1.49702e-06 0) (0.0423251 3.17945e-06 0) (0.0423743 -7.64859e-06 0) (0.0423393 -1.58336e-05 0) (0.0423522 1.00499e-05 0));
    }
}


// ************************************************************************* //
