/*--------------------------------*- C++ -*----------------------------------*\
  =========                 |
  \\      /  F ield         | OpenFOAM: The Open Source CFD Toolbox
   \\    /   O peration     | Website:  https://openfoam.org
    \\  /    A nd           | Version:  dev
     \\/     M anipulation  |

   OpenFOAM for Windows 20.09 (v1)
   Built by CFD Support, www.cfdsupport.com (based on Symscape).
\*---------------------------------------------------------------------------*/
FoamFile
{
    version     2.0;
    format      ascii;
    class       volSymmTensorField;
    location    "4";
    object      UPrime2Mean;
}
// * * * * * * * * * * * * * * * * * * * * * * * * * * * * * * * * * * * * * //

dimensions      [0 2 -2 0 0 0 0];

internalField   nonuniform List<symmTensor> 
120
(
(1.34547e-05 5.54757e-08 0 2.28734e-10 0 0)
(1.33616e-05 -6.80136e-10 0 3.46203e-14 0 0)
(1.31706e-05 3.3585e-09 0 8.56419e-13 0 0)
(1.31936e-05 -1.13345e-08 0 9.73731e-12 0 0)
(1.40572e-05 5.68346e-08 0 2.29789e-10 0 0)
(1.39706e-05 6.43563e-10 0 2.96461e-14 0 0)
(1.37587e-05 4.44173e-09 0 1.43393e-12 0 0)
(1.37538e-05 -1.1886e-08 0 1.02717e-11 0 0)
(1.47742e-05 5.85606e-08 0 2.32116e-10 0 0)
(1.46836e-05 2.06431e-09 0 2.90212e-13 0 0)
(1.44472e-05 5.63578e-09 0 2.1985e-12 0 0)
(1.44306e-05 -1.18011e-08 0 9.6507e-12 0 0)
(1.56209e-05 5.83451e-08 0 2.17923e-10 0 0)
(1.55191e-05 3.74633e-09 0 9.04365e-13 0 0)
(1.52581e-05 6.37382e-09 0 2.66255e-12 0 0)
(1.52339e-05 -1.20234e-08 0 9.4896e-12 0 0)
(1.66046e-05 6.07981e-08 0 2.22614e-10 0 0)
(1.64898e-05 5.47758e-09 0 1.81954e-12 0 0)
(1.62062e-05 8.01478e-09 0 3.96372e-12 0 0)
(1.61814e-05 -1.23491e-08 0 9.42439e-12 0 0)
(1.77458e-05 6.08523e-08 0 2.08669e-10 0 0)
(1.76145e-05 7.9415e-09 0 3.58043e-12 0 0)
(1.73084e-05 9.55297e-09 0 5.27254e-12 0 0)
(1.72821e-05 -1.25815e-08 0 9.15942e-12 0 0)
(1.90512e-05 6.37488e-08 0 2.13315e-10 0 0)
(1.89058e-05 9.30418e-09 0 4.57889e-12 0 0)
(1.85792e-05 1.08135e-08 0 6.29372e-12 0 0)
(1.85559e-05 -1.32938e-08 0 9.52395e-12 0 0)
(2.05411e-05 6.40249e-08 0 1.9956e-10 0 0)
(2.03758e-05 1.29176e-08 0 8.18934e-12 0 0)
(2.00291e-05 1.34045e-08 0 8.97095e-12 0 0)
(2.00075e-05 -1.37464e-08 0 9.44458e-12 0 0)
(2.22234e-05 6.74864e-08 0 2.04938e-10 0 0)
(2.20391e-05 1.41554e-08 0 9.09184e-12 0 0)
(2.16704e-05 1.42083e-08 0 9.31572e-12 0 0)
(2.16555e-05 -1.44185e-08 0 9.60004e-12 0 0)
(2.41101e-05 6.80178e-08 0 1.91888e-10 0 0)
(2.39015e-05 1.96503e-08 0 1.61553e-11 0 0)
(2.35125e-05 1.81176e-08 0 1.39605e-11 0 0)
(2.34927e-05 -1.601e-08 0 1.09107e-11 0 0)
(2.62141e-05 7.20266e-08 0 1.97902e-10 0 0)
(2.59737e-05 1.9324e-08 0 1.43768e-11 0 0)
(2.55599e-05 1.78961e-08 0 1.25301e-11 0 0)
(2.55313e-05 -1.57944e-08 0 9.77083e-12 0 0)
(2.85247e-05 7.36532e-08 0 1.90179e-10 0 0)
(2.8247e-05 2.86695e-08 0 2.90982e-11 0 0)
(2.78162e-05 2.42712e-08 0 2.1178e-11 0 0)
(2.77548e-05 -1.95151e-08 0 1.37216e-11 0 0)
(3.10877e-05 7.70808e-08 0 1.91119e-10 0 0)
(3.07375e-05 2.84157e-08 0 2.62693e-11 0 0)
(3.02764e-05 2.37098e-08 0 1.85674e-11 0 0)
(3.0159e-05 -1.73581e-08 0 9.99051e-12 0 0)
(3.38433e-05 8.20965e-08 0 1.99148e-10 0 0)
(3.3432e-05 3.91251e-08 0 4.57877e-11 0 0)
(3.29344e-05 3.06066e-08 0 2.84433e-11 0 0)
(3.27162e-05 -2.2702e-08 0 1.5753e-11 0 0)
(3.68494e-05 9.41547e-08 0 2.40577e-10 0 0)
(3.63245e-05 4.61648e-08 0 5.86708e-11 0 0)
(3.58398e-05 3.26295e-08 0 2.97068e-11 0 0)
(3.55349e-05 -2.00211e-08 0 1.12803e-11 0 0)
(1.32177e-05 -5.00929e-09 0 1.89844e-12 0 0)
(1.33869e-05 -3.29256e-08 0 8.09816e-11 0 0)
(1.346e-05 -2.24779e-08 0 3.75377e-11 0 0)
(1.33619e-05 1.30552e-08 0 1.27556e-11 0 0)
(1.3778e-05 -6.14288e-09 0 2.73878e-12 0 0)
(1.39804e-05 -3.50056e-08 0 8.76508e-11 0 0)
(1.40155e-05 -2.31935e-08 0 3.83818e-11 0 0)
(1.39067e-05 1.32873e-08 0 1.26956e-11 0 0)
(1.44592e-05 -7.95387e-09 0 4.37535e-12 0 0)
(1.46821e-05 -3.71971e-08 0 9.4239e-11 0 0)
(1.46899e-05 -2.323e-08 0 3.67351e-11 0 0)
(1.45787e-05 1.35763e-08 0 1.26428e-11 0 0)
(1.52712e-05 -8.53299e-09 0 4.76792e-12 0 0)
(1.55108e-05 -3.84855e-08 0 9.54905e-11 0 0)
(1.54974e-05 -2.33506e-08 0 3.51835e-11 0 0)
(1.53897e-05 1.33087e-08 0 1.1509e-11 0 0)
(1.62301e-05 -1.1206e-08 0 7.73715e-12 0 0)
(1.64828e-05 -4.14908e-08 0 1.04441e-10 0 0)
(1.645e-05 -2.38665e-08 0 3.46267e-11 0 0)
(1.63474e-05 1.34275e-08 0 1.10291e-11 0 0)
(1.73466e-05 -1.20821e-08 0 8.41526e-12 0 0)
(1.7614e-05 -4.32398e-08 0 1.06147e-10 0 0)
(1.75653e-05 -2.36076e-08 0 3.17283e-11 0 0)
(1.74692e-05 1.33052e-08 0 1.01338e-11 0 0)
(1.86369e-05 -1.48446e-08 0 1.18239e-11 0 0)
(1.89207e-05 -4.59085e-08 0 1.11391e-10 0 0)
(1.88512e-05 -2.43474e-08 0 3.14461e-11 0 0)
(1.87575e-05 1.26474e-08 0 8.52759e-12 0 0)
(2.01119e-05 -1.61555e-08 0 1.29774e-11 0 0)
(2.04143e-05 -4.89311e-08 0 1.17283e-10 0 0)
(2.03263e-05 -2.3879e-08 0 2.80526e-11 0 0)
(2.02377e-05 1.28634e-08 0 8.17619e-12 0 0)
(2.17857e-05 -1.99275e-08 0 1.82278e-11 0 0)
(2.21093e-05 -5.05729e-08 0 1.15681e-10 0 0)
(2.19934e-05 -2.49416e-08 0 2.82849e-11 0 0)
(2.19044e-05 1.17341e-08 0 6.28591e-12 0 0)
(2.36602e-05 -2.15934e-08 0 1.97072e-11 0 0)
(2.40116e-05 -5.63749e-08 0 1.32358e-10 0 0)
(2.38693e-05 -2.41344e-08 0 2.44024e-11 0 0)
(2.37839e-05 1.23856e-08 0 6.44986e-12 0 0)
(2.57397e-05 -2.5993e-08 0 2.62488e-11 0 0)
(2.61255e-05 -5.45358e-08 0 1.13841e-10 0 0)
(2.59487e-05 -2.47621e-08 0 2.36298e-11 0 0)
(2.58579e-05 1.0537e-08 0 4.2938e-12 0 0)
(2.80128e-05 -2.94898e-08 0 3.10447e-11 0 0)
(2.84514e-05 -6.56516e-08 0 1.51491e-10 0 0)
(2.82381e-05 -2.42282e-08 0 2.07876e-11 0 0)
(2.81462e-05 1.1851e-08 0 4.9899e-12 0 0)
(3.0466e-05 -3.54494e-08 0 4.12478e-11 0 0)
(3.09596e-05 -6.06088e-08 0 1.18652e-10 0 0)
(3.07266e-05 -2.48363e-08 0 2.00751e-11 0 0)
(3.0626e-05 9.18441e-09 0 2.7543e-12 0 0)
(3.30494e-05 -3.78823e-08 0 4.3422e-11 0 0)
(3.36533e-05 -7.2483e-08 0 1.56115e-10 0 0)
(3.34123e-05 -2.20726e-08 0 1.45814e-11 0 0)
(3.33214e-05 1.18097e-08 0 4.18553e-12 0 0)
(3.58932e-05 -4.66307e-08 0 6.05804e-11 0 0)
(3.65978e-05 -7.03876e-08 0 1.35375e-10 0 0)
(3.63189e-05 -2.32746e-08 0 1.49153e-11 0 0)
(3.61873e-05 1.23697e-08 0 4.22827e-12 0 0)
)
;

boundaryField
{
    topWall
    {
        type            calculated;
        value           nonuniform List<symmTensor> 0();
    }
    botWall
    {
        type            calculated;
        value           nonuniform List<symmTensor> 0();
    }
    inlet
    {
        type            cyclic;
    }
    outlet
    {
        type            cyclic;
    }
    fixWall
    {
        type            empty;
    }
    procBoundary3to2
    {
        type            processor;
        value           nonuniform List<symmTensor> 8((1.29706e-05 5.47933e-08 0 2.31471e-10 0 0) (1.28415e-05 -1.03121e-09 0 8.28085e-14 0 0) (1.26412e-05 3.53674e-09 0 9.89502e-13 0 0) (1.2728e-05 -1.11539e-08 0 9.77453e-12 0 0) (1.2767e-05 -5.07707e-09 0 2.01901e-12 0 0) (1.28875e-05 -3.22846e-08 0 8.08765e-11 0 0) (1.29948e-05 -2.22486e-08 0 3.80923e-11 0 0) (1.29161e-05 1.32041e-08 0 1.34986e-11 0 0));
    }
    procBoundary3to4
    {
        type            processor;
        value           nonuniform List<symmTensor> 8((4.21605e-05 8.962e-08 0 1.90504e-10 0 0) (4.17898e-05 4.51853e-08 0 4.88567e-11 0 0) (4.13483e-05 3.56049e-08 0 3.06593e-11 0 0) (4.10835e-05 -2.35739e-08 0 1.35268e-11 0 0) (4.11865e-05 -4.75965e-08 0 5.50041e-11 0 0) (4.2061e-05 -7.83161e-08 0 1.45822e-10 0 0) (4.17815e-05 -2.19161e-08 0 1.14959e-11 0 0) (4.15631e-05 1.02323e-08 0 2.51906e-12 0 0));
    }
}


// ************************************************************************* //
