/*--------------------------------*- C++ -*----------------------------------*\
  =========                 |
  \\      /  F ield         | OpenFOAM: The Open Source CFD Toolbox
   \\    /   O peration     | Website:  https://openfoam.org
    \\  /    A nd           | Version:  dev
     \\/     M anipulation  |

   OpenFOAM for Windows 20.09 (v1)
   Built by CFD Support, www.cfdsupport.com (based on Symscape).
\*---------------------------------------------------------------------------*/
FoamFile
{
    version     2.0;
    format      ascii;
    class       surfaceScalarField;
    location    "8";
    object      alphaPhi0.water;
}
// * * * * * * * * * * * * * * * * * * * * * * * * * * * * * * * * * * * * * //

dimensions      [0 3 -1 0 0 0 0];

internalField   nonuniform List<scalar> 
217
(
3.32531e-120
2.43612e-126
4.34222e-120
3.0363e-124
4.02497e-120
-2.02035e-125
-9.31874e-126
4.45829e-120
4.30163e-123
2.34872e-129
4.9432e-123
1.64711e-128
4.57962e-123
-1.72122e-128
-8.23597e-129
5.14031e-123
4.61721e-126
1.31718e-132
4.96603e-126
1.87453e-131
4.55787e-126
-1.26501e-131
-6.25234e-132
5.09953e-126
4.0723e-129
9.46331e-136
4.18784e-129
9.27222e-135
3.93035e-129
-8.22162e-135
-4.11252e-135
4.27776e-129
3.55587e-132
5.4361e-139
3.39218e-132
5.74977e-138
3.02794e-132
-4.88965e-138
-2.46202e-138
3.12184e-132
2.80473e-135
4.99259e-142
2.57483e-135
3.30615e-141
2.12111e-135
-2.61524e-141
-1.30601e-141
2.03324e-135
2.03704e-138
3.57443e-145
1.79465e-138
1.76791e-144
1.36644e-138
-1.31709e-144
-6.94132e-145
1.18002e-138
1.30532e-141
2.72975e-148
1.1616e-141
8.56046e-148
8.25812e-142
-5.73883e-148
-3.42296e-148
6.52108e-142
7.11081e-145
1.44183e-151
6.32842e-145
3.14057e-151
4.47339e-145
-1.97857e-151
-1.276e-151
3.41177e-145
3.13979e-148
6.36713e-155
2.69107e-148
8.74252e-155
1.84342e-148
-4.73278e-155
-3.4898e-155
1.427e-148
1.06798e-151
3.02765e-158
8.06776e-152
2.84371e-158
4.97591e-152
-3.17807e-158
-3.01706e-158
4.53908e-152
5.93532e-155
1.57323e-158
4.6995e-155
9.46666e-159
4.40349e-155
-1.47121e-161
-1.2397e-161
4.56916e-155
4.56856e-158
9.46843e-162
4.64959e-158
4.23062e-162
4.69023e-158
-4.01143e-165
-2.15208e-165
4.61477e-158
1.03801e-161
1.45083e-165
1.52483e-161
4.9152e-166
1.44677e-161
-1.10298e-169
-3.01286e-170
1.1542e-161
6.52625e-166
9.41046e-166
4.35742e-166
2.70363e-166
4.43933e-120
1.03556e-125
4.82457e-120
9.74926e-124
4.38154e-120
1.47187e-125
-4.33507e-125
5.03436e-123
7.88215e-129
6.00624e-123
1.51185e-126
5.50421e-123
1.73687e-128
-4.29895e-128
4.85117e-126
3.86897e-132
6.65414e-126
2.0629e-129
6.08215e-126
1.9064e-131
-3.66397e-131
4.28096e-129
7.47931e-136
6.47785e-129
2.40381e-132
6.07502e-129
1.72537e-134
-2.71932e-134
3.17574e-132
-8.49996e-139
5.49432e-132
2.11438e-135
5.20597e-132
1.29877e-137
-1.9007e-137
2.02526e-135
-1.1024e-141
3.80519e-135
1.35155e-138
3.85584e-135
7.68577e-141
-1.13951e-140
1.16042e-138
-9.00131e-145
2.2148e-138
7.38326e-142
2.38079e-138
3.1048e-143
-5.72483e-144
6.24235e-142
-5.67446e-148
1.28023e-141
3.13814e-145
1.32719e-141
4.75468e-146
-2.52396e-147
3.17937e-145
-2.66008e-151
6.1193e-145
9.35477e-149
6.59777e-145
2.87206e-149
-9.1346e-151
1.38001e-148
-9.19223e-155
2.40608e-148
6.46001e-153
2.70349e-148
3.98069e-153
-2.61818e-154
4.90352e-152
-8.63752e-158
7.71225e-152
7.0127e-157
8.54967e-152
1.1121e-157
-1.61175e-157
4.83936e-155
-3.31979e-161
5.39242e-155
4.17309e-158
6.15517e-155
5.84886e-158
-6.22866e-161
4.04692e-158
-5.25579e-165
6.03593e-158
2.75977e-161
9.15167e-158
4.7952e-161
-1.03151e-164
7.47703e-162
-5.67475e-170
1.57594e-161
3.5674e-165
2.90379e-161
7.15926e-165
-1.77116e-169
8.93945e-167
5.64421e-166
1.32348e-165
)
;

boundaryField
{
    topWall
    {
        type            calculated;
        value           uniform 0;
    }
    botWall
    {
        type            calculated;
        value           nonuniform List<scalar> 0();
    }
    inlet
    {
        type            cyclic;
        value           nonuniform List<scalar> 
15
(
-4.25982e-120
-5.28316e-123
-5.6431e-126
-5.17508e-129
-4.27854e-132
-3.36842e-135
-2.33253e-138
-1.35849e-141
-6.81651e-145
-2.86024e-148
-9.42762e-152
-6.65485e-155
-6.06396e-158
-1.19565e-161
-2.15698e-166
)
;
    }
    outlet
    {
        type            cyclic;
        value           nonuniform List<scalar> 
15
(
4.25982e-120
5.28316e-123
5.6431e-126
5.17508e-129
4.27854e-132
3.36842e-135
2.33253e-138
1.35849e-141
6.81651e-145
2.86024e-148
9.42762e-152
6.65485e-155
6.06396e-158
1.19565e-161
2.15698e-166
)
;
    }
    fixWall
    {
        type            empty;
        value           nonuniform List<scalar> 0();
    }
    procBoundary7to6
    {
        type            processor;
        value           nonuniform List<scalar> 8(-3.66226e-123 -8.05736e-121 2.03505e-122 9.02765e-123 -1.46949e-122 -2.80806e-121 -1.18666e-122 3.74583e-122);
    }
}


// ************************************************************************* //
