/*--------------------------------*- C++ -*----------------------------------*\
  =========                 |
  \\      /  F ield         | OpenFOAM: The Open Source CFD Toolbox
   \\    /   O peration     | Website:  https://openfoam.org
    \\  /    A nd           | Version:  dev
     \\/     M anipulation  |

   OpenFOAM for Windows 20.09 (v1)
   Built by CFD Support, www.cfdsupport.com (based on Symscape).
\*---------------------------------------------------------------------------*/
FoamFile
{
    version     2.0;
    format      ascii;
    class       volSymmTensorField;
    location    "8";
    object      devReff;
}
// * * * * * * * * * * * * * * * * * * * * * * * * * * * * * * * * * * * * * //

dimensions      [0 2 -2 0 0 0 0];

internalField   nonuniform List<symmTensor> 
120
(
(-2.14198e-07 0.00203068 -0 2.69989e-07 -0 -5.57904e-08)
(-1.06042e-06 0.00203489 -0 1.03759e-06 -0 2.28318e-08)
(1.09168e-06 0.00203563 -0 -1.09208e-06 -0 3.98466e-10)
(4.8788e-07 0.00203098 -0 -4.87679e-07 -0 -2.00566e-10)
(-2.30295e-07 0.00234415 -0 2.38124e-07 -0 -7.82964e-09)
(-9.70489e-07 0.00234977 -0 9.39694e-07 -0 3.07955e-08)
(1.00301e-06 0.0023508 -0 -1.01011e-06 -0 7.09731e-09)
(4.30178e-07 0.00234483 -0 -4.27509e-07 -0 -2.66958e-09)
(-6.85066e-08 0.00269578 -0 1.15738e-07 -0 -4.72313e-08)
(-8.45665e-07 0.00270277 -0 8.26594e-07 -0 1.90706e-08)
(9.08548e-07 0.00270393 -0 -8.88859e-07 -0 -1.96884e-08)
(4.03826e-07 0.00269597 -0 -3.96062e-07 -0 -7.76435e-09)
(-5.80865e-08 0.0030876 -0 8.12239e-08 -0 -2.31374e-08)
(-7.10225e-07 0.00309447 -0 6.88134e-07 -0 2.20909e-08)
(7.65279e-07 0.00309558 -0 -7.59914e-07 -0 -5.36564e-09)
(3.21631e-07 0.00308726 -0 -3.27732e-07 -0 6.1016e-09)
(7.9538e-08 0.00352249 -0 -3.54328e-08 -0 -4.41053e-08)
(-5.80333e-07 0.003528 -0 5.59692e-07 -0 2.06413e-08)
(6.76247e-07 0.00352888 -0 -6.63557e-07 -0 -1.26899e-08)
(2.90054e-07 0.00352134 -0 -2.82016e-07 -0 -8.03777e-09)
(5.10818e-08 0.00400305 -0 -2.8e-08 -0 -2.30818e-08)
(-4.95765e-07 0.00400748 -0 4.70418e-07 -0 2.53472e-08)
(5.45573e-07 0.00400817 -0 -5.41507e-07 -0 -4.06606e-09)
(2.51483e-07 0.00400107 -0 -2.5292e-07 -0 1.43696e-09)
(1.18958e-07 0.00453133 -0 -7.90214e-08 -0 -3.99362e-08)
(-4.11236e-07 0.00453497 -0 3.90683e-07 -0 2.05531e-08)
(4.63045e-07 0.00453545 -0 -4.50643e-07 -0 -1.24019e-08)
(2.49485e-07 0.00452893 -0 -2.45042e-07 -0 -4.44313e-09)
(6.96886e-08 0.00511035 -0 -4.41437e-08 -0 -2.55449e-08)
(-3.60681e-07 0.00511325 -0 3.36602e-07 -0 2.40788e-08)
(3.44487e-07 0.00511356 -0 -3.40551e-07 -0 -3.93624e-09)
(2.34502e-07 0.00510741 -0 -2.33614e-07 -0 -8.872e-10)
(8.81247e-08 0.00574151 -0 -5.05238e-08 -0 -3.76008e-08)
(-3.044e-07 0.00574392 -0 2.83338e-07 -0 2.10617e-08)
(2.68367e-07 0.00574417 -0 -2.55944e-07 -0 -1.24232e-08)
(2.40467e-07 0.00573886 -0 -2.35952e-07 -0 -4.51486e-09)
(3.17524e-08 0.00642779 -0 -4.37546e-09 -0 -2.7377e-08)
(-2.72345e-07 0.00642994 -0 2.47922e-07 -0 2.44226e-08)
(1.76288e-07 0.00643024 -0 -1.72798e-07 -0 -3.48981e-09)
(2.24133e-07 0.00642592 -0 -2.23164e-07 -0 -9.68668e-10)
(2.24932e-08 0.00717018 -0 1.34856e-08 -0 -3.59789e-08)
(-2.22874e-07 0.00717245 -0 2.0128e-07 -0 2.15933e-08)
(1.3586e-07 0.00717289 -0 -1.249e-07 -0 -1.09597e-08)
(2.17538e-07 0.00717028 -0 -2.15393e-07 -0 -2.14568e-09)
(-2.48953e-08 0.00797098 -0 5.44405e-08 -0 -2.95452e-08)
(-1.82991e-07 0.0079737 -0 1.59179e-07 -0 2.38116e-08)
(1.01666e-07 0.00797384 -0 -9.58098e-08 -0 -5.85664e-09)
(2.05346e-07 0.00797212 -0 -2.02993e-07 -0 -2.35252e-09)
(-3.77985e-08 0.00883058 -0 7.28751e-08 -0 -3.50767e-08)
(-1.26861e-07 0.00883428 -0 1.04065e-07 -0 2.27962e-08)
(8.13711e-08 0.008834 -0 -6.87644e-08 -0 -1.26067e-08)
(1.79e-07 0.00883299 -0 -1.75875e-07 -0 -3.12412e-09)
(-4.75862e-08 0.00975054 -0 7.42523e-08 -0 -2.66661e-08)
(-7.02051e-08 0.00975545 -0 4.74834e-08 -0 2.27217e-08)
(5.92474e-08 0.00975435 -0 -5.41059e-08 -0 -5.14152e-09)
(1.29517e-07 0.00975364 -0 -1.26074e-07 -0 -3.4436e-09)
(-2.99834e-08 0.0107242 -0 5.5281e-08 -0 -2.52976e-08)
(-8.1121e-09 0.0107302 -0 -6.65427e-09 -0 1.47664e-08)
(2.8204e-08 0.0107277 -0 -2.24737e-08 -0 -5.73034e-09)
(5.5436e-08 0.0107272 -0 -5.59141e-08 -0 4.78048e-10)
(-9.82628e-07 0.0020339 -0 9.71659e-07 -0 1.09694e-08)
(-4.20696e-07 0.00203099 -0 4.17246e-07 -0 3.44987e-09)
(1.01042e-07 0.0020277 -0 -1.41359e-07 -0 4.03166e-08)
(1.05571e-06 0.00203028 -0 -1.09211e-06 -0 3.63953e-08)
(-1.05401e-06 0.00234843 -0 1.02569e-06 -0 2.83216e-08)
(-5.09458e-07 0.00234585 -0 5.3652e-07 -0 -2.7062e-08)
(2.45219e-07 0.00234338 -0 -1.8155e-07 -0 -6.36692e-08)
(1.08753e-06 0.00234565 -0 -1.12422e-06 -0 3.66941e-08)
(-9.56419e-07 0.00270035 -0 9.52187e-07 -0 4.23171e-09)
(-6.13644e-07 0.0027002 -0 6.3083e-07 -0 -1.7186e-08)
(8.04953e-08 0.00269621 -0 -1.073e-07 -0 2.68051e-08)
(1.07901e-06 0.00269714 -0 -1.10843e-06 -0 2.94119e-08)
(-9.1563e-07 0.00309212 -0 8.89223e-07 -0 2.64071e-08)
(-6.40848e-07 0.00309342 -0 6.57977e-07 -0 -1.71292e-08)
(1.626e-07 0.00308973 -0 -1.18858e-07 -0 -4.37418e-08)
(1.0809e-06 0.00309012 -0 -1.12128e-06 -0 4.0389e-08)
(-7.49775e-07 0.00352686 -0 7.43977e-07 -0 5.79821e-09)
(-6.94525e-07 0.00353044 -0 7.09928e-07 -0 -1.54023e-08)
(-4.52549e-08 0.0035257 -0 3.35029e-08 -0 1.17519e-08)
(1.01115e-06 0.00352472 -0 -1.0403e-06 -0 2.91458e-08)
(-6.14656e-07 0.00400681 -0 5.90599e-07 -0 2.40575e-08)
(-6.82748e-07 0.00401132 -0 7.00107e-07 -0 -1.73587e-08)
(-2.24464e-08 0.0040074 -0 5.98043e-08 -0 -3.73579e-08)
(9.72779e-07 0.00400643 -0 -1.0091e-06 -0 3.63225e-08)
(-4.01397e-07 0.00453498 -0 3.8945e-07 -0 1.19475e-08)
(-6.74736e-07 0.00454105 -0 6.87631e-07 -0 -1.2895e-08)
(-2.12849e-07 0.00453682 -0 2.04702e-07 -0 8.14715e-09)
(8.70759e-07 0.00453434 -0 -9.01816e-07 -0 3.10567e-08)
(-2.13541e-07 0.00511327 -0 1.92906e-07 -0 2.0635e-08)
(-6.26283e-07 0.00511922 -0 6.46443e-07 -0 -2.01598e-08)
(-2.41587e-07 0.00511621 -0 2.73694e-07 -0 -3.2107e-08)
(7.91552e-07 0.00511425 -0 -8.27611e-07 -0 3.60587e-08)
(-6.80614e-09 0.00574384 -0 -5.59425e-09 -0 1.24004e-08)
(-5.78768e-07 0.00574941 -0 5.92309e-07 -0 -1.35403e-08)
(-3.84244e-07 0.00574717 -0 3.81178e-07 -0 3.06553e-09)
(6.78109e-07 0.005745 -0 -7.1051e-07 -0 3.24012e-08)
(1.3527e-07 0.00642946 -0 -1.52215e-07 -0 1.69443e-08)
(-5.14582e-07 0.00643311 -0 5.32602e-07 -0 -1.80201e-08)
(-3.83449e-07 0.00643293 -0 4.09665e-07 -0 -2.62159e-08)
(6.03158e-07 0.00643196 -0 -6.38088e-07 -0 3.49299e-08)
(2.35255e-07 0.00717235 -0 -2.49511e-07 -0 1.42556e-08)
(-4.66782e-07 0.00717419 -0 4.82973e-07 -0 -1.61907e-08)
(-4.2993e-07 0.00717525 -0 4.33569e-07 -0 -3.63849e-09)
(5.07996e-07 0.00717408 -0 -5.40619e-07 -0 3.26222e-08)
(2.67507e-07 0.0079727 -0 -2.8585e-07 -0 1.83432e-08)
(-4.17576e-07 0.0079727 -0 4.34513e-07 -0 -1.69365e-08)
(-3.83124e-07 0.00797616 -0 4.04911e-07 -0 -2.17873e-08)
(4.34728e-07 0.00797554 -0 -4.69713e-07 -0 3.49849e-08)
(2.54134e-07 0.00883175 -0 -2.67543e-07 -0 1.34082e-08)
(-3.49578e-07 0.00883071 -0 3.6333e-07 -0 -1.37521e-08)
(-3.36907e-07 0.00883648 -0 3.41832e-07 -0 -4.92463e-09)
(3.34514e-07 0.00883505 -0 -3.65668e-07 -0 3.11543e-08)
(1.87094e-07 0.00975053 -0 -2.00796e-07 -0 1.37028e-08)
(-2.57113e-07 0.0097484 -0 2.70712e-07 -0 -1.35989e-08)
(-2.32561e-07 0.00975732 -0 2.48263e-07 -0 -1.57017e-08)
(2.33409e-07 0.0097555 -0 -2.63339e-07 -0 2.99294e-08)
(8.09377e-08 0.0107221 -0 -9.5986e-08 -0 1.50483e-08)
(-1.24962e-07 0.01072 -0 1.40438e-07 -0 -1.54767e-08)
(-1.06434e-07 0.0107326 -0 1.17731e-07 -0 -1.12964e-08)
(1.05243e-07 0.0107294 -0 -1.3308e-07 -0 2.78375e-08)
)
;

boundaryField
{
    topWall
    {
        type            calculated;
        value           nonuniform List<symmTensor> 8((-3.03585e-08 0.011223 -0 5.60313e-08 -0 -2.56728e-08) (-4.20746e-09 0.0112293 -0 -1.44635e-08 -0 1.8671e-08) (1.809e-08 0.0112258 -0 -2.24565e-09 -0 -1.58443e-08) (4.69837e-08 0.0112252 -0 -3.90095e-08 -0 -7.97426e-09) (6.90471e-08 0.0112192 -0 -7.22048e-08 -0 3.15772e-09) (-9.8247e-08 0.0112173 -0 8.70089e-08 -0 1.12381e-08) (-8.82053e-08 0.0112323 -0 8.12727e-08 -0 6.93264e-09) (8.35625e-08 0.0112287 -0 -8.97196e-08 -0 6.15702e-09));
    }
    botWall
    {
        type            calculated;
        value           nonuniform List<symmTensor> 0();
    }
    inlet
    {
        type            cyclic;
    }
    outlet
    {
        type            cyclic;
    }
    fixWall
    {
        type            empty;
    }
    procBoundary7to6
    {
        type            processor;
        value           nonuniform List<symmTensor> 8((-3.81526e-07 0.00175151 -0 3.87455e-07 -0 -5.92863e-09) (-1.13228e-06 0.00175463 -0 1.10193e-06 -0 3.03542e-08) (1.13137e-06 0.00175489 -0 -1.13877e-06 -0 7.39926e-09) (4.8962e-07 0.00175175 -0 -4.91533e-07 -0 1.91319e-09) (-1.04583e-06 0.00175362 -0 1.01054e-06 -0 3.52875e-08) (-2.93514e-07 0.00175061 -0 3.15643e-07 -0 -2.21285e-08) (2.70906e-07 0.00174729 -0 -2.09068e-07 -0 -6.18385e-08) (9.76225e-07 0.00174929 -0 -1.00613e-06 -0 2.99069e-08));
    }
}


// ************************************************************************* //
