/*--------------------------------*- C++ -*----------------------------------*\
  =========                 |
  \\      /  F ield         | OpenFOAM: The Open Source CFD Toolbox
   \\    /   O peration     | Website:  https://openfoam.org
    \\  /    A nd           | Version:  dev
     \\/     M anipulation  |

   OpenFOAM for Windows 20.09 (v1)
   Built by CFD Support, www.cfdsupport.com (based on Symscape).
\*---------------------------------------------------------------------------*/
FoamFile
{
    version     2.0;
    format      ascii;
    class       volScalarField;
    location    "8";
    object      epsilon;
}
// * * * * * * * * * * * * * * * * * * * * * * * * * * * * * * * * * * * * * //

dimensions      [0 2 -3 0 0 0 0];

internalField   nonuniform List<scalar> 
120
(
2.13964e-15
2.13969e-15
2.14006e-15
2.1399e-15
2.48789e-15
2.48799e-15
2.48835e-15
2.48817e-15
2.92661e-15
2.92673e-15
2.92709e-15
2.92688e-15
3.49047e-15
3.49061e-15
3.49095e-15
3.49072e-15
4.23263e-15
4.23277e-15
4.23308e-15
4.23285e-15
5.23788e-15
5.23801e-15
5.23828e-15
5.23806e-15
6.64805e-15
6.64816e-15
6.6484e-15
6.64821e-15
8.71454e-15
8.71463e-15
8.71483e-15
8.71468e-15
1.19161e-14
1.19162e-14
1.19163e-14
1.19162e-14
1.72528e-14
1.72529e-14
1.7253e-14
1.72529e-14
2.70841e-14
2.70841e-14
2.70842e-14
2.70842e-14
4.79642e-14
4.79643e-14
4.79644e-14
4.79644e-14
1.01999e-13
1.01999e-13
1.01999e-13
1.01999e-13
2.9965e-13
2.99651e-13
2.9965e-13
2.99651e-13
1.73748e-12
1.73748e-12
1.73748e-12
1.73748e-12
2.13983e-15
2.13972e-15
2.13968e-15
2.14004e-15
2.48813e-15
2.48801e-15
2.48797e-15
2.48834e-15
2.92688e-15
2.92676e-15
2.9267e-15
2.92709e-15
3.49075e-15
3.49064e-15
3.49057e-15
3.49097e-15
4.23292e-15
4.23281e-15
4.23273e-15
4.23314e-15
5.23817e-15
5.23805e-15
5.23797e-15
5.23838e-15
6.64834e-15
6.6482e-15
6.64812e-15
6.64855e-15
8.71482e-15
8.71465e-15
8.71458e-15
8.71501e-15
1.19164e-14
1.19162e-14
1.19161e-14
1.19166e-14
1.72531e-14
1.72528e-14
1.72528e-14
1.72532e-14
2.70843e-14
2.7084e-14
2.7084e-14
2.70844e-14
4.79645e-14
4.79641e-14
4.79642e-14
4.79645e-14
1.01999e-13
1.01998e-13
1.01998e-13
1.01999e-13
2.99651e-13
2.9965e-13
2.9965e-13
2.99651e-13
1.73748e-12
1.73748e-12
1.73748e-12
1.73748e-12
)
;

boundaryField
{
    topWall
    {
        type            epsilonWallFunction;
        value           nonuniform List<scalar> 8(1.73748e-12 1.73748e-12 1.73748e-12 1.73748e-12 1.73748e-12 1.73748e-12 1.73748e-12 1.73748e-12);
    }
    botWall
    {
        type            epsilonWallFunction;
        value           nonuniform List<scalar> 0();
    }
    inlet
    {
        type            cyclic;
    }
    outlet
    {
        type            cyclic;
    }
    fixWall
    {
        type            empty;
    }
    procBoundary7to6
    {
        type            processor;
        value           nonuniform List<scalar> 8(1.85922e-15 1.85924e-15 1.8596e-15 1.85946e-15 1.85935e-15 1.85927e-15 1.85923e-15 1.85957e-15);
    }
}


// ************************************************************************* //
