/*--------------------------------*- C++ -*----------------------------------*\
  =========                 |
  \\      /  F ield         | OpenFOAM: The Open Source CFD Toolbox
   \\    /   O peration     | Website:  https://openfoam.org
    \\  /    A nd           | Version:  dev
     \\/     M anipulation  |

   OpenFOAM for Windows 20.09 (v1)
   Built by CFD Support, www.cfdsupport.com (based on Symscape).
\*---------------------------------------------------------------------------*/
FoamFile
{
    version     2.0;
    format      ascii;
    class       volTensorField;
    location    "8";
    object      gradU;
}
// * * * * * * * * * * * * * * * * * * * * * * * * * * * * * * * * * * * * * //

dimensions      [0 0 -1 0 0 0 0];

internalField   nonuniform List<tensor> 
120
(
(0.000419781 0.000372524 0 -10.763 -0.000863314 0 0 0 0)
(0.00287062 -0.000154838 0 -10.7848 -0.0026891 0 0 0 0)
(-0.00289189 -0.000199053 0 -10.7886 0.00289506 0 0 0 0)
(-0.00129341 0.000213897 0 -10.7644 0.00129182 0 0 0 0)
(0.000589532 0.000318745 0 -12.4243 -0.000651778 0 0 0 0)
(0.0026534 -0.000120542 0 -12.4537 -0.00240858 0 0 0 0)
(-0.00263917 -0.000167645 0 -12.4591 0.00269559 0 0 0 0)
(-0.00114705 0.000167867 0 -12.4278 0.00112582 0 0 0 0)
(5.63796e-05 0.000281108 0 -14.2879 -0.000431868 0 0 0 0)
(0.00229155 -9.90484e-05 0 -14.3246 -0.00213994 0 0 0 0)
(-0.00245983 -0.000140146 0 -14.3307 0.0023033 0 0 0 0)
(-0.00109072 0.000124919 0 -14.2888 0.00102899 0 0 0 0)
(9.2615e-05 0.000232825 0 -16.3645 -0.000276557 0 0 0 0)
(0.00194064 -7.49554e-05 0 -16.4006 -0.00176502 0 0 0 0)
(-0.00204221 -0.00011483 0 -16.4064 0.00199955 0 0 0 0)
(-0.000836152 8.7611e-05 0 -16.3626 0.00088466 0 0 0 0)
(-0.000327655 0.000200384 0 -18.6694 -2.29822e-05 0 0 0 0)
(0.00159258 -6.11132e-05 0 -18.6983 -0.00142848 0 0 0 0)
(-0.00182568 -9.59851e-05 0 -18.703 0.0017248 0 0 0 0)
(-0.000789942 5.34859e-05 0 -18.6632 0.000726042 0 0 0 0)
(-0.000196533 0.000161783 0 -21.2163 1.30333e-05 0 0 0 0)
(0.00138095 -4.58257e-05 0 -21.2396 -0.00117944 0 0 0 0)
(-0.00145654 -7.89211e-05 0 -21.2432 0.00142422 0 0 0 0)
(-0.000662622 2.62615e-05 0 -21.2057 0.000674046 0 0 0 0)
(-0.000421069 0.000134553 0 -24.0162 0.000103576 0 0 0 0)
(0.00114424 -3.75935e-05 0 -24.0353 -0.000980844 0 0 0 0)
(-0.00125993 -6.50937e-05 0 -24.0378 0.00116134 0 0 0 0)
(-0.000672909 4.72671e-06 0 -24.0033 0.000637586 0 0 0 0)
(-0.000252369 0.000104234 0 -27.0849 4.92866e-05 0 0 0 0)
(0.00101961 -2.81963e-05 0 -27.1002 -0.000828186 0 0 0 0)
(-0.000923321 -5.19472e-05 0 -27.1018 0.000892028 0 0 0 0)
(-0.000623781 -9.76717e-06 0 -27.0693 0.000616727 0 0 0 0)
(-0.000333173 8.26048e-05 0 -30.4301 3.42459e-05 0 0 0 0)
(0.000862474 -2.35478e-05 0 -30.4427 -0.000695033 0 0 0 0)
(-0.000744094 -4.10118e-05 0 -30.4441 0.000645329 0 0 0 0)
(-0.000649202 -1.77491e-05 0 -30.4159 0.000613308 0 0 0 0)
(-0.000156693 5.98383e-05 0 -34.0674 -6.0954e-05 0 0 0 0)
(0.000786433 -1.80116e-05 0 -34.0787 -0.000592273 0 0 0 0)
(-0.000476411 -3.01416e-05 0 -34.0802 0.000448667 0 0 0 0)
(-0.000596518 -1.97279e-05 0 -34.0574 0.000588817 0 0 0 0)
(-0.000154951 4.30086e-05 0 -38.002 -0.000131081 0 0 0 0)
(0.000647838 -1.50541e-05 0 -38.014 -0.000476171 0 0 0 0)
(-0.000389073 -2.1327e-05 0 -38.0163 0.000301943 0 0 0 0)
(-0.000582163 -1.77557e-05 0 -38.0025 0.000565104 0 0 0 0)
(-1.23223e-05 2.6584e-05 0 -42.2462 -0.000222562 0 0 0 0)
(0.000548025 -1.07946e-05 0 -42.2606 -0.000358724 0 0 0 0)
(-0.000284936 -1.2787e-05 0 -42.2613 0.000238376 0 0 0 0)
(-0.000550401 -1.31106e-05 0 -42.2522 0.000531699 0 0 0 0)
(7.21284e-06 1.47391e-05 0 -46.8021 -0.000286072 0 0 0 0)
(0.000396591 -7.37182e-06 0 -46.8217 -0.000215362 0 0 0 0)
(-0.000249041 -6.48663e-06 0 -46.8202 0.000148818 0 0 0 0)
(-0.000482628 -8.2934e-06 0 -46.8148 0.000457791 0 0 0 0)
(5.54383e-05 5.46835e-06 0 -51.6779 -0.000267434 0 0 0 0)
(0.000246256 -3.54639e-06 0 -51.7039 -6.56184e-05 0 0 0 0)
(-0.000170631 -1.56776e-06 0 -51.698 0.000129756 0 0 0 0)
(-0.000352347 -3.18224e-06 0 -51.6943 0.00032497 0 0 0 0)
(1.24171e-05 6.92777e-07 0 -56.8384 -0.000213533 0 0 0 0)
(6.06279e-05 -7.51998e-07 0 -56.8698 5.67647e-05 0 0 0 0)
(-8.9926e-05 2.31803e-08 0 -56.8568 4.43698e-05 0 0 0 0)
(-0.000145639 -9.8228e-07 0 -56.8542 0.000149439 0 0 0 0)
(0.00263303 0.000252945 0 -10.7799 -0.00254583 0 0 0 0)
(0.00112399 -2.37269e-05 0 -10.7642 -0.00109656 0 0 0 0)
(-0.000160923 -0.000426417 0 -10.7464 0.000481439 0 0 0 0)
(-0.00270119 -3.53318e-05 0 -10.7604 0.00299053 0 0 0 0)
(0.00286819 0.0002324 0 -12.4469 -0.00264303 0 0 0 0)
(0.00127835 -2.29727e-06 0 -12.433 -0.00149349 0 0 0 0)
(-0.000818553 -0.0003835 0 -12.4195 0.000312383 0 0 0 0)
(-0.00278471 -4.50286e-05 0 -12.4319 0.00307643 0 0 0 0)
(0.00254572 0.00020929 0 -14.312 -0.00251208 0 0 0 0)
(0.00158061 2.553e-05 0 -14.3111 -0.00171724 0 0 0 0)
(-0.000142279 -0.000350251 0 -14.2896 0.00035538 0 0 0 0)
(-0.00278145 -5.14012e-05 0 -14.2948 0.00301527 0 0 0 0)
(0.0024964 0.000186629 0 -16.3884 -0.00228646 0 0 0 0)
(0.00165286 4.54938e-05 0 -16.3952 -0.00178903 0 0 0 0)
(-0.000546806 -0.000304625 0 -16.3753 0.000199059 0 0 0 0)
(-0.00275734 -5.81494e-05 0 -16.3776 0.00307843 0 0 0 0)
(0.00200227 0.000164729 0 -18.6925 -0.00195617 0 0 0 0)
(0.00179968 6.69554e-05 0 -18.7114 -0.00192212 0 0 0 0)
(0.000151068 -0.000269127 0 -18.6859 -5.76402e-05 0 0 0 0)
(-0.00260232 -5.93281e-05 0 -18.681 0.00283402 0 0 0 0)
(0.00169259 0.000142493 0 -21.2362 -0.00150133 0 0 0 0)
(0.00176328 7.7136e-05 0 -21.2601 -0.00190128 0 0 0 0)
(-3.95155e-05 -0.000225355 0 -21.239 -0.00025748 0 0 0 0)
(-0.00248161 -5.75718e-05 0 -21.234 0.00277037 0 0 0 0)
(0.00109536 0.000121806 0 -24.0355 -0.00100038 0 0 0 0)
(0.00175388 8.76863e-05 0 -24.0676 -0.00185639 0 0 0 0)
(0.000585639 -0.000191266 0 -24.0449 -0.00052087 0 0 0 0)
(-0.00222521 -5.48195e-05 0 -24.032 0.00247211 0 0 0 0)
(0.000620567 0.000100927 0 -27.1004 -0.000456519 0 0 0 0)
(0.00160623 8.51279e-05 0 -27.1319 -0.0017665 0 0 0 0)
(0.000555123 -0.000153214 0 -27.1158 -0.000810373 0 0 0 0)
(-0.00200206 -4.71643e-05 0 -27.1055 0.00228873 0 0 0 0)
(5.08973e-05 8.2086e-05 0 -30.4425 4.76858e-05 0 0 0 0)
(0.00149785 8.17887e-05 0 -30.472 -0.0016055 0 0 0 0)
(0.00102637 -0.000123679 0 -30.4599 -0.001002 0 0 0 0)
(-0.00171113 -4.04919e-05 0 -30.4485 0.00196872 0 0 0 0)
(-0.000313564 6.39467e-05 0 -34.0762 0.000448271 0 0 0 0)
(0.00131589 6.76331e-05 0 -34.0956 -0.00145915 0 0 0 0)
(0.000946668 -9.36435e-05 0 -34.0944 -0.00115508 0 0 0 0)
(-0.0015058 -2.98936e-05 0 -34.0894 0.0017835 0 0 0 0)
(-0.000585649 4.79532e-05 0 -38.0135 0.000698981 0 0 0 0)
(0.00119407 5.50661e-05 0 -38.0233 -0.00132278 0 0 0 0)
(0.00112967 -6.96348e-05 0 -38.0288 -0.0011586 0 0 0 0)
(-0.00125974 -2.22564e-05 0 -38.0226 0.00151909 0 0 0 0)
(-0.000660283 3.24819e-05 0 -42.2553 0.000806111 0 0 0 0)
(0.0010617 3.66735e-05 0 -42.2554 -0.00119634 0 0 0 0)
(0.000957541 -4.62789e-05 0 -42.2736 -0.00113075 0 0 0 0)
(-0.00105932 -1.27683e-05 0 -42.2703 0.00133745 0 0 0 0)
(-0.000637924 1.91525e-05 0 -46.8083 0.000744519 0 0 0 0)
(0.000889938 2.27851e-05 0 -46.8028 -0.000999267 0 0 0 0)
(0.000879753 -2.7405e-05 0 -46.8333 -0.000918904 0 0 0 0)
(-0.000803902 -7.1199e-06 0 -46.8258 0.00105158 0 0 0 0)
(-0.000459485 8.19758e-06 0 -51.6778 0.000568423 0 0 0 0)
(0.000645312 8.94975e-06 0 -51.6665 -0.000753424 0 0 0 0)
(0.000574678 -1.20982e-05 0 -51.7138 -0.000699506 0 0 0 0)
(-0.000539222 -2.22112e-06 0 -51.7042 0.00077716 0 0 0 0)
(-0.000174607 1.17932e-06 0 -56.8269 0.000294241 0 0 0 0)
(0.000290135 1.65297e-06 0 -56.8161 -0.000413175 0 0 0 0)
(0.000252116 -1.89527e-06 0 -56.883 -0.000341922 0 0 0 0)
(-0.000205125 8.13121e-08 0 -56.8657 0.000426432 0 0 0 0)
)
;

boundaryField
{
    topWall
    {
        type            extrapolatedCalculated;
        value           nonuniform List<tensor> 8((1.24171e-05 6.92777e-07 0 -59.482 -0.000216516 0 0 0 0) (6.06279e-05 -7.51998e-07 0 -59.5152 8.78066e-05 0 0 0 0) (-8.9926e-05 2.31803e-08 0 -59.4966 -3.60365e-05 0 0 0 0) (-0.000145639 -9.8228e-07 0 -59.4936 8.22433e-05 0 0 0 0) (-0.000174607 1.17932e-06 0 -59.4616 0.000199711 0 0 0 0) (0.000290135 1.65297e-06 0 -59.4517 -0.000200793 0 0 0 0) (0.000252116 -1.89527e-06 0 -59.5313 -0.000197001 0 0 0 0) (-0.000205125 8.13121e-08 0 -59.5122 0.000254073 0 0 0 0));
    }
    botWall
    {
        type            extrapolatedCalculated;
        value           nonuniform List<tensor> 0();
    }
    inlet
    {
        type            cyclic;
    }
    outlet
    {
        type            cyclic;
    }
    fixWall
    {
        type            empty;
    }
    procBoundary7to6
    {
        type            processor;
        value           nonuniform List<tensor> 8((0.000995333 0.000413406 0 -9.28341 -0.00104247 0 0 0 0) (0.00308099 -0.000183181 0 -9.29936 -0.00283968 0 0 0 0) (-0.00297852 -0.000233994 0 -9.30068 0.00303734 0 0 0 0) (-0.00129242 0.000258549 0 -9.28453 0.00130763 0 0 0 0) (0.00286496 0.000272206 0 -9.29443 -0.00258442 0 0 0 0) (0.000719173 -5.27517e-05 0 -9.27817 -0.000895094 0 0 0 0) (-0.000881774 -0.000451618 0 -9.2602 0.000390158 0 0 0 0) (-0.00250774 -2.2616e-05 0 -9.27123 0.0027455 0 0 0 0));
    }
}


// ************************************************************************* //
