/*--------------------------------*- C++ -*----------------------------------*\
  =========                 |
  \\      /  F ield         | OpenFOAM: The Open Source CFD Toolbox
   \\    /   O peration     | Website:  https://openfoam.org
    \\  /    A nd           | Version:  dev
     \\/     M anipulation  |

   OpenFOAM for Windows 20.09 (v1)
   Built by CFD Support, www.cfdsupport.com (based on Symscape).
\*---------------------------------------------------------------------------*/
FoamFile
{
    version     2.0;
    format      ascii;
    class       volVectorField;
    location    "8";
    object      gradp_rgh;
}
// * * * * * * * * * * * * * * * * * * * * * * * * * * * * * * * * * * * * * //

dimensions      [1 -2 -2 0 0 0 0];

internalField   nonuniform List<vector> 
120
(
(-1.25209 0.000126945 0)
(-1.25155 0.000649642 0)
(-1.24771 0.000619676 0)
(-1.24708 2.79702e-05 0)
(-1.2521 0.00025837 0)
(-1.25155 0.000598321 0)
(-1.24771 0.00080483 0)
(-1.24709 -3.23546e-05 0)
(-1.2521 0.000371211 0)
(-1.25154 0.000553486 0)
(-1.24772 0.000897107 0)
(-1.2471 -8.26689e-05 0)
(-1.2521 0.000394512 0)
(-1.25154 0.000477489 0)
(-1.24772 0.000876934 0)
(-1.24711 -8.63402e-05 0)
(-1.2521 0.000376122 0)
(-1.25153 0.000401942 0)
(-1.24773 0.000819517 0)
(-1.24712 -7.10106e-05 0)
(-1.2521 0.000339921 0)
(-1.25153 0.000345558 0)
(-1.24773 0.000746144 0)
(-1.24712 -6.15769e-05 0)
(-1.2521 0.000308385 0)
(-1.25153 0.000300394 0)
(-1.24773 0.000665307 0)
(-1.24713 -4.7295e-05 0)
(-1.25211 0.000272476 0)
(-1.25152 0.0002589 0)
(-1.24774 0.00058292 0)
(-1.24714 -4.26576e-05 0)
(-1.25211 0.000241748 0)
(-1.25152 0.000224033 0)
(-1.24774 0.000502978 0)
(-1.24714 -4.34053e-05 0)
(-1.25211 0.000208296 0)
(-1.25152 0.000195783 0)
(-1.24774 0.000427942 0)
(-1.24714 -4.47354e-05 0)
(-1.25211 0.000178031 0)
(-1.25152 0.000172209 0)
(-1.24774 0.000356512 0)
(-1.24715 -4.02354e-05 0)
(-1.25211 0.000144199 0)
(-1.25152 0.000147975 0)
(-1.24774 0.00027571 0)
(-1.24715 -4.03081e-05 0)
(-1.25211 0.000115703 0)
(-1.25151 0.000123027 0)
(-1.24775 0.000189619 0)
(-1.24715 -4.49001e-05 0)
(-1.25211 9.42815e-05 0)
(-1.25151 8.91137e-05 0)
(-1.24775 0.000113698 0)
(-1.24716 -4.67883e-05 0)
(-1.2521 4.5374e-05 0)
(-1.25151 3.49546e-05 0)
(-1.24775 4.32439e-05 0)
(-1.24716 -2.27266e-05 0)
(-1.24515 -0.000562057 0)
(-1.24785 -0.000930991 0)
(-1.25505 -0.000523295 0)
(-1.25352 0.000991288 0)
(-1.24516 -0.00041195 0)
(-1.24785 -0.000811793 0)
(-1.25503 -0.000526097 0)
(-1.25352 0.000885125 0)
(-1.24517 -0.000294962 0)
(-1.24785 -0.000771787 0)
(-1.25502 -0.000541844 0)
(-1.25351 0.000779825 0)
(-1.24517 -0.000210667 0)
(-1.24785 -0.000728117 0)
(-1.255 -0.000499942 0)
(-1.2535 0.000692544 0)
(-1.24518 -0.000143959 0)
(-1.24786 -0.000669776 0)
(-1.25499 -0.000477213 0)
(-1.25349 0.00060947 0)
(-1.24518 -9.26638e-05 0)
(-1.24786 -0.000599006 0)
(-1.25498 -0.000438767 0)
(-1.25349 0.000517624 0)
(-1.24519 -3.68929e-05 0)
(-1.24786 -0.000516956 0)
(-1.25497 -0.000397604 0)
(-1.25348 0.000433331 0)
(-1.24519 -2.80681e-06 0)
(-1.24787 -0.000442489 0)
(-1.25497 -0.000337484 0)
(-1.25348 0.000357727 0)
(-1.24519 8.99399e-06 0)
(-1.24787 -0.000373682 0)
(-1.25496 -0.00028145 0)
(-1.25347 0.000293103 0)
(-1.2452 -6.81609e-06 0)
(-1.24787 -0.000302896 0)
(-1.25496 -0.000213257 0)
(-1.25347 0.000230874 0)
(-1.2452 -2.88444e-05 0)
(-1.24787 -0.000238144 0)
(-1.25495 -0.000160748 0)
(-1.25346 0.000170439 0)
(-1.2452 -4.89516e-05 0)
(-1.24787 -0.000168328 0)
(-1.25495 -0.000100988 0)
(-1.25346 0.000109198 0)
(-1.2452 -6.87865e-05 0)
(-1.24787 -9.04136e-05 0)
(-1.25495 -4.46176e-05 0)
(-1.25346 4.42774e-05 0)
(-1.2452 -8.42596e-05 0)
(-1.24787 -1.9084e-05 0)
(-1.25495 8.18784e-06 0)
(-1.25346 -1.6323e-05 0)
(-1.2452 -4.29143e-05 0)
(-1.24787 5.08028e-06 0)
(-1.25495 8.92032e-06 0)
(-1.25346 -2.04906e-05 0)
)
;

boundaryField
{
    topWall
    {
        type            extrapolatedCalculated;
        value           nonuniform List<vector> 8((-1.2521 0 0) (-1.25151 0 0) (-1.24775 0 0) (-1.24716 0 0) (-1.2452 0 0) (-1.24787 0 0) (-1.25495 0 0) (-1.25346 0 0));
    }
    botWall
    {
        type            extrapolatedCalculated;
        value           nonuniform List<vector> 0();
    }
    inlet
    {
        type            cyclic;
    }
    outlet
    {
        type            cyclic;
    }
    fixWall
    {
        type            empty;
    }
    procBoundary7to6
    {
        type            processor;
        value           nonuniform List<vector> 8((-1.25209 6.92151e-06 0) (-1.25155 0.000742018 0) (-1.2477 0.000391844 0) (-1.24707 9.57243e-05 0) (-1.24515 -0.000732712 0) (-1.24785 -0.00107387 0) (-1.25506 -0.000509557 0) (-1.25353 0.00115107 0));
    }
}


// ************************************************************************* //
