/*--------------------------------*- C++ -*----------------------------------*\
  =========                 |
  \\      /  F ield         | OpenFOAM: The Open Source CFD Toolbox
   \\    /   O peration     | Website:  https://openfoam.org
    \\  /    A nd           | Version:  dev
     \\/     M anipulation  |

   OpenFOAM for Windows 20.09 (v1)
   Built by CFD Support, www.cfdsupport.com (based on Symscape).
\*---------------------------------------------------------------------------*/
FoamFile
{
    version     2.0;
    format      ascii;
    class       volVectorField;
    location    "8";
    object      gradp;
}
// * * * * * * * * * * * * * * * * * * * * * * * * * * * * * * * * * * * * * //

dimensions      [1 -2 -2 0 0 0 0];

internalField   nonuniform List<vector> 
120
(
(3.74791 -9.80987 0)
(-1.25155 -9.80935 0)
(-1.24771 -9.80938 0)
(-1.24708 -9.80997 0)
(3.7479 -9.80974 0)
(-1.25155 -9.8094 0)
(-1.24771 -9.8092 0)
(-1.24709 -9.81003 0)
(3.7479 -9.80963 0)
(-1.25154 -9.80945 0)
(-1.24772 -9.8091 0)
(-1.2471 -9.81008 0)
(3.7479 -9.80961 0)
(-1.25154 -9.80952 0)
(-1.24772 -9.80912 0)
(-1.24711 -9.81009 0)
(3.7479 -9.80962 0)
(-1.25153 -9.8096 0)
(-1.24773 -9.80918 0)
(-1.24712 -9.81007 0)
(3.7479 -9.80966 0)
(-1.25153 -9.80965 0)
(-1.24773 -9.80925 0)
(-1.24712 -9.81006 0)
(3.7479 -9.80969 0)
(-1.25153 -9.8097 0)
(-1.24773 -9.80933 0)
(-1.24713 -9.81005 0)
(3.74789 -9.80973 0)
(-1.25152 -9.80974 0)
(-1.24774 -9.80942 0)
(-1.24714 -9.81004 0)
(3.74789 -9.80976 0)
(-1.25152 -9.80978 0)
(-1.24774 -9.8095 0)
(-1.24714 -9.81004 0)
(3.74789 -9.80979 0)
(-1.25152 -9.8098 0)
(-1.24774 -9.80957 0)
(-1.24714 -9.81004 0)
(3.74789 -9.80982 0)
(-1.25152 -9.80983 0)
(-1.24774 -9.80964 0)
(-1.24715 -9.81004 0)
(3.74789 -9.80986 0)
(-1.25152 -9.80985 0)
(-1.24774 -9.80972 0)
(-1.24715 -9.81004 0)
(3.74789 -9.80988 0)
(-1.25151 -9.80988 0)
(-1.24775 -9.80981 0)
(-1.24715 -9.81004 0)
(3.74789 -9.80991 0)
(-1.25151 -9.80991 0)
(-1.24775 -9.80989 0)
(-1.24716 -9.81005 0)
(3.7479 -9.80995 0)
(-1.25151 -9.80997 0)
(-1.24775 -9.80996 0)
(-1.24716 -9.81002 0)
(-1.24515 -9.81056 0)
(-1.24785 -9.81093 0)
(-1.25505 -9.81052 0)
(3.74648 -9.80901 0)
(-1.24516 -9.81041 0)
(-1.24785 -9.81081 0)
(-1.25503 -9.81053 0)
(3.74648 -9.80911 0)
(-1.24517 -9.81029 0)
(-1.24785 -9.81077 0)
(-1.25502 -9.81054 0)
(3.74649 -9.80922 0)
(-1.24517 -9.81021 0)
(-1.24785 -9.81073 0)
(-1.255 -9.8105 0)
(3.7465 -9.80931 0)
(-1.24518 -9.81014 0)
(-1.24786 -9.81067 0)
(-1.25499 -9.81048 0)
(3.74651 -9.80939 0)
(-1.24518 -9.81009 0)
(-1.24786 -9.8106 0)
(-1.25498 -9.81044 0)
(3.74651 -9.80948 0)
(-1.24519 -9.81004 0)
(-1.24786 -9.81052 0)
(-1.25497 -9.8104 0)
(3.74652 -9.80957 0)
(-1.24519 -9.81 0)
(-1.24787 -9.81044 0)
(-1.25497 -9.81034 0)
(3.74652 -9.80964 0)
(-1.24519 -9.80999 0)
(-1.24787 -9.81037 0)
(-1.25496 -9.81028 0)
(3.74653 -9.80971 0)
(-1.2452 -9.81001 0)
(-1.24787 -9.8103 0)
(-1.25496 -9.81021 0)
(3.74653 -9.80977 0)
(-1.2452 -9.81003 0)
(-1.24787 -9.81024 0)
(-1.25495 -9.81016 0)
(3.74654 -9.80983 0)
(-1.2452 -9.81005 0)
(-1.24787 -9.81017 0)
(-1.25495 -9.8101 0)
(3.74654 -9.80989 0)
(-1.2452 -9.81007 0)
(-1.24787 -9.81009 0)
(-1.25495 -9.81004 0)
(3.74654 -9.80996 0)
(-1.2452 -9.81008 0)
(-1.24787 -9.81002 0)
(-1.25495 -9.80999 0)
(3.74654 -9.81002 0)
(-1.2452 -9.81004 0)
(-1.24787 -9.80999 0)
(-1.25495 -9.80999 0)
(3.74654 -9.81002 0)
)
;

boundaryField
{
    topWall
    {
        type            extrapolatedCalculated;
        value           nonuniform List<vector> 8((3.7479 -9.81 0) (-1.25151 -9.81 0) (-1.24775 -9.81 0) (-1.24716 -9.81 0) (-1.2452 -9.81 0) (-1.24787 -9.81 0) (-1.25495 -9.81 0) (3.74654 -9.81 0));
    }
    botWall
    {
        type            extrapolatedCalculated;
        value           nonuniform List<vector> 0();
    }
    inlet
    {
        type            cyclic;
    }
    outlet
    {
        type            cyclic;
    }
    fixWall
    {
        type            empty;
    }
    procBoundary7to6
    {
        type            processor;
        value           nonuniform List<vector> 8((3.74791 -9.80999 0) (-1.25155 -9.80926 0) (-1.2477 -9.80961 0) (-1.24707 -9.8099 0) (-1.24515 -9.81073 0) (-1.24785 -9.81107 0) (-1.25506 -9.81051 0) (3.74647 -9.80885 0));
    }
}


// ************************************************************************* //
