/*--------------------------------*- C++ -*----------------------------------*\
  =========                 |
  \\      /  F ield         | OpenFOAM: The Open Source CFD Toolbox
   \\    /   O peration     | Website:  https://openfoam.org
    \\  /    A nd           | Version:  dev
     \\/     M anipulation  |

   OpenFOAM for Windows 20.09 (v1)
   Built by CFD Support, www.cfdsupport.com (based on Symscape).
\*---------------------------------------------------------------------------*/
FoamFile
{
    version     2.0;
    format      ascii;
    class       volScalarField;
    location    "8";
    object      nut;
}
// * * * * * * * * * * * * * * * * * * * * * * * * * * * * * * * * * * * * * //

dimensions      [0 2 -1 0 0 0 0];

internalField   nonuniform List<scalar> 
120
(
2.07388e-18
2.07382e-18
2.07347e-18
2.07363e-18
1.78357e-18
1.78351e-18
1.78324e-18
1.78338e-18
1.5162e-18
1.51614e-18
1.51596e-18
1.51607e-18
1.27127e-18
1.27122e-18
1.2711e-18
1.27118e-18
1.04837e-18
1.04833e-18
1.04825e-18
1.04831e-18
8.47164e-19
8.47143e-19
8.47098e-19
8.47135e-19
6.67465e-19
6.67454e-19
6.6743e-19
6.67449e-19
5.09189e-19
5.09183e-19
5.09171e-19
5.0918e-19
3.72382e-19
3.72379e-19
3.72374e-19
3.72378e-19
2.57196e-19
2.57195e-19
2.57193e-19
2.57193e-19
1.63836e-19
1.63836e-19
1.63835e-19
1.63835e-19
9.25136e-20
9.25134e-20
9.25133e-20
9.25132e-20
4.3504e-20
4.3504e-20
4.3504e-20
4.35039e-20
1.48084e-20
1.48084e-20
1.48084e-20
1.48084e-20
2.5539e-21
2.5539e-21
2.5539e-21
2.5539e-21
2.07369e-18
2.07379e-18
2.07383e-18
2.07349e-18
1.7834e-18
1.78349e-18
1.78352e-18
1.78326e-18
1.51607e-18
1.51613e-18
1.51616e-18
1.51596e-18
1.27117e-18
1.27121e-18
1.27124e-18
1.27109e-18
1.04829e-18
1.04832e-18
1.04834e-18
1.04824e-18
8.47117e-19
8.47137e-19
8.4715e-19
8.47082e-19
6.67436e-19
6.6745e-19
6.67458e-19
6.67416e-19
5.09172e-19
5.09182e-19
5.09186e-19
5.09161e-19
3.72373e-19
3.7238e-19
3.72382e-19
3.72368e-19
2.57192e-19
2.57196e-19
2.57196e-19
2.57189e-19
1.63834e-19
1.63836e-19
1.63836e-19
1.63834e-19
9.25131e-20
9.25138e-20
9.25137e-20
9.2513e-20
4.35039e-20
4.3504e-20
4.3504e-20
4.35039e-20
1.48084e-20
1.48084e-20
1.48084e-20
1.48084e-20
2.5539e-21
2.5539e-21
2.5539e-21
2.5539e-21
)
;

boundaryField
{
    topWall
    {
        type            nutkWallFunction;
        Cmu             0.09;
        kappa           0.41;
        E               9.8;
        value           uniform 0;
    }
    botWall
    {
        type            nutkWallFunction;
        Cmu             0.09;
        kappa           0.41;
        E               9.8;
        value           nonuniform List<scalar> 0();
    }
    inlet
    {
        type            cyclic;
    }
    outlet
    {
        type            cyclic;
    }
    fixWall
    {
        type            empty;
    }
    procBoundary7to6
    {
        type            processor;
        value           nonuniform List<scalar> 8(2.38667e-18 2.38664e-18 2.38618e-18 2.38636e-18 2.3865e-18 2.38661e-18 2.38666e-18 2.38622e-18);
    }
}


// ************************************************************************* //
