/*--------------------------------*- C++ -*----------------------------------*\
  =========                 |
  \\      /  F ield         | OpenFOAM: The Open Source CFD Toolbox
   \\    /   O peration     | Website:  https://openfoam.org
    \\  /    A nd           | Version:  dev
     \\/     M anipulation  |

   OpenFOAM for Windows 20.09 (v1)
   Built by CFD Support, www.cfdsupport.com (based on Symscape).
\*---------------------------------------------------------------------------*/
FoamFile
{
    version     2.0;
    format      ascii;
    class       volScalarField;
    location    "8";
    object      omega;
}
// * * * * * * * * * * * * * * * * * * * * * * * * * * * * * * * * * * * * * //

dimensions      [0 0 -1 0 0 0 0];

internalField   nonuniform List<scalar> 
120
(
107.067
107.07
107.089
107.08
124.494
124.499
124.517
124.508
146.448
146.454
146.472
146.461
174.663
174.67
174.687
174.676
211.801
211.808
211.823
211.812
262.103
262.11
262.124
262.113
332.668
332.674
332.686
332.676
436.075
436.08
436.09
436.082
596.282
596.286
596.294
596.289
863.33
863.333
863.34
863.337
1355.29
1355.29
1355.29
1355.29
2400.13
2400.13
2400.14
2400.14
5104.01
5104.01
5104.01
5104.02
14994.5
14994.5
14994.5
14994.5
86943.4
86943.4
86943.4
86943.4
107.077
107.072
107.07
107.087
124.506
124.5
124.498
124.516
146.461
146.455
146.452
146.472
174.677
174.672
174.668
174.688
211.815
211.81
211.806
211.826
262.118
262.112
262.108
262.129
332.683
332.676
332.672
332.693
436.09
436.081
436.078
436.099
596.296
596.285
596.283
596.304
863.343
863.329
863.329
863.35
1355.3
1355.28
1355.28
1355.3
2400.14
2400.13
2400.13
2400.15
5104.02
5104
5104
5104.02
14994.5
14994.5
14994.5
14994.5
86943.4
86943.4
86943.4
86943.4
)
;

boundaryField
{
    topWall
    {
        beta1           0.075;
        blended         0;
        type            omegaWallFunction;
        value           nonuniform List<scalar> 8(86943.4 86943.4 86943.4 86943.4 86943.4 86943.4 86943.4 86943.4);
    }
    botWall
    {
        beta1           0.075;
        blended         0;
        type            omegaWallFunction;
        value           nonuniform List<scalar> 0();
    }
    inlet
    {
        type            cyclic;
    }
    outlet
    {
        type            cyclic;
    }
    fixWall
    {
        type            empty;
    }
    procBoundary7to6
    {
        type            processor;
        value           nonuniform List<scalar> 8(93.0353 93.0364 93.0542 93.0476 93.0421 93.0378 93.0357 93.0529);
    }
}


// ************************************************************************* //
