/*--------------------------------*- C++ -*----------------------------------*\
  =========                 |
  \\      /  F ield         | OpenFOAM: The Open Source CFD Toolbox
   \\    /   O peration     | Website:  https://openfoam.org
    \\  /    A nd           | Version:  dev
     \\/     M anipulation  |

   OpenFOAM for Windows 20.09 (v1)
   Built by CFD Support, www.cfdsupport.com (based on Symscape).
\*---------------------------------------------------------------------------*/
FoamFile
{
    version     2.0;
    format      ascii;
    class       volScalarField;
    location    "8";
    object      p;
}
// * * * * * * * * * * * * * * * * * * * * * * * * * * * * * * * * * * * * * //

dimensions      [1 -1 -2 0 0 0 0];

internalField   nonuniform List<scalar> 
120
(
-5.25602
-5.31878
-5.38118
-5.44355
-5.2642
-5.32695
-5.38935
-5.45172
-5.27237
-5.33513
-5.39753
-5.4599
-5.28055
-5.3433
-5.4057
-5.46807
-5.28872
-5.35148
-5.41387
-5.47625
-5.2969
-5.35965
-5.42205
-5.48442
-5.30507
-5.36783
-5.43022
-5.4926
-5.31324
-5.376
-5.4384
-5.50077
-5.32142
-5.38418
-5.44657
-5.50895
-5.32959
-5.39235
-5.45475
-5.51712
-5.33777
-5.40052
-5.46292
-5.5253
-5.34594
-5.4087
-5.4711
-5.53347
-5.35412
-5.41687
-5.47927
-5.54165
-5.36229
-5.42505
-5.48745
-5.54982
-5.37047
-5.43322
-5.49562
-5.558
-5.50588
-5.56806
-5.63067
-5.69357
-5.51406
-5.57624
-5.63885
-5.70174
-5.52224
-5.58442
-5.64702
-5.70992
-5.53041
-5.59259
-5.6552
-5.71809
-5.53859
-5.60077
-5.66337
-5.72627
-5.54676
-5.60894
-5.67155
-5.73444
-5.55494
-5.61712
-5.67972
-5.74262
-5.56311
-5.62529
-5.6879
-5.75079
-5.57129
-5.63347
-5.69607
-5.75896
-5.57946
-5.64164
-5.70425
-5.76714
-5.58764
-5.64982
-5.71242
-5.77531
-5.59581
-5.65799
-5.7206
-5.78349
-5.60399
-5.66617
-5.72877
-5.79166
-5.61216
-5.67434
-5.73695
-5.79984
-5.62034
-5.68252
-5.74512
-5.80801
)
;

boundaryField
{
    topWall
    {
        type            calculated;
        value           nonuniform List<scalar> 8(-5.37456 -5.43731 -5.49971 -5.56209 -5.62442 -5.68661 -5.74921 -5.8121);
    }
    botWall
    {
        type            calculated;
        value           nonuniform List<scalar> 0();
    }
    inlet
    {
        type            cyclic;
    }
    outlet
    {
        type            cyclic;
    }
    fixWall
    {
        type            empty;
    }
    procBoundary7to6
    {
        type            processor;
        value           nonuniform List<scalar> 8(-5.24785 -5.3106 -5.373 -5.43537 -5.49771 -5.55989 -5.62249 -5.68539);
    }
}


// ************************************************************************* //
