/*--------------------------------*- C++ -*----------------------------------*\
  =========                 |
  \\      /  F ield         | OpenFOAM: The Open Source CFD Toolbox
   \\    /   O peration     | Website:  https://openfoam.org
    \\  /    A nd           | Version:  dev
     \\/     M anipulation  |

   OpenFOAM for Windows 20.09 (v1)
   Built by CFD Support, www.cfdsupport.com (based on Symscape).
\*---------------------------------------------------------------------------*/
FoamFile
{
    version     2.0;
    format      ascii;
    class       volScalarField;
    location    "8";
    object      p_rgh;
}
// * * * * * * * * * * * * * * * * * * * * * * * * * * * * * * * * * * * * * //

dimensions      [1 -1 -2 0 0 0 0];

internalField   nonuniform List<scalar> 
120
(
-4.39356
-4.45632
-4.51871
-4.58109
-4.39356
-4.45631
-4.51871
-4.58109
-4.39356
-4.45631
-4.51871
-4.58109
-4.39356
-4.45631
-4.51871
-4.58109
-4.39356
-4.45631
-4.51871
-4.58109
-4.39356
-4.45631
-4.51871
-4.58109
-4.39356
-4.45631
-4.51871
-4.58109
-4.39356
-4.45631
-4.51871
-4.58109
-4.39356
-4.45631
-4.51871
-4.58109
-4.39356
-4.45631
-4.51871
-4.58109
-4.39356
-4.45631
-4.51871
-4.58109
-4.39356
-4.45631
-4.51871
-4.58109
-4.39356
-4.45631
-4.51871
-4.58109
-4.39356
-4.45631
-4.51871
-4.58109
-4.39356
-4.45631
-4.51871
-4.58109
-4.64342
-4.7056
-4.76821
-4.83111
-4.64342
-4.7056
-4.76821
-4.83111
-4.64342
-4.7056
-4.76821
-4.8311
-4.64342
-4.7056
-4.76821
-4.8311
-4.64342
-4.7056
-4.76821
-4.8311
-4.64342
-4.7056
-4.76821
-4.8311
-4.64342
-4.70561
-4.76821
-4.8311
-4.64342
-4.70561
-4.76821
-4.8311
-4.64342
-4.70561
-4.76821
-4.8311
-4.64342
-4.70561
-4.76821
-4.8311
-4.64342
-4.70561
-4.76821
-4.8311
-4.64342
-4.70561
-4.76821
-4.8311
-4.64342
-4.70561
-4.76821
-4.8311
-4.64342
-4.70561
-4.76821
-4.8311
-4.64342
-4.70561
-4.76821
-4.8311
)
;

boundaryField
{
    topWall
    {
        type            zeroGradient;
    }
    botWall
    {
        type            zeroGradient;
    }
    inlet
    {
        type            fixedJump;
        patchType       cyclic;
        jump            uniform -0.5;
        value           nonuniform List<scalar> 
15
(
-4.36233
-4.36233
-4.36233
-4.36233
-4.36233
-4.36233
-4.36233
-4.36233
-4.36233
-4.36233
-4.36233
-4.36233
-4.36233
-4.36233
-4.36233
)
;
    }
    outlet
    {
        type            fixedJump;
        patchType       cyclic;
        value           nonuniform List<scalar> 
15
(
-4.86233
-4.86233
-4.86233
-4.86233
-4.86233
-4.86233
-4.86233
-4.86233
-4.86233
-4.86233
-4.86233
-4.86233
-4.86233
-4.86233
-4.86233
)
;
    }
    fixWall
    {
        type            empty;
    }
    procBoundary7to6
    {
        type            processor;
        value           nonuniform List<scalar> 8(-4.39356 -4.45632 -4.51871 -4.58109 -4.64342 -4.7056 -4.76821 -4.83111);
    }
}


// ************************************************************************* //
