/*--------------------------------*- C++ -*----------------------------------*\
  =========                 |
  \\      /  F ield         | OpenFOAM: The Open Source CFD Toolbox
   \\    /   O peration     | Website:  https://openfoam.org
    \\  /    A nd           | Version:  dev
     \\/     M anipulation  |

   OpenFOAM for Windows 20.09 (v1)
   Built by CFD Support, www.cfdsupport.com (based on Symscape).
\*---------------------------------------------------------------------------*/
FoamFile
{
    version     2.0;
    format      ascii;
    class       surfaceScalarField;
    location    "8";
    object      phi;
}
// * * * * * * * * * * * * * * * * * * * * * * * * * * * * * * * * * * * * * //

dimensions      [0 3 -1 0 0 0 0];

internalField   nonuniform List<scalar> 
217
(
3.05608e-07
1.02197e-10
3.0572e-07
5.46547e-10
3.05602e-07
-5.89501e-10
-3.71637e-10
3.05549e-07
2.97577e-07
6.69768e-11
2.9768e-07
4.43418e-10
2.97572e-07
-4.82025e-10
-3.2477e-10
2.97525e-07
2.88331e-07
5.39576e-11
2.8842e-07
3.55376e-10
2.8832e-07
-3.82052e-10
-2.80229e-10
2.88275e-07
2.77707e-07
3.94717e-11
2.7778e-07
2.81929e-10
2.77698e-07
-2.99495e-10
-2.46268e-10
2.77664e-07
2.65578e-07
4.24805e-11
2.65637e-07
2.23003e-10
2.65563e-07
-2.25987e-10
-2.1421e-10
2.65531e-07
2.51757e-07
4.00465e-11
2.51807e-07
1.72903e-10
2.51749e-07
-1.67886e-10
-1.87433e-10
2.51722e-07
2.36095e-07
4.69537e-11
2.36135e-07
1.32683e-10
2.36085e-07
-1.18004e-10
-1.60205e-10
2.36058e-07
2.18388e-07
4.68452e-11
2.18423e-07
9.76657e-11
2.18387e-07
-8.21682e-11
-1.35005e-10
2.18362e-07
1.98466e-07
5.00903e-11
1.98494e-07
6.92118e-11
1.98466e-07
-5.38226e-11
-1.08725e-10
1.9844e-07
1.76115e-07
4.5985e-11
1.7614e-07
4.39374e-11
1.76123e-07
-3.66491e-11
-8.463e-11
1.76099e-07
1.51142e-07
4.17906e-11
1.51162e-07
2.44537e-11
1.51148e-07
-2.31318e-11
-6.11207e-11
1.51125e-07
1.23326e-07
3.16469e-11
1.23342e-07
9.14127e-12
1.23332e-07
-1.39659e-11
-3.89254e-11
1.2331e-07
9.24571e-08
2.06708e-11
9.24661e-08
1.53187e-13
9.24584e-08
-6.30691e-12
-1.95475e-11
9.2439e-08
5.83098e-08
7.67161e-12
5.83125e-08
-2.55839e-12
5.83081e-08
-1.92196e-12
-5.59578e-12
5.82941e-08
2.06626e-08
2.066e-08
2.06581e-08
2.06525e-08
3.05653e-07
3.65728e-10
3.05706e-07
8.3799e-10
3.05704e-07
2.90993e-10
-1.18284e-09
2.97639e-07
2.51625e-10
2.97698e-07
7.79256e-10
2.97669e-07
3.20493e-10
-1.05551e-09
2.88376e-07
1.50953e-10
2.88447e-07
7.07933e-10
2.88446e-07
3.21853e-10
-9.28334e-10
2.77762e-07
5.23355e-11
2.77837e-07
6.3361e-10
2.77818e-07
3.40093e-10
-8.02205e-10
2.65609e-07
-2.5702e-11
2.6569e-07
5.53174e-10
2.65701e-07
3.29279e-10
-6.82543e-10
2.51787e-07
-9.08405e-11
2.51866e-07
4.74261e-10
2.51869e-07
3.26426e-10
-5.6795e-10
2.36098e-07
-1.31102e-10
2.36177e-07
3.95744e-10
2.36205e-07
2.97544e-10
-4.64048e-10
2.18382e-07
-1.51594e-10
2.18455e-07
3.23396e-10
2.18482e-07
2.69952e-10
-3.69479e-10
1.98437e-07
-1.48376e-10
1.98504e-07
2.55593e-10
1.98552e-07
2.22729e-10
-2.8704e-10
1.76081e-07
-1.29951e-10
1.76141e-07
1.95349e-10
1.76185e-07
1.78844e-10
-2.13171e-10
1.51095e-07
-1.00191e-10
1.5115e-07
1.40181e-10
1.51202e-07
1.27338e-10
-1.49549e-10
1.23277e-07
-6.73215e-11
1.23327e-07
9.05291e-11
1.23371e-07
8.30041e-11
-9.42779e-11
9.24072e-08
-3.53817e-11
9.24497e-08
4.8032e-11
9.24908e-08
4.19081e-11
-4.96358e-11
5.82697e-08
-1.087e-11
5.8302e-08
1.57238e-11
5.83305e-08
1.35149e-11
-1.60088e-11
2.06417e-08
2.06574e-08
2.0671e-08
)
;

boundaryField
{
    topWall
    {
        type            calculated;
        value           uniform 0;
    }
    botWall
    {
        type            calculated;
        value           nonuniform List<scalar> 0();
    }
    inlet
    {
        type            cyclic;
        value           nonuniform List<scalar> 
15
(
-3.0558e-07
-2.97541e-07
-2.88318e-07
-2.77692e-07
-2.65581e-07
-2.51755e-07
-2.36102e-07
-2.18388e-07
-1.98469e-07
-1.76111e-07
-1.51138e-07
-1.23316e-07
-9.24462e-08
-5.82968e-08
-2.06549e-08
)
;
    }
    outlet
    {
        type            cyclic;
        value           nonuniform List<scalar> 
15
(
3.0558e-07
2.97541e-07
2.88318e-07
2.77692e-07
2.65581e-07
2.51755e-07
2.36102e-07
2.18388e-07
1.98469e-07
1.76111e-07
1.51138e-07
1.23316e-07
9.24462e-08
5.82968e-08
2.06549e-08
)
;
    }
    fixWall
    {
        type            empty;
        value           nonuniform List<scalar> 0();
    }
    procBoundary7to6
    {
        type            processor;
        value           nonuniform List<scalar> 8(-1.31403e-10 -6.57172e-10 7.12803e-10 4.2559e-10 -4.68419e-10 -8.89579e-10 -2.88412e-10 1.30591e-09);
    }
}


// ************************************************************************* //
