/*--------------------------------*- C++ -*----------------------------------*\
  =========                 |
  \\      /  F ield         | OpenFOAM: The Open Source CFD Toolbox
   \\    /   O peration     | Website:  https://openfoam.org
    \\  /    A nd           | Version:  dev
     \\/     M anipulation  |

   OpenFOAM for Windows 20.09 (v1)
   Built by CFD Support, www.cfdsupport.com (based on Symscape).
\*---------------------------------------------------------------------------*/
FoamFile
{
    version     2.0;
    format      ascii;
    class       volSymmTensorField;
    location    "8";
    object      R;
}
// * * * * * * * * * * * * * * * * * * * * * * * * * * * * * * * * * * * * * //

dimensions      [0 2 -2 0 0 0 0];

internalField   nonuniform List<symmTensor> 
120
(
(1.48027e-16 2.23203e-17 -0 1.48033e-16 -0 1.48029e-16)
(1.48018e-16 2.2366e-17 -0 1.48041e-16 -0 1.4803e-16)
(1.48042e-16 2.23703e-17 -0 1.48018e-16 -0 1.4803e-16)
(1.48035e-16 2.23209e-17 -0 1.48024e-16 -0 1.4803e-16)
(1.48028e-16 2.21592e-17 -0 1.48032e-16 -0 1.4803e-16)
(1.48021e-16 2.22115e-17 -0 1.48039e-16 -0 1.4803e-16)
(1.48039e-16 2.22179e-17 -0 1.4802e-16 -0 1.4803e-16)
(1.48034e-16 2.21631e-17 -0 1.48026e-16 -0 1.4803e-16)
(1.48029e-16 2.1663e-17 -0 1.48031e-16 -0 1.48029e-16)
(1.48023e-16 2.17183e-17 -0 1.48036e-16 -0 1.4803e-16)
(1.48037e-16 2.17249e-17 -0 1.48023e-16 -0 1.4803e-16)
(1.48033e-16 2.16625e-17 -0 1.48027e-16 -0 1.4803e-16)
(1.48029e-16 2.08035e-17 -0 1.4803e-16 -0 1.4803e-16)
(1.48025e-16 2.08489e-17 -0 1.48034e-16 -0 1.4803e-16)
(1.48035e-16 2.08544e-17 -0 1.48025e-16 -0 1.4803e-16)
(1.48032e-16 2.07997e-17 -0 1.48028e-16 -0 1.4803e-16)
(1.4803e-16 1.95721e-17 -0 1.4803e-16 -0 1.48029e-16)
(1.48027e-16 1.96021e-17 -0 1.48033e-16 -0 1.4803e-16)
(1.48033e-16 1.96055e-17 -0 1.48026e-16 -0 1.4803e-16)
(1.48031e-16 1.95648e-17 -0 1.48028e-16 -0 1.4803e-16)
(1.4803e-16 1.79736e-17 -0 1.4803e-16 -0 1.4803e-16)
(1.48028e-16 1.7993e-17 -0 1.48032e-16 -0 1.4803e-16)
(1.48032e-16 1.79952e-17 -0 1.48027e-16 -0 1.4803e-16)
(1.48031e-16 1.7964e-17 -0 1.48029e-16 -0 1.4803e-16)
(1.4803e-16 1.60299e-17 -0 1.48029e-16 -0 1.4803e-16)
(1.48028e-16 1.60425e-17 -0 1.48031e-16 -0 1.4803e-16)
(1.48031e-16 1.60436e-17 -0 1.48028e-16 -0 1.4803e-16)
(1.48031e-16 1.6021e-17 -0 1.48029e-16 -0 1.4803e-16)
(1.4803e-16 1.37913e-17 -0 1.4803e-16 -0 1.4803e-16)
(1.48029e-16 1.3799e-17 -0 1.48031e-16 -0 1.4803e-16)
(1.48031e-16 1.37995e-17 -0 1.48029e-16 -0 1.4803e-16)
(1.4803e-16 1.37831e-17 -0 1.48029e-16 -0 1.4803e-16)
(1.4803e-16 1.13316e-17 -0 1.4803e-16 -0 1.4803e-16)
(1.48029e-16 1.13363e-17 -0 1.4803e-16 -0 1.4803e-16)
(1.4803e-16 1.13366e-17 -0 1.48029e-16 -0 1.4803e-16)
(1.4803e-16 1.13262e-17 -0 1.48029e-16 -0 1.4803e-16)
(1.4803e-16 8.76196e-18 -0 1.4803e-16 -0 1.4803e-16)
(1.48029e-16 8.76486e-18 -0 1.4803e-16 -0 1.4803e-16)
(1.4803e-16 8.76519e-18 -0 1.4803e-16 -0 1.4803e-16)
(1.4803e-16 8.75934e-18 -0 1.48029e-16 -0 1.4803e-16)
(1.4803e-16 6.22608e-18 -0 1.4803e-16 -0 1.4803e-16)
(1.4803e-16 6.22804e-18 -0 1.4803e-16 -0 1.4803e-16)
(1.4803e-16 6.2284e-18 -0 1.4803e-16 -0 1.4803e-16)
(1.4803e-16 6.22614e-18 -0 1.4803e-16 -0 1.4803e-16)
(1.4803e-16 3.90835e-18 -0 1.4803e-16 -0 1.4803e-16)
(1.4803e-16 3.90968e-18 -0 1.4803e-16 -0 1.4803e-16)
(1.4803e-16 3.90974e-18 -0 1.4803e-16 -0 1.4803e-16)
(1.4803e-16 3.90889e-18 -0 1.4803e-16 -0 1.4803e-16)
(1.4803e-16 2.03608e-18 -0 1.4803e-16 -0 1.4803e-16)
(1.4803e-16 2.03693e-18 -0 1.4803e-16 -0 1.4803e-16)
(1.4803e-16 2.03686e-18 -0 1.4803e-16 -0 1.4803e-16)
(1.4803e-16 2.03663e-18 -0 1.4803e-16 -0 1.4803e-16)
(1.4803e-16 7.65267e-19 -0 1.4803e-16 -0 1.4803e-16)
(1.4803e-16 7.65651e-19 -0 1.4803e-16 -0 1.4803e-16)
(1.4803e-16 7.65565e-19 -0 1.4803e-16 -0 1.4803e-16)
(1.4803e-16 7.65509e-19 -0 1.4803e-16 -0 1.4803e-16)
(1.4803e-16 1.45159e-19 -0 1.4803e-16 -0 1.4803e-16)
(1.4803e-16 1.4524e-19 -0 1.4803e-16 -0 1.4803e-16)
(1.4803e-16 1.45206e-19 -0 1.4803e-16 -0 1.4803e-16)
(1.4803e-16 1.452e-19 -0 1.4803e-16 -0 1.4803e-16)
(1.48019e-16 2.23537e-17 -0 1.4804e-16 -0 1.4803e-16)
(1.48025e-16 2.23228e-17 -0 1.48034e-16 -0 1.4803e-16)
(1.48031e-16 2.2287e-17 -0 1.48028e-16 -0 1.4803e-16)
(1.48041e-16 2.23117e-17 -0 1.48018e-16 -0 1.4803e-16)
(1.4802e-16 2.21974e-17 -0 1.48039e-16 -0 1.4803e-16)
(1.48025e-16 2.21741e-17 -0 1.48035e-16 -0 1.48029e-16)
(1.48032e-16 2.21512e-17 -0 1.48028e-16 -0 1.48029e-16)
(1.4804e-16 2.21693e-17 -0 1.48019e-16 -0 1.4803e-16)
(1.48022e-16 2.16977e-17 -0 1.48037e-16 -0 1.4803e-16)
(1.48025e-16 2.16974e-17 -0 1.48035e-16 -0 1.4803e-16)
(1.4803e-16 2.16658e-17 -0 1.48029e-16 -0 1.4803e-16)
(1.48038e-16 2.16704e-17 -0 1.48021e-16 -0 1.4803e-16)
(1.48024e-16 2.08323e-17 -0 1.48036e-16 -0 1.4803e-16)
(1.48025e-16 2.08417e-17 -0 1.48034e-16 -0 1.4803e-16)
(1.48031e-16 2.08172e-17 -0 1.48029e-16 -0 1.48029e-16)
(1.48037e-16 2.08175e-17 -0 1.48022e-16 -0 1.4803e-16)
(1.48026e-16 1.95951e-17 -0 1.48034e-16 -0 1.4803e-16)
(1.48026e-16 1.96155e-17 -0 1.48034e-16 -0 1.4803e-16)
(1.48029e-16 1.95895e-17 -0 1.4803e-16 -0 1.4803e-16)
(1.48035e-16 1.95822e-17 -0 1.48024e-16 -0 1.4803e-16)
(1.48027e-16 1.79894e-17 -0 1.48032e-16 -0 1.4803e-16)
(1.48027e-16 1.80101e-17 -0 1.48033e-16 -0 1.4803e-16)
(1.4803e-16 1.79928e-17 -0 1.4803e-16 -0 1.4803e-16)
(1.48034e-16 1.7987e-17 -0 1.48025e-16 -0 1.4803e-16)
(1.48028e-16 1.60421e-17 -0 1.48031e-16 -0 1.4803e-16)
(1.48027e-16 1.60639e-17 -0 1.48032e-16 -0 1.4803e-16)
(1.48029e-16 1.60491e-17 -0 1.4803e-16 -0 1.4803e-16)
(1.48033e-16 1.60393e-17 -0 1.48027e-16 -0 1.4803e-16)
(1.48029e-16 1.37987e-17 -0 1.4803e-16 -0 1.4803e-16)
(1.48028e-16 1.38151e-17 -0 1.48031e-16 -0 1.4803e-16)
(1.48029e-16 1.38071e-17 -0 1.4803e-16 -0 1.4803e-16)
(1.48032e-16 1.38011e-17 -0 1.48028e-16 -0 1.4803e-16)
(1.4803e-16 1.13359e-17 -0 1.4803e-16 -0 1.4803e-16)
(1.48029e-16 1.13471e-17 -0 1.48031e-16 -0 1.4803e-16)
(1.48029e-16 1.13427e-17 -0 1.4803e-16 -0 1.4803e-16)
(1.48031e-16 1.13381e-17 -0 1.48028e-16 -0 1.4803e-16)
(1.4803e-16 8.7641e-18 -0 1.4803e-16 -0 1.4803e-16)
(1.48029e-16 8.76922e-18 -0 1.4803e-16 -0 1.4803e-16)
(1.48029e-16 8.76897e-18 -0 1.4803e-16 -0 1.4803e-16)
(1.48031e-16 8.76743e-18 -0 1.48029e-16 -0 1.4803e-16)
(1.4803e-16 6.22791e-18 -0 1.4803e-16 -0 1.4803e-16)
(1.48029e-16 6.22958e-18 -0 1.4803e-16 -0 1.4803e-16)
(1.48029e-16 6.2305e-18 -0 1.4803e-16 -0 1.4803e-16)
(1.4803e-16 6.22939e-18 -0 1.48029e-16 -0 1.4803e-16)
(1.4803e-16 3.90917e-18 -0 1.4803e-16 -0 1.4803e-16)
(1.4803e-16 3.9092e-18 -0 1.4803e-16 -0 1.4803e-16)
(1.4803e-16 3.91089e-18 -0 1.4803e-16 -0 1.4803e-16)
(1.4803e-16 3.91056e-18 -0 1.4803e-16 -0 1.4803e-16)
(1.4803e-16 2.03634e-18 -0 1.4803e-16 -0 1.4803e-16)
(1.4803e-16 2.03611e-18 -0 1.4803e-16 -0 1.4803e-16)
(1.4803e-16 2.03744e-18 -0 1.4803e-16 -0 1.4803e-16)
(1.4803e-16 2.0371e-18 -0 1.4803e-16 -0 1.4803e-16)
(1.4803e-16 7.65265e-19 -0 1.4803e-16 -0 1.4803e-16)
(1.4803e-16 7.65098e-19 -0 1.4803e-16 -0 1.4803e-16)
(1.4803e-16 7.65799e-19 -0 1.4803e-16 -0 1.4803e-16)
(1.4803e-16 7.65655e-19 -0 1.4803e-16 -0 1.4803e-16)
(1.4803e-16 1.4513e-19 -0 1.4803e-16 -0 1.4803e-16)
(1.4803e-16 1.45103e-19 -0 1.4803e-16 -0 1.4803e-16)
(1.4803e-16 1.45273e-19 -0 1.4803e-16 -0 1.4803e-16)
(1.4803e-16 1.45229e-19 -0 1.4803e-16 -0 1.4803e-16)
)
;

boundaryField
{
    topWall
    {
        type            kqRWallFunction;
        value           uniform (1.4803e-16 0 -0 1.4803e-16 -0 1.4803e-16);
    }
    botWall
    {
        type            kqRWallFunction;
        value           nonuniform List<symmTensor> 0();
    }
    inlet
    {
        type            cyclic;
    }
    outlet
    {
        type            cyclic;
    }
    fixWall
    {
        type            empty;
    }
    procBoundary7to6
    {
        type            processor;
        value           nonuniform List<symmTensor> 8((1.48025e-16 2.21555e-17 -0 1.48035e-16 -0 1.4803e-16) (1.48015e-16 2.21947e-17 -0 1.48044e-16 -0 1.4803e-16) (1.48044e-16 2.21937e-17 -0 1.48015e-16 -0 1.4803e-16) (1.48036e-16 2.21556e-17 -0 1.48024e-16 -0 1.4803e-16) (1.48017e-16 2.21805e-17 -0 1.48043e-16 -0 1.4803e-16) (1.48026e-16 2.21435e-17 -0 1.48034e-16 -0 1.48029e-16) (1.48033e-16 2.2102e-17 -0 1.48027e-16 -0 1.48029e-16) (1.48042e-16 2.21232e-17 -0 1.48017e-16 -0 1.4803e-16));
    }
}


// ************************************************************************* //
