/*--------------------------------*- C++ -*----------------------------------*\
  =========                 |
  \\      /  F ield         | OpenFOAM: The Open Source CFD Toolbox
   \\    /   O peration     | Website:  https://openfoam.org
    \\  /    A nd           | Version:  dev
     \\/     M anipulation  |

   OpenFOAM for Windows 20.09 (v1)
   Built by CFD Support, www.cfdsupport.com (based on Symscape).
\*---------------------------------------------------------------------------*/
FoamFile
{
    version     2.0;
    format      ascii;
    class       volVectorField;
    location    "8";
    object      U;
}
// * * * * * * * * * * * * * * * * * * * * * * * * * * * * * * * * * * * * * //

dimensions      [0 1 -1 0 0 0 0];

internalField   nonuniform List<vector> 
120
(
(0.366587 2.45182e-06 0)
(0.36686 1.19598e-05 0)
(0.366874 -1.3032e-05 0)
(0.366571 -7.94551e-06 0)
(0.356959 1.48931e-06 0)
(0.357213 9.83503e-06 0)
(0.357224 -1.05648e-05 0)
(0.356949 -6.9295e-06 0)
(0.34588 1.36553e-06 0)
(0.346104 7.9455e-06 0)
(0.346109 -8.53931e-06 0)
(0.345858 -6.06913e-06 0)
(0.333146 7.6953e-07 0)
(0.333338 6.26847e-06 0)
(0.33334 -6.72601e-06 0)
(0.333134 -5.21452e-06 0)
(0.318605 9.04598e-07 0)
(0.31877 5.00381e-06 0)
(0.318765 -5.20672e-06 0)
(0.318587 -4.5947e-06 0)
(0.30203 7.31227e-07 0)
(0.302175 3.88766e-06 0)
(0.302168 -3.85135e-06 0)
(0.302029 -4.00445e-06 0)
(0.283245 9.2632e-07 0)
(0.28337 3.03808e-06 0)
(0.283359 -2.83303e-06 0)
(0.283244 -3.47129e-06 0)
(0.262003 9.03853e-07 0)
(0.262116 2.25292e-06 0)
(0.262105 -1.91578e-06 0)
(0.262023 -2.9418e-06 0)
(0.238103 1.00846e-06 0)
(0.238203 1.65777e-06 0)
(0.23819 -1.34632e-06 0)
(0.238129 -2.44341e-06 0)
(0.211287 9.60929e-07 0)
(0.211378 1.09453e-06 0)
(0.211365 -8.40233e-07 0)
(0.21133 -1.91962e-06 0)
(0.181324 9.06875e-07 0)
(0.181405 6.7065e-07 0)
(0.181389 -5.98537e-07 0)
(0.181367 -1.46205e-06 0)
(0.14795 7.42461e-07 0)
(0.148021 3.00915e-07 0)
(0.148005 -3.36995e-07 0)
(0.147993 -9.77782e-07 0)
(0.110914 5.35938e-07 0)
(0.110971 7.27779e-08 0)
(0.110954 -2.01244e-07 0)
(0.110946 -5.75885e-07 0)
(0.0699464 2.65674e-07 0)
(0.069985 -5.80217e-08 0)
(0.069971 -8.89649e-08 0)
(0.069968 -2.14797e-07 0)
(0.0247842 9.0215e-08 0)
(0.024798 -3.65861e-08 0)
(0.0247902 1.50152e-08 0)
(0.024789 -3.4268e-08 0)
(0.366745 8.35769e-06 0)
(0.366834 1.7349e-05 0)
(0.366857 5.985e-06 0)
(0.366818 -2.52926e-05 0)
(0.35711 6.2219e-06 0)
(0.357236 1.63105e-05 0)
(0.357238 5.99217e-06 0)
(0.357154 -2.20395e-05 0)
(0.346 3.95264e-06 0)
(0.346113 1.48599e-05 0)
(0.346158 6.50564e-06 0)
(0.346098 -2.01653e-05 0)
(0.333256 2.03509e-06 0)
(0.333384 1.34484e-05 0)
(0.333422 6.58447e-06 0)
(0.333329 -1.70141e-05 0)
(0.318686 1.41867e-07 0)
(0.318787 1.18782e-05 0)
(0.318866 6.83741e-06 0)
(0.318802 -1.50345e-05 0)
(0.302102 -1.2252e-06 0)
(0.302198 1.02449e-05 0)
(0.302278 6.4884e-06 0)
(0.302194 -1.22907e-05 0)
(0.283292 -2.36036e-06 0)
(0.283354 8.70935e-06 0)
(0.283467 6.40827e-06 0)
(0.283412 -1.04173e-05 0)
(0.262043 -2.8925e-06 0)
(0.262085 7.15088e-06 0)
(0.262204 5.62029e-06 0)
(0.262141 -8.17049e-06 0)
(0.238125 -3.12122e-06 0)
(0.238134 5.76519e-06 0)
(0.238274 5.05765e-06 0)
(0.238237 -6.60271e-06 0)
(0.211305 -2.81302e-06 0)
(0.211299 4.47505e-06 0)
(0.211437 3.95029e-06 0)
(0.211393 -4.8893e-06 0)
(0.181331 -2.3741e-06 0)
(0.181308 3.33327e-06 0)
(0.18145 3.13251e-06 0)
(0.181421 -3.63021e-06 0)
(0.14795 -1.64805e-06 0)
(0.147927 2.27041e-06 0)
(0.148056 2.01929e-06 0)
(0.148022 -2.35749e-06 0)
(0.110905 -1.03058e-06 0)
(0.110882 1.33937e-06 0)
(0.110994 1.24793e-06 0)
(0.11097 -1.40113e-06 0)
(0.0699358 -4.07189e-07 0)
(0.069922 6.04961e-07 0)
(0.0700003 4.87786e-07 0)
(0.0699795 -6.04857e-07 0)
(0.0247757 -8.32128e-08 0)
(0.0247715 8.36637e-08 0)
(0.0248047 8.20838e-08 0)
(0.0247967 -1.05864e-07 0)
)
;

boundaryField
{
    topWall
    {
        type            noSlip;
    }
    botWall
    {
        type            noSlip;
    }
    inlet
    {
        type            cyclic;
    }
    outlet
    {
        type            cyclic;
    }
    fixWall
    {
        type            empty;
    }
    procBoundary7to6
    {
        type            processor;
        value           nonuniform List<vector> 8((0.374897 2.92817e-06 0) (0.375187 1.43169e-05 0) (0.375206 -1.53899e-05 0) (0.37489 -9.08253e-06 0) (0.375076 1.04649e-05 0) (0.375176 1.81381e-05 0) (0.375148 5.18977e-06 0) (0.375088 -2.70237e-05 0));
    }
}


// ************************************************************************* //
