/*--------------------------------*- C++ -*----------------------------------*\
  =========                 |
  \\      /  F ield         | OpenFOAM: The Open Source CFD Toolbox
   \\    /   O peration     | Website:  https://openfoam.org
    \\  /    A nd           | Version:  dev
     \\/     M anipulation  |

   OpenFOAM for Windows 20.09 (v1)
   Built by CFD Support, www.cfdsupport.com (based on Symscape).
\*---------------------------------------------------------------------------*/
FoamFile
{
    version     2.0;
    format      ascii;
    class       volVectorField;
    location    "8";
    object      UMean;
}
// * * * * * * * * * * * * * * * * * * * * * * * * * * * * * * * * * * * * * //

dimensions      [0 1 -1 0 0 0 0];

internalField   nonuniform List<vector> 
120
(
(0.238314 7.21152e-06 0)
(0.238429 2.95519e-06 0)
(0.238424 -8.00961e-06 0)
(0.238296 -1.49008e-06 0)
(0.234022 7.13636e-06 0)
(0.234117 2.2232e-06 0)
(0.234114 -6.8611e-06 0)
(0.234003 -1.39783e-06 0)
(0.228828 6.77631e-06 0)
(0.228919 1.67821e-06 0)
(0.228911 -6.11601e-06 0)
(0.228812 -1.4109e-06 0)
(0.222588 6.68941e-06 0)
(0.222662 1.06642e-06 0)
(0.222653 -5.18499e-06 0)
(0.222573 -1.26248e-06 0)
(0.215112 6.42525e-06 0)
(0.215182 6.58216e-07 0)
(0.215167 -4.58135e-06 0)
(0.215101 -1.06229e-06 0)
(0.206207 5.96416e-06 0)
(0.206274 3.16747e-07 0)
(0.206252 -3.85921e-06 0)
(0.206201 -9.57259e-07 0)
(0.195654 5.39623e-06 0)
(0.195724 1.47997e-07 0)
(0.19569 -3.34891e-06 0)
(0.195652 -7.73676e-07 0)
(0.183215 4.65069e-06 0)
(0.183283 -5.93486e-08 0)
(0.183243 -2.6858e-06 0)
(0.183215 -6.25881e-07 0)
(0.168629 3.84311e-06 0)
(0.168697 -1.32662e-07 0)
(0.168652 -2.20567e-06 0)
(0.168631 -4.89895e-07 0)
(0.151616 3.01294e-06 0)
(0.151678 -2.27152e-07 0)
(0.151634 -1.61996e-06 0)
(0.151619 -3.56521e-07 0)
(0.131877 2.22605e-06 0)
(0.131933 -2.26166e-07 0)
(0.13189 -1.20895e-06 0)
(0.13188 -2.60882e-07 0)
(0.109096 1.48988e-06 0)
(0.109143 -2.23198e-07 0)
(0.109105 -7.53706e-07 0)
(0.109098 -1.67615e-07 0)
(0.0829413 8.73752e-07 0)
(0.0829789 -1.78977e-07 0)
(0.0829476 -4.44576e-07 0)
(0.0829423 -9.47671e-08 0)
(0.0530717 3.71447e-07 0)
(0.0530965 -1.2571e-07 0)
(0.0530748 -1.79394e-07 0)
(0.053071 -2.68469e-08 0)
(0.0191366 6.71348e-08 0)
(0.0191456 -3.36846e-08 0)
(0.0191359 -2.11162e-08 0)
(0.0191342 -2.42622e-09 0)
(0.238408 5.44589e-06 0)
(0.238443 4.02096e-06 0)
(0.238443 -2.21901e-06 0)
(0.238426 -8.04447e-06 0)
(0.234105 4.29482e-06 0)
(0.234144 3.90323e-06 0)
(0.234134 -2.03416e-06 0)
(0.234115 -6.69966e-06 0)
(0.228891 2.97936e-06 0)
(0.228927 3.42501e-06 0)
(0.228935 -1.97102e-06 0)
(0.228913 -6.06547e-06 0)
(0.222641 2.33653e-06 0)
(0.222679 3.21575e-06 0)
(0.222676 -1.71265e-06 0)
(0.222649 -4.93063e-06 0)
(0.215143 1.48966e-06 0)
(0.215177 2.81041e-06 0)
(0.215193 -1.57019e-06 0)
(0.215159 -4.24267e-06 0)
(0.206232 9.65107e-07 0)
(0.206267 2.47391e-06 0)
(0.206275 -1.39104e-06 0)
(0.206227 -3.47239e-06 0)
(0.195667 4.6557e-07 0)
(0.195692 2.04071e-06 0)
(0.195715 -1.11882e-06 0)
(0.195662 -2.88925e-06 0)
(0.183225 2.23745e-07 0)
(0.183248 1.71807e-06 0)
(0.183267 -8.54044e-07 0)
(0.183205 -2.27388e-06 0)
(0.168632 -3.24229e-08 0)
(0.168647 1.31016e-06 0)
(0.168675 -5.61398e-07 0)
(0.168615 -1.81787e-06 0)
(0.151618 -9.4868e-08 0)
(0.15163 1.01951e-06 0)
(0.151655 -3.34031e-07 0)
(0.151597 -1.3282e-06 0)
(0.131876 -1.7107e-07 0)
(0.13188 7.01607e-07 0)
(0.131909 -1.3435e-07 0)
(0.131859 -9.76932e-07 0)
(0.109093 -1.2752e-07 0)
(0.109095 4.75832e-07 0)
(0.109119 -2.55713e-08 0)
(0.109078 -6.30597e-07 0)
(0.0829363 -9.26422e-08 0)
(0.0829351 2.66627e-07 0)
(0.0829583 4.08873e-08 0)
(0.0829279 -3.92738e-07 0)
(0.0530667 -1.7942e-08 0)
(0.053066 1.08462e-07 0)
(0.0530826 2.85634e-08 0)
(0.0530626 -1.46334e-07 0)
(0.0191328 -5.97163e-09 0)
(0.0191328 2.90986e-08 0)
(0.01914 2.2302e-08 0)
(0.0191329 -6.00891e-08 0)
)
;

boundaryField
{
    topWall
    {
        type            calculated;
        value           uniform (0 0 0);
    }
    botWall
    {
        type            calculated;
        value           nonuniform List<vector> 0();
    }
    inlet
    {
        type            cyclic;
    }
    outlet
    {
        type            cyclic;
    }
    fixWall
    {
        type            empty;
    }
    procBoundary7to6
    {
        type            processor;
        value           nonuniform List<vector> 8((0.241855 7.3634e-06 0) (0.241973 3.70843e-06 0) (0.241971 -9.14281e-06 0) (0.241835 -1.62823e-06 0) (0.241968 6.81553e-06 0) (0.242006 4.29617e-06 0) (0.241987 -2.36437e-06 0) (0.241971 -9.21602e-06 0));
    }
}


// ************************************************************************* //
