/*--------------------------------*- C++ -*----------------------------------*\
  =========                 |
  \\      /  F ield         | OpenFOAM: The Open Source CFD Toolbox
   \\    /   O peration     | Website:  https://openfoam.org
    \\  /    A nd           | Version:  dev
     \\/     M anipulation  |

   OpenFOAM for Windows 20.09 (v1)
   Built by CFD Support, www.cfdsupport.com (based on Symscape).
\*---------------------------------------------------------------------------*/
FoamFile
{
    version     2.0;
    format      ascii;
    class       volSymmTensorField;
    location    "8";
    object      UPrime2Mean;
}
// * * * * * * * * * * * * * * * * * * * * * * * * * * * * * * * * * * * * * //

dimensions      [0 2 -2 0 0 0 0];

internalField   nonuniform List<symmTensor> 
120
(
(0.00421417 -5.6826e-08 0 4.78357e-12 0 0)
(0.0042225 2.71478e-07 0 3.27863e-11 0 0)
(0.00422301 -3.54935e-07 0 5.02254e-11 0 0)
(0.00421256 -1.44179e-07 0 1.63654e-11 0 0)
(0.00389359 -6.74415e-08 0 5.60261e-12 0 0)
(0.00390156 2.29868e-07 0 2.89675e-11 0 0)
(0.00390198 -3.04839e-07 0 4.35816e-11 0 0)
(0.00389209 -1.15621e-07 0 1.29991e-11 0 0)
(0.0035501 -4.53646e-08 0 5.92743e-12 0 0)
(0.00355664 1.8373e-07 0 2.42686e-11 0 0)
(0.00355674 -2.46889e-07 0 3.59776e-11 0 0)
(0.00354796 -1.03769e-07 0 1.29438e-11 0 0)
(0.00318592 -5.31053e-08 0 6.59595e-12 0 0)
(0.00319159 1.46954e-07 0 1.88575e-11 0 0)
(0.00319167 -2.10154e-07 0 3.14118e-11 0 0)
(0.00318404 -8.68937e-08 0 1.0807e-11 0 0)
(0.00280776 -3.29956e-08 0 6.80391e-12 0 0)
(0.00281229 1.14705e-07 0 1.52751e-11 0 0)
(0.0028121 -1.63002e-07 0 2.4897e-11 0 0)
(0.00280544 -7.25088e-08 0 9.72601e-12 0 0)
(0.00242054 -2.76325e-08 0 6.01976e-12 0 0)
(0.00242429 9.23084e-08 0 1.25682e-11 0 0)
(0.00242417 -1.3111e-07 0 2.03735e-11 0 0)
(0.0024187 -5.98817e-08 0 7.83506e-12 0 0)
(0.00203295 -1.11577e-08 0 5.38723e-12 0 0)
(0.00203612 6.98396e-08 0 9.47455e-12 0 0)
(0.00203576 -9.58982e-08 0 1.52062e-11 0 0)
(0.00203121 -4.88309e-08 0 6.19931e-12 0 0)
(0.00165305 -5.80728e-09 0 3.97777e-12 0 0)
(0.00165573 5.27939e-08 0 7.01666e-12 0 0)
(0.00165548 -7.22563e-08 0 1.14947e-11 0 0)
(0.00165215 -3.97235e-08 0 4.32554e-12 0 0)
(0.00129097 2.20249e-09 0 2.88321e-12 0 0)
(0.00129336 3.75964e-08 0 4.65934e-12 0 0)
(0.0012928 -4.95423e-08 0 7.68289e-12 0 0)
(0.00129025 -3.05885e-08 0 2.86103e-12 0 0)
(0.000956201 3.32645e-09 0 1.71767e-12 0 0)
(0.000958241 2.56008e-08 0 2.94022e-12 0 0)
(0.000957763 -3.32307e-08 0 4.86977e-12 0 0)
(0.000955995 -2.26796e-08 0 1.63291e-12 0 0)
(0.000658813 4.06214e-09 0 9.30421e-13 0 0)
(0.000660516 1.56936e-08 0 1.62084e-12 0 0)
(0.000660035 -1.95549e-08 0 2.55144e-12 0 0)
(0.000658737 -1.51226e-08 0 8.53033e-13 0 0)
(0.00040794 2.70352e-09 0 3.95704e-13 0 0)
(0.000409158 8.13362e-09 0 7.85987e-13 0 0)
(0.000408821 -1.02577e-08 0 1.15592e-12 0 0)
(0.000408001 -8.75192e-09 0 3.70384e-13 0 0)
(0.000211877 1.44328e-09 0 1.27991e-13 0 0)
(0.000212616 3.39533e-09 0 2.86101e-13 0 0)
(0.000212389 -4.06015e-09 0 3.69073e-13 0 0)
(0.000211924 -4.10221e-09 0 1.30619e-13 0 0)
(7.72369e-05 4.96949e-10 0 2.76491e-14 0 0)
(7.75447e-05 7.98394e-10 0 5.14318e-14 0 0)
(7.74516e-05 -1.08539e-09 0 7.69146e-14 0 0)
(7.72613e-05 -1.33998e-09 0 3.85413e-14 0 0)
(8.66618e-06 2.95222e-11 0 1.09787e-15 0 0)
(8.70812e-06 4.81232e-11 0 3.59475e-15 0 0)
(8.69458e-06 -2.66963e-11 0 1.48393e-15 0 0)
(8.66398e-06 -6.57538e-11 0 5.51366e-16 0 0)
(0.00421945 2.53816e-07 0 2.32782e-11 0 0)
(0.00422297 2.29132e-07 0 3.2764e-11 0 0)
(0.00422363 2.08714e-07 0 1.4716e-11 0 0)
(0.00422296 -3.98651e-07 0 4.64905e-11 0 0)
(0.00389861 2.03019e-07 0 1.73872e-11 0 0)
(0.00390398 2.06263e-07 0 2.87681e-11 0 0)
(0.00390355 1.96686e-07 0 1.40039e-11 0 0)
(0.00390077 -3.29428e-07 0 3.60778e-11 0 0)
(0.00355409 1.49445e-07 0 1.16989e-11 0 0)
(0.00355834 1.72971e-07 0 2.46361e-11 0 0)
(0.00355951 1.98737e-07 0 1.46941e-11 0 0)
(0.00355834 -2.89865e-07 0 3.06111e-11 0 0)
(0.00318927 9.68359e-08 0 7.5026e-12 0 0)
(0.00319416 1.36446e-07 0 2.01795e-11 0 0)
(0.00319482 1.77047e-07 0 1.32741e-11 0 0)
(0.00319254 -2.21978e-07 0 2.18722e-11 0 0)
(0.00281038 6.08947e-08 0 5.70354e-12 0 0)
(0.00281324 1.08169e-07 0 1.63554e-11 0 0)
(0.00281499 1.70008e-07 0 1.3629e-11 0 0)
(0.00281493 -1.76178e-07 0 1.70885e-11 0 0)
(0.00242284 2.7202e-08 0 3.94689e-12 0 0)
(0.00242541 8.22559e-08 0 1.23998e-11 0 0)
(0.00242679 1.42408e-07 0 1.16004e-11 0 0)
(0.00242636 -1.31912e-07 0 1.14298e-11 0 0)
(0.00203468 4.73485e-09 0 3.14832e-12 0 0)
(0.0020357 6.2166e-08 0 9.37462e-12 0 0)
(0.00203778 1.24694e-07 0 1.0559e-11 0 0)
(0.0020385 -1.00423e-07 0 8.29284e-12 0 0)
(0.00165451 -8.82105e-09 0 2.58547e-12 0 0)
(0.00165512 4.45222e-08 0 6.28342e-12 0 0)
(0.001657 9.53876e-08 0 7.77188e-12 0 0)
(0.00165724 -6.95675e-08 0 5.09034e-12 0 0)
(0.00129193 -1.50765e-08 0 2.04329e-12 0 0)
(0.00129166 3.13551e-08 0 4.2698e-12 0 0)
(0.00129385 7.50725e-08 0 6.03785e-12 0 0)
(0.00129447 -4.87869e-08 0 3.3406e-12 0 0)
(0.000956933 -1.49674e-08 0 1.43446e-12 0 0)
(0.000956485 2.06098e-08 0 2.50565e-12 0 0)
(0.000958367 5.03429e-08 0 3.64646e-12 0 0)
(0.000958644 -3.03373e-08 0 1.85073e-12 0 0)
(0.000659215 -1.23208e-08 0 9.02286e-13 0 0)
(0.000658585 1.26562e-08 0 1.43123e-12 0 0)
(0.00066031 3.35282e-08 0 2.27354e-12 0 0)
(0.000660623 -1.82643e-08 0 1.02317e-12 0 0)
(0.000408151 -7.61004e-09 0 4.42639e-13 0 0)
(0.000407678 6.68427e-09 0 6.3171e-13 0 0)
(0.000408939 1.7631e-08 0 9.97543e-13 0 0)
(0.000409052 -8.87219e-09 0 4.34699e-13 0 0)
(0.000211935 -4.01743e-09 0 1.8616e-13 0 0)
(0.000211606 2.65382e-09 0 2.25314e-13 0 0)
(0.000212436 8.20668e-09 0 4.06251e-13 0 0)
(0.000212515 -3.39595e-09 0 1.5377e-13 0 0)
(7.72154e-05 -1.29449e-09 0 3.9245e-14 0 0)
(7.70695e-05 6.45353e-10 0 4.79253e-14 0 0)
(7.74298e-05 2.26789e-09 0 9.23327e-14 0 0)
(7.74646e-05 -5.75411e-10 0 4.36492e-14 0 0)
(8.64522e-06 -9.44289e-11 0 3.15601e-15 0 0)
(8.6204e-06 5.21173e-12 0 8.36439e-16 0 0)
(8.67488e-06 1.44614e-10 0 3.21381e-15 0 0)
(8.68931e-06 -2.4579e-11 0 1.24288e-15 0 0)
)
;

boundaryField
{
    topWall
    {
        type            calculated;
        value           uniform (0 0 0 0 0 0);
    }
    botWall
    {
        type            calculated;
        value           nonuniform List<symmTensor> 0();
    }
    inlet
    {
        type            cyclic;
    }
    outlet
    {
        type            cyclic;
    }
    fixWall
    {
        type            empty;
    }
    procBoundary7to6
    {
        type            processor;
        value           nonuniform List<symmTensor> 8((0.004508 -6.55504e-08 0 4.7305e-12 0 0) (0.00451753 3.22242e-07 0 3.99945e-11 0 0) (0.00451827 -4.12348e-07 0 5.85944e-11 0 0) (0.00450694 -1.68884e-07 0 1.80699e-11 0 0) (0.00451367 3.03211e-07 0 3.03117e-11 0 0) (0.00451732 2.49987e-07 0 3.51811e-11 0 0) (0.00451637 2.08254e-07 0 1.35399e-11 0 0) (0.00451498 -4.37975e-07 0 5.05547e-11 0 0));
    }
}


// ************************************************************************* //
