/*--------------------------------*- C++ -*----------------------------------*\
  =========                 |
  \\      /  F ield         | OpenFOAM: The Open Source CFD Toolbox
   \\    /   O peration     | Website:  https://openfoam.org
    \\  /    A nd           | Version:  dev
     \\/     M anipulation  |

   OpenFOAM for Windows 20.09 (v1)
   Built by CFD Support, www.cfdsupport.com (based on Symscape).
\*---------------------------------------------------------------------------*/
FoamFile
{
    version     2.0;
    format      ascii;
    class       surfaceScalarField;
    location    "6";
    object      alphaPhi0.water;
}
// * * * * * * * * * * * * * * * * * * * * * * * * * * * * * * * * * * * * * //

dimensions      [0 3 -1 0 0 0 0];

internalField   nonuniform List<scalar> 
217
(
7.02104e-121
5.6525e-124
8.18976e-121
2.43353e-126
7.19583e-121
-7.35706e-126
-8.0364e-127
4.18709e-121
7.59364e-124
5.83323e-127
8.50901e-124
2.1107e-129
7.30522e-124
-6.8341e-129
-7.88415e-130
3.84277e-124
7.98911e-127
7.29924e-130
8.28277e-127
2.21994e-132
7.31508e-127
-6.09173e-132
-7.41405e-133
3.68496e-127
9.44854e-130
8.12979e-133
8.86574e-130
2.05872e-135
6.8398e-130
-5.27421e-135
-6.6851e-136
3.42371e-130
9.95479e-133
8.34512e-136
8.57615e-133
1.71812e-138
6.24644e-133
-4.40489e-138
-5.6865e-139
3.11668e-133
9.60277e-136
8.29052e-139
7.75853e-136
1.37177e-141
5.39139e-136
-3.43963e-141
-4.31535e-142
2.65885e-136
9.00567e-139
7.19427e-142
6.92626e-139
9.92902e-145
4.141e-139
-2.40648e-144
-2.93871e-145
2.08922e-139
7.5237e-142
5.24606e-145
5.51507e-142
6.07905e-148
2.95695e-142
-1.39463e-147
-1.65848e-148
1.45079e-142
5.36993e-145
3.06299e-148
3.7297e-145
3.05409e-151
1.79598e-145
-6.36367e-151
-7.12361e-152
8.47688e-146
3.09848e-148
1.34703e-151
2.02294e-148
1.15868e-154
8.6763e-149
-2.08499e-154
-2.08816e-155
3.85691e-149
1.35344e-151
9.25266e-155
8.20608e-152
4.89622e-156
3.05143e-152
-5.44082e-158
-4.47916e-159
1.2282e-152
7.59773e-155
8.75782e-158
4.21399e-155
1.39199e-158
1.85008e-155
-7.65629e-162
-5.59315e-163
8.30502e-156
3.07711e-158
1.83564e-161
1.53577e-158
3.07611e-162
5.32506e-159
-4.73328e-166
-1.78218e-167
1.82511e-159
4.948e-162
1.19104e-165
1.89177e-162
1.74416e-166
4.37301e-163
-1.80806e-171
2.75348e-169
1.02292e-163
1.30524e-166
2.63323e-167
2.24112e-168
3.13143e-169
1.17761e-120
9.54369e-124
8.08339e-121
2.04207e-126
4.81554e-121
-1.88831e-127
-1.61795e-126
1.33706e-123
9.62449e-127
1.05602e-123
2.19298e-129
6.3685e-124
-2.35239e-130
-1.40718e-129
1.32966e-126
7.53682e-130
1.05213e-126
1.60452e-132
6.52027e-127
-1.44572e-133
-1.0143e-132
1.09519e-129
4.66224e-133
8.72606e-130
9.81804e-136
5.54657e-130
-1.39716e-136
-6.12601e-136
7.77454e-133
1.97795e-136
6.12336e-133
5.1541e-139
3.85592e-133
-5.79041e-140
-3.1274e-139
4.63489e-136
4.7551e-140
3.64739e-136
2.29758e-142
2.29476e-136
-3.4773e-143
-1.37688e-142
2.52597e-139
1.94565e-145
1.92199e-139
8.91874e-146
1.1476e-139
-6.54116e-147
-5.21558e-146
1.09297e-142
4.95222e-148
8.55402e-143
2.99313e-149
5.20462e-143
-4.29317e-151
-1.67184e-149
5.23432e-146
3.81187e-152
3.40241e-146
9.4364e-153
1.87714e-146
1.81746e-153
-4.39078e-153
2.01901e-149
8.24033e-156
1.12591e-149
2.16395e-156
5.93455e-150
9.42936e-157
-8.65009e-157
5.50243e-153
2.08897e-156
2.77286e-153
5.23395e-157
1.41842e-153
4.96832e-157
-2.31427e-160
4.74852e-156
5.96715e-160
2.42544e-156
9.76394e-161
1.2853e-156
2.66745e-160
-2.78878e-164
8.48112e-160
5.94798e-164
3.54353e-160
-1.74065e-169
2.17322e-160
3.95379e-164
-1.22111e-168
3.6376e-164
1.77093e-168
9.98553e-165
-3.07617e-174
1.26154e-164
1.27313e-168
-9.78641e-174
1.63227e-169
2.49458e-170
1.62069e-169
)
;

boundaryField
{
    topWall
    {
        type            calculated;
        value           uniform 0;
    }
    botWall
    {
        type            calculated;
        value           nonuniform List<scalar> 0();
    }
    inlet
    {
        type            cyclic;
        value           nonuniform List<scalar> 
15
(
-3.0547e-121
-3.81775e-124
-3.88584e-127
-3.46214e-130
-2.49493e-133
-1.47478e-136
-7.65241e-140
-3.31831e-143
-1.21877e-146
-3.60997e-150
-8.10622e-154
-5.58609e-157
-7.41557e-161
-3.24886e-165
-2.29707e-170
)
;
    }
    outlet
    {
        type            cyclic;
        value           nonuniform List<scalar> 
15
(
3.0547e-121
3.81775e-124
3.88584e-127
3.46214e-130
2.49493e-133
1.47478e-136
7.65241e-140
3.31831e-143
1.21877e-146
3.60997e-150
8.10622e-154
5.58609e-157
7.41557e-161
3.24886e-165
2.29707e-170
)
;
    }
    fixWall
    {
        type            empty;
        value           nonuniform List<scalar> 0();
    }
    procBoundary7to6
    {
        type            processor;
        value           nonuniform List<scalar> 8(-4.94675e-121 -3.1479e-123 7.70665e-123 7.39144e-124 -1.5231e-120 -2.23669e-123 1.77398e-124 1.5228e-123);
    }
}


// ************************************************************************* //
