/*--------------------------------*- C++ -*----------------------------------*\
  =========                 |
  \\      /  F ield         | OpenFOAM: The Open Source CFD Toolbox
   \\    /   O peration     | Website:  https://openfoam.org
    \\  /    A nd           | Version:  dev
     \\/     M anipulation  |

   OpenFOAM for Windows 20.09 (v1)
   Built by CFD Support, www.cfdsupport.com (based on Symscape).
\*---------------------------------------------------------------------------*/
FoamFile
{
    version     2.0;
    format      ascii;
    class       volSymmTensorField;
    location    "6";
    object      devReff;
}
// * * * * * * * * * * * * * * * * * * * * * * * * * * * * * * * * * * * * * //

dimensions      [0 2 -2 0 0 0 0];

internalField   nonuniform List<symmTensor> 
120
(
(2.20806e-07 0.00124869 -0 -2.45984e-07 -0 2.51773e-08)
(-4.52177e-07 0.00125041 -0 4.29694e-07 -0 2.24828e-08)
(7.22024e-07 0.00125092 -0 -7.47097e-07 -0 2.50732e-08)
(7.01455e-09 0.00124914 -0 -4.92352e-08 -0 4.22206e-08)
(1.32222e-07 0.00148943 -0 -1.49363e-07 -0 1.7141e-08)
(-4.15207e-07 0.0014911 -0 3.95483e-07 -0 1.97238e-08)
(6.77198e-07 0.00149186 -0 -6.95638e-07 -0 1.84407e-08)
(-1.1987e-08 0.00149002 -0 2.79545e-08 -0 -1.59675e-08)
(8.21751e-08 0.00176728 -0 -5.17147e-08 -0 -3.04603e-08)
(-4.2799e-07 0.00176854 -0 4.60488e-07 -0 -3.24988e-08)
(6.67152e-07 0.00176958 -0 -6.69672e-07 -0 2.51979e-09)
(8.76556e-09 0.00176774 -0 4.0784e-08 -0 -4.95495e-08)
(-2.58832e-08 0.00208538 -0 2.18608e-08 -0 4.02239e-09)
(-4.0653e-07 0.00208632 -0 4.53182e-07 -0 -4.66526e-08)
(6.52222e-07 0.00208768 -0 -6.69141e-07 -0 1.69192e-08)
(1.13061e-07 0.00208587 -0 -1.2491e-07 -0 1.18488e-08)
(-7.00324e-08 0.00244815 -0 7.40641e-08 -0 -4.03175e-09)
(-3.34535e-07 0.00244826 -0 3.48912e-07 -0 -1.43766e-08)
(6.67363e-07 0.00245008 -0 -6.82159e-07 -0 1.47962e-08)
(1.57534e-07 0.0024483 -0 -1.56362e-07 -0 -1.17262e-09)
(-2.1455e-07 0.0028594 -0 2.07066e-07 -0 7.48475e-09)
(-3.02147e-07 0.00285802 -0 3.07768e-07 -0 -5.62052e-09)
(6.6053e-07 0.00286021 -0 -6.81801e-07 -0 2.12708e-08)
(1.90993e-07 0.00285843 -0 -1.89832e-07 -0 -1.16116e-09)
(-3.29486e-07 0.00332171 -0 3.31351e-07 -0 -1.8651e-09)
(-3.04594e-07 0.00331924 -0 3.15077e-07 -0 -1.04827e-08)
(6.85716e-07 0.00332206 -0 -7.02781e-07 -0 1.70646e-08)
(2.3189e-07 0.00332018 -0 -2.28849e-07 -0 -3.04098e-09)
(-4.62274e-07 0.00383768 -0 4.58242e-07 -0 4.03173e-09)
(-2.94618e-07 0.00383557 -0 3.03449e-07 -0 -8.83114e-09)
(6.92612e-07 0.00383837 -0 -7.12483e-07 -0 1.98712e-08)
(2.36851e-07 0.00383635 -0 -2.34818e-07 -0 -2.03325e-09)
(-5.3956e-07 0.00441114 -0 5.35424e-07 -0 4.13612e-09)
(-2.81056e-07 0.00441033 -0 2.90298e-07 -0 -9.24194e-09)
(7.1245e-07 0.00441245 -0 -7.28626e-07 -0 1.6176e-08)
(2.47738e-07 0.00441023 -0 -2.4332e-07 -0 -4.41774e-09)
(-5.69817e-07 0.00504567 -0 5.68026e-07 -0 1.79163e-09)
(-2.5312e-07 0.00504661 -0 2.63632e-07 -0 -1.05111e-08)
(6.90443e-07 0.00504719 -0 -7.10288e-07 -0 1.98448e-08)
(2.34414e-07 0.00504464 -0 -2.33232e-07 -0 -1.18215e-09)
(-5.50454e-07 0.00574406 -0 5.46912e-07 -0 3.54121e-09)
(-2.30847e-07 0.00574643 -0 2.40309e-07 -0 -9.46242e-09)
(6.48823e-07 0.00574556 -0 -6.65868e-07 -0 1.70447e-08)
(2.22515e-07 0.00574253 -0 -2.17852e-07 -0 -4.66282e-09)
(-4.83696e-07 0.00650806 -0 4.8281e-07 -0 8.86034e-10)
(-2.03274e-07 0.00651229 -0 2.13552e-07 -0 -1.02773e-08)
(5.60683e-07 0.00650972 -0 -5.8007e-07 -0 1.93878e-08)
(1.9093e-07 0.00650614 -0 -1.88831e-07 -0 -2.09891e-09)
(-3.78738e-07 0.00733922 -0 3.73345e-07 -0 5.39311e-09)
(-1.76729e-07 0.00734516 -0 1.87132e-07 -0 -1.04029e-08)
(4.42961e-07 0.00734154 -0 -4.58801e-07 -0 1.58405e-08)
(1.58584e-07 0.00733765 -0 -1.51262e-07 -0 -7.32157e-09)
(-2.58184e-07 0.00823906 -0 2.5672e-07 -0 1.46443e-09)
(-1.21781e-07 0.00824731 -0 1.27787e-07 -0 -6.00571e-09)
(3.08177e-07 0.00824286 -0 -3.25217e-07 -0 1.70407e-08)
(1.32082e-07 0.00823848 -0 -1.31178e-07 -0 -9.03681e-10)
(-1.14229e-07 0.009203 -0 1.14733e-07 -0 -5.03546e-10)
(-4.9364e-08 0.00921355 -0 5.90432e-08 -0 -9.67922e-09)
(1.49283e-07 0.00920766 -0 -1.65394e-07 -0 1.61109e-08)
(8.42562e-08 0.00920082 -0 -8.36499e-08 -0 -6.0626e-10)
(-8.94465e-07 0.00125328 -0 8.84579e-07 -0 9.88675e-09)
(-1.73387e-07 0.00125115 -0 1.2238e-07 -0 5.10073e-08)
(8.00043e-09 0.00125022 -0 -4.22882e-09 -0 -3.7716e-09)
(7.33084e-07 0.00125238 -0 -7.31907e-07 -0 -1.17623e-09)
(-9.38537e-07 0.00149463 -0 9.47713e-07 -0 -9.17682e-09)
(-2.19786e-07 0.00149446 -0 1.95218e-07 -0 2.45682e-08)
(1.0815e-07 0.00149313 -0 -6.07769e-08 -0 -4.73728e-08)
(6.22924e-07 0.00149352 -0 -5.70543e-07 -0 -5.23808e-08)
(-7.93856e-07 0.00177246 -0 8.29048e-07 -0 -3.51915e-08)
(-2.85859e-07 0.00177269 -0 2.96119e-07 -0 -1.02602e-08)
(-3.20503e-08 0.00177235 -0 4.54977e-08 -0 -1.34474e-08)
(5.79144e-07 0.00177283 -0 -5.45513e-07 -0 -3.36307e-08)
(-7.19272e-07 0.00209066 -0 6.72048e-07 -0 4.72239e-08)
(-2.44519e-07 0.00209165 -0 2.39814e-07 -0 4.70464e-09)
(1.07568e-07 0.00209157 -0 -5.40382e-08 -0 -5.35301e-08)
(5.56884e-07 0.00209161 -0 -6.0588e-07 -0 4.89956e-08)
(-5.75912e-07 0.00245278 -0 5.8402e-07 -0 -8.10792e-09)
(-2.26771e-07 0.00245433 -0 2.07462e-07 -0 1.93089e-08)
(-1.31578e-08 0.00245366 -0 7.55321e-09 -0 5.60459e-09)
(4.10354e-07 0.00245397 -0 -4.13175e-07 -0 2.82178e-09)
(-5.50673e-07 0.00286247 -0 5.34257e-07 -0 1.64164e-08)
(-2.05808e-07 0.0028638 -0 1.90735e-07 -0 1.50729e-08)
(9.7989e-08 0.00286376 -0 -4.61119e-08 -0 -5.18771e-08)
(3.14681e-07 0.00286581 -0 -3.04109e-07 -0 -1.05723e-08)
(-3.97871e-07 0.00332343 -0 4.05527e-07 -0 -7.65615e-09)
(-1.88842e-07 0.00332552 -0 1.73695e-07 -0 1.51474e-08)
(4.54374e-08 0.00332411 -0 -4.16905e-08 -0 -3.7469e-09)
(2.65361e-07 0.00332652 -0 -2.67553e-07 -0 2.19122e-09)
(-3.75971e-07 0.00383887 -0 3.61691e-07 -0 1.42795e-08)
(-1.81548e-07 0.00384009 -0 1.64155e-07 -0 1.73928e-08)
(1.41688e-07 0.00383914 -0 -9.95599e-08 -0 -4.2128e-08)
(2.38998e-07 0.00384201 -0 -2.32153e-07 -0 -6.84561e-09)
(-2.69009e-07 0.00441234 -0 2.7175e-07 -0 -2.74105e-09)
(-1.78636e-07 0.00441492 -0 1.61969e-07 -0 1.66672e-08)
(9.91737e-08 0.00441308 -0 -8.46579e-08 -0 -1.45159e-08)
(2.10294e-07 0.00441346 -0 -2.05626e-07 -0 -4.66756e-09)
(-2.23059e-07 0.00504643 -0 2.11905e-07 -0 1.11541e-08)
(-1.5886e-07 0.00504862 -0 1.43153e-07 -0 1.5707e-08)
(1.01338e-07 0.00504752 -0 -6.74517e-08 -0 -3.38858e-08)
(1.78474e-07 0.00504689 -0 -1.75368e-07 -0 -3.10607e-09)
(-1.33542e-07 0.00574427 -0 1.33037e-07 -0 5.04805e-10)
(-1.42371e-07 0.00574702 -0 1.25446e-07 -0 1.69253e-08)
(3.67626e-08 0.00574587 -0 -1.72623e-08 -0 -1.95003e-08)
(1.49413e-07 0.0057438 -0 -1.45323e-07 -0 -4.09011e-09)
(-7.66805e-08 0.00650788 -0 6.86405e-08 -0 8.04003e-09)
(-1.06255e-07 0.00650972 -0 9.10253e-08 -0 1.52296e-08)
(-1.62784e-09 0.00650965 -0 3.12638e-08 -0 -2.96359e-08)
(1.19652e-07 0.00650719 -0 -1.17851e-07 -0 -1.80102e-09)
(-1.19377e-08 0.00733974 -0 8.95504e-09 -0 2.98271e-09)
(-8.4478e-08 0.00734096 -0 6.85714e-08 -0 1.59066e-08)
(-4.97375e-08 0.00734159 -0 7.14068e-08 -0 -2.16693e-08)
(1.00581e-07 0.00733841 -0 -1.00357e-07 -0 -2.24232e-10)
(3.10386e-08 0.00824043 -0 -3.6463e-08 -0 5.42447e-09)
(-4.40046e-08 0.00824025 -0 2.82089e-08 -0 1.57957e-08)
(-8.20534e-08 0.00824279 -0 1.07005e-07 -0 -2.49517e-08)
(3.43991e-08 0.00823919 -0 -2.62077e-08 -0 -8.19144e-09)
(4.77666e-08 0.00920113 -0 -5.16641e-08 -0 3.89751e-09)
(-1.00042e-08 0.00919873 -0 -1.5273e-09 -0 1.15315e-08)
(-8.26883e-08 0.00920357 -0 1.02061e-07 -0 -1.93726e-08)
(-2.51431e-08 0.00920235 -0 2.66443e-08 -0 -1.50119e-09)
)
;

boundaryField
{
    topWall
    {
        type            calculated;
        value           nonuniform List<symmTensor> 8((-8.73176e-08 0.00969932 -0 6.09094e-08 -0 2.64082e-08) (-4.56463e-08 0.00971119 -0 5.16078e-08 -0 -5.96155e-09) (1.17053e-07 0.00970409 -0 -1.00933e-07 -0 -1.61195e-08) (6.38594e-08 0.00969521 -0 -4.28564e-08 -0 -2.1003e-08) (4.96653e-08 0.0096939 -0 -5.54614e-08 -0 5.79614e-09) (-1.00932e-08 0.00968995 -0 -1.34943e-09 -0 1.14426e-08) (-7.51743e-08 0.00969649 -0 8.70329e-08 -0 -1.18586e-08) (-1.22953e-08 0.00969754 -0 9.48632e-10 -0 1.13467e-08));
    }
    botWall
    {
        type            calculated;
        value           nonuniform List<symmTensor> 0();
    }
    inlet
    {
        type            cyclic;
    }
    outlet
    {
        type            cyclic;
    }
    fixWall
    {
        type            empty;
    }
    procBoundary7to6
    {
        type            processor;
        value           nonuniform List<symmTensor> 8((2.0093e-07 0.00104107 -0 -2.18912e-07 -0 1.79819e-08) (-4.80939e-07 0.00104274 -0 4.54844e-07 -0 2.60949e-08) (7.21746e-07 0.00104317 -0 -7.46177e-07 -0 2.4431e-08) (-8.67899e-08 0.00104149 -0 9.73219e-08 -0 -1.05321e-08) (-1.00673e-06 0.00104517 -0 1.01979e-06 -0 -1.30591e-08) (-1.18059e-07 0.0010445 -0 9.52112e-08 -0 2.28479e-08) (8.46445e-08 0.00104037 -0 -5.58845e-08 -0 -2.876e-08) (6.70717e-07 0.00104097 -0 -6.17236e-07 -0 -5.34814e-08));
    }
}


// ************************************************************************* //
