/*--------------------------------*- C++ -*----------------------------------*\
  =========                 |
  \\      /  F ield         | OpenFOAM: The Open Source CFD Toolbox
   \\    /   O peration     | Website:  https://openfoam.org
    \\  /    A nd           | Version:  dev
     \\/     M anipulation  |

   OpenFOAM for Windows 20.09 (v1)
   Built by CFD Support, www.cfdsupport.com (based on Symscape).
\*---------------------------------------------------------------------------*/
FoamFile
{
    version     2.0;
    format      ascii;
    class       volScalarField;
    location    "6";
    object      epsilon;
}
// * * * * * * * * * * * * * * * * * * * * * * * * * * * * * * * * * * * * * //

dimensions      [0 2 -3 0 0 0 0];

internalField   nonuniform List<scalar> 
120
(
2.11496e-15
2.1151e-15
2.11543e-15
2.11518e-15
2.45977e-15
2.45992e-15
2.4603e-15
2.46004e-15
2.89547e-15
2.89564e-15
2.89606e-15
2.89578e-15
3.4569e-15
3.45709e-15
3.45754e-15
3.45726e-15
4.19742e-15
4.19761e-15
4.19809e-15
4.1978e-15
5.20201e-15
5.2022e-15
5.20269e-15
5.2024e-15
6.61268e-15
6.61287e-15
6.61337e-15
6.61308e-15
8.68096e-15
8.68114e-15
8.68164e-15
8.68136e-15
1.18857e-14
1.18858e-14
1.18863e-14
1.1886e-14
1.72267e-14
1.72269e-14
1.72273e-14
1.72271e-14
2.70631e-14
2.70633e-14
2.70637e-14
2.70634e-14
4.79485e-14
4.79487e-14
4.7949e-14
4.79488e-14
1.01989e-13
1.01989e-13
1.01989e-13
1.01989e-13
2.99646e-13
2.99646e-13
2.99647e-13
2.99647e-13
1.73748e-12
1.73748e-12
1.73748e-12
1.73748e-12
2.11507e-15
2.11513e-15
2.11522e-15
2.11531e-15
2.45993e-15
2.45999e-15
2.46008e-15
2.46017e-15
2.89567e-15
2.89573e-15
2.89583e-15
2.89592e-15
3.45714e-15
3.4572e-15
3.4573e-15
3.45739e-15
4.19768e-15
4.19775e-15
4.19784e-15
4.19793e-15
5.20227e-15
5.20235e-15
5.20242e-15
5.20252e-15
6.61295e-15
6.61302e-15
6.61308e-15
6.61317e-15
8.68123e-15
8.68129e-15
8.68133e-15
8.68142e-15
1.18859e-14
1.1886e-14
1.1886e-14
1.18861e-14
1.72269e-14
1.7227e-14
1.7227e-14
1.7227e-14
2.70634e-14
2.70634e-14
2.70633e-14
2.70634e-14
4.79488e-14
4.79487e-14
4.79487e-14
4.79487e-14
1.01989e-13
1.01989e-13
1.01989e-13
1.01989e-13
2.99647e-13
2.99646e-13
2.99646e-13
2.99646e-13
1.73748e-12
1.73748e-12
1.73748e-12
1.73748e-12
)
;

boundaryField
{
    topWall
    {
        type            epsilonWallFunction;
        value           nonuniform List<scalar> 8(1.73748e-12 1.73748e-12 1.73748e-12 1.73748e-12 1.73748e-12 1.73748e-12 1.73748e-12 1.73748e-12);
    }
    botWall
    {
        type            epsilonWallFunction;
        value           nonuniform List<scalar> 0();
    }
    inlet
    {
        type            cyclic;
    }
    outlet
    {
        type            cyclic;
    }
    fixWall
    {
        type            empty;
    }
    procBoundary7to6
    {
        type            processor;
        value           nonuniform List<scalar> 8(1.83784e-15 1.83796e-15 1.83826e-15 1.83803e-15 1.83791e-15 1.83798e-15 1.83805e-15 1.83814e-15);
    }
}


// ************************************************************************* //
