/*--------------------------------*- C++ -*----------------------------------*\
  =========                 |
  \\      /  F ield         | OpenFOAM: The Open Source CFD Toolbox
   \\    /   O peration     | Website:  https://openfoam.org
    \\  /    A nd           | Version:  dev
     \\/     M anipulation  |

   OpenFOAM for Windows 20.09 (v1)
   Built by CFD Support, www.cfdsupport.com (based on Symscape).
\*---------------------------------------------------------------------------*/
FoamFile
{
    version     2.0;
    format      ascii;
    class       volTensorField;
    location    "6";
    object      gradU;
}
// * * * * * * * * * * * * * * * * * * * * * * * * * * * * * * * * * * * * * //

dimensions      [0 0 -1 0 0 0 0];

internalField   nonuniform List<tensor> 
120
(
(-0.000518417 0.000183213 0 -6.61825 0.000718576 0 0 0 0)
(0.00125785 -0.000280272 0 -6.6269 -0.00107911 0 0 0 0)
(-0.00184692 -0.00014205 0 -6.62972 0.00204625 0 0 0 0)
(9.32961e-05 0.000317105 0 -6.62077 0.000242358 0 0 0 0)
(-0.000304963 0.000158656 0 -7.89415 0.000441235 0 0 0 0)
(0.00115257 -0.000269016 0 -7.90254 -0.000995763 0 0 0 0)
(-0.00174571 -0.000130172 0 -7.90674 0.00189231 0 0 0 0)
(-1.05483e-05 0.000282399 0 -7.8974 -0.000116393 0 0 0 0)
(-0.000298484 0.000143732 0 -9.36673 5.63242e-05 0 0 0 0)
(0.00104805 -0.000256087 0 -9.37301 -0.00130642 0 0 0 0)
(-0.00176128 -0.000127394 0 -9.37866 0.00178131 0 0 0 0)
(-0.000154535 0.000243304 0 -9.36929 -0.000239384 0 0 0 0)
(7.92498e-05 0.000114274 0 -11.0526 -4.72718e-05 0 0 0 0)
(0.000953674 -0.000240266 0 -11.0572 -0.00132456 0 0 0 0)
(-0.00168355 -0.000112388 0 -11.0646 0.00181806 0 0 0 0)
(-0.000268212 0.00021454 0 -11.0553 0.00036241 0 0 0 0)
(0.000174902 9.27322e-05 0 -12.9753 -0.000206954 0 0 0 0)
(0.000848421 -0.000224999 0 -12.9756 -0.000962714 0 0 0 0)
(-0.0017293 -9.92778e-05 0 -12.9853 0.00184693 0 0 0 0)
(-0.000420574 0.000185406 0 -12.9762 0.000411251 0 0 0 0)
(0.000588393 7.98559e-05 0 -15.1549 -0.000528889 0 0 0 0)
(0.000785796 -0.000206035 0 -15.1473 -0.00083048 0 0 0 0)
(-0.00169404 -8.94886e-05 0 -15.159 0.00186314 0 0 0 0)
(-0.000509209 0.000157606 0 -15.1499 0.000499977 0 0 0 0)
(0.000868196 6.59263e-05 0 -17.6051 -0.000883023 0 0 0 0)
(0.000779395 -0.000185131 0 -17.5918 -0.000862733 0 0 0 0)
(-0.00177193 -7.71036e-05 0 -17.6068 0.00190759 0 0 0 0)
(-0.000622566 0.000131483 0 -17.5971 0.00059839 0 0 0 0)
(0.00123571 5.35633e-05 0 -20.3397 -0.00120366 0 0 0 0)
(0.000757335 -0.000159525 0 -20.3284 -0.000827543 0 0 0 0)
(-0.00178276 -6.51365e-05 0 -20.3433 0.00194074 0 0 0 0)
(-0.000633043 0.000107564 0 -20.3328 0.000616878 0 0 0 0)
(0.00144079 4.21829e-05 0 -23.3791 -0.00140791 0 0 0 0)
(0.000720307 -0.000132725 0 -23.3746 -0.00079378 0 0 0 0)
(-0.00184513 -5.30299e-05 0 -23.3859 0.00197373 0 0 0 0)
(-0.000668213 8.37931e-05 0 -23.3743 0.000633092 0 0 0 0)
(0.00151476 3.1458e-05 0 -26.7421 -0.00150052 0 0 0 0)
(0.000642915 -0.000103164 0 -26.7469 -0.000726478 0 0 0 0)
(-0.00177709 -4.13553e-05 0 -26.7501 0.00193485 0 0 0 0)
(-0.000624329 6.2545e-05 0 -26.7367 0.000614931 0 0 0 0)
(0.00146809 2.24667e-05 0 -30.4436 -0.00143993 0 0 0 0)
(0.000586668 -7.54687e-05 0 -30.456 -0.000661895 0 0 0 0)
(-0.00167421 -3.0673e-05 0 -30.4514 0.00180972 0 0 0 0)
(-0.000602021 4.26791e-05 0 -30.4355 0.000564952 0 0 0 0)
(0.00128414 1.41886e-05 0 -34.4927 -0.0012771 0 0 0 0)
(0.000511442 -4.90032e-05 0 -34.5151 -0.000593147 0 0 0 0)
(-0.00143443 -2.09079e-05 0 -34.5015 0.00158856 0 0 0 0)
(-0.000511526 2.65295e-05 0 -34.4826 0.00049484 0 0 0 0)
(0.00101795 7.45538e-06 0 -38.8979 -0.000975073 0 0 0 0)
(0.000440764 -2.77076e-05 0 -38.9293 -0.000523467 0 0 0 0)
(-0.00113187 -1.25399e-05 0 -38.9102 0.0012578 0 0 0 0)
(-0.000439649 1.35265e-05 0 -38.8896 0.000381443 0 0 0 0)
(0.000688068 1.04167e-06 0 -43.667 -0.000676426 0 0 0 0)
(0.000306806 -1.17887e-05 0 -43.7107 -0.000354551 0 0 0 0)
(-0.00077151 -5.82604e-06 0 -43.6872 0.000906984 0 0 0 0)
(-0.000352412 5.30241e-06 0 -43.664 0.000345227 0 0 0 0)
(0.000301374 7.50474e-07 0 -48.7759 -0.000305377 0 0 0 0)
(0.000105165 -1.31744e-06 0 -48.8318 -0.000182114 0 0 0 0)
(-0.000352907 -8.76959e-07 0 -48.8006 0.000480989 0 0 0 0)
(-0.000224885 2.60101e-07 0 -48.7643 0.000220066 0 0 0 0)
(0.00239653 8.87507e-05 0 -6.64248 -0.00231793 0 0 0 0)
(0.000594645 -0.00011186 0 -6.63099 -0.000189136 0 0 0 0)
(-3.11959e-05 -0.000129914 0 -6.62603 1.21163e-06 0 0 0 0)
(-0.00194579 7.50273e-05 0 -6.63769 0.00193644 0 0 0 0)
(0.0024628 8.45342e-05 0 -7.92161 -0.00253576 0 0 0 0)
(0.000647538 -9.26381e-05 0 -7.92057 -0.000452221 0 0 0 0)
(-0.000412135 -0.000113018 0 -7.91347 3.55211e-05 0 0 0 0)
(-0.00178956 7.92547e-05 0 -7.91574 0.00137313 0 0 0 0)
(0.00201046 8.31536e-05 0 -9.39412 -0.00229023 0 0 0 0)
(0.000730336 -6.90054e-05 0 -9.39518 -0.000811904 0 0 0 0)
(4.92975e-05 -9.94915e-05 0 -9.39334 -0.000156205 0 0 0 0)
(-0.00162385 8.17891e-05 0 -9.39607 0.00135649 0 0 0 0)
(0.00203121 7.49922e-05 0 -11.0806 -0.00165578 0 0 0 0)
(0.000660443 -5.70709e-05 0 -11.0857 -0.000623041 0 0 0 0)
(-0.000426911 -7.68786e-05 0 -11.0853 1.34646e-06 0 0 0 0)
(-0.0013459 8.27969e-05 0 -11.0856 0.00173542 0 0 0 0)
(0.00150468 6.67294e-05 0 -12.9998 -0.00156914 0 0 0 0)
(0.000652113 -4.13866e-05 0 -13.0079 -0.000498607 0 0 0 0)
(4.97204e-05 -6.01838e-05 0 -13.0043 -5.16385e-06 0 0 0 0)
(-0.00107996 8.09788e-05 0 -13.0061 0.00110239 0 0 0 0)
(0.00150279 5.98279e-05 0 -15.1712 -0.00137228 0 0 0 0)
(0.000585333 -3.10047e-05 0 -15.1781 -0.000465504 0 0 0 0)
(-0.000397145 -5.01952e-05 0 -15.1779 -1.52776e-05 0 0 0 0)
(-0.000861921 7.94337e-05 0 -15.1889 0.000777871 0 0 0 0)
(0.00103407 5.06381e-05 0 -17.6142 -0.00109494 0 0 0 0)
(0.000540572 -1.87699e-05 0 -17.6252 -0.00042015 0 0 0 0)
(-0.000130338 -3.94609e-05 0 -17.6177 0.000100551 0 0 0 0)
(-0.000697401 7.24186e-05 0 -17.6306 0.000714821 0 0 0 0)
(0.00103416 4.28522e-05 0 -20.346 -0.000920642 0 0 0 0)
(0.000527194 -1.10799e-05 0 -20.3525 -0.000388921 0 0 0 0)
(-0.000487112 -3.12791e-05 0 -20.3474 0.000152195 0 0 0 0)
(-0.000651486 6.30408e-05 0 -20.3627 0.000597064 0 0 0 0)
(0.000705609 3.38748e-05 0 -23.3854 -0.0007274 0 0 0 0)
(0.000517553 -8.89328e-07 0 -23.3991 -0.000385049 0 0 0 0)
(-0.000301278 -2.30278e-05 0 -23.3893 0.000185876 0 0 0 0)
(-0.000569647 4.98211e-05 0 -23.3914 0.00053254 0 0 0 0)
(0.000620664 2.58832e-05 0 -26.7461 -0.000531989 0 0 0 0)
(0.000462601 4.14139e-06 0 -26.7577 -0.000337731 0 0 0 0)
(-0.000358342 -1.59859e-05 0 -26.7518 8.89497e-05 0 0 0 0)
(-0.000481187 3.64777e-05 0 -26.7486 0.000456494 0 0 0 0)
(0.000355224 1.79971e-05 0 -30.4447 -0.000351211 0 0 0 0)
(0.000422136 9.45965e-06 0 -30.4592 -0.00028758 0 0 0 0)
(-0.000149097 -9.79072e-06 0 -30.4531 -5.93067e-06 0 0 0 0)
(-0.000406783 2.333e-05 0 -30.4422 0.000374267 0 0 0 0)
(0.000224509 1.16744e-05 0 -34.4917 -0.000160591 0 0 0 0)
(0.000321934 9.89606e-06 0 -34.5015 -0.000200859 0 0 0 0)
(-7.42214e-05 -4.95512e-06 0 -34.5011 -0.000161384 0 0 0 0)
(-0.00032185 1.25776e-05 0 -34.4881 0.000307532 0 0 0 0)
(3.95392e-05 6.4021e-06 0 -38.9006 -1.58267e-05 0 0 0 0)
(0.000266019 9.44644e-06 0 -38.9071 -0.000139562 0 0 0 0)
(7.43806e-05 -1.31754e-06 0 -38.9104 -0.000246652 0 0 0 0)
(-0.000267134 4.7347e-06 0 -38.8936 0.000265351 0 0 0 0)
(-6.78774e-05 2.99094e-06 0 -43.6743 0.000111002 0 0 0 0)
(0.000158471 6.04898e-06 0 -43.6733 -3.28952e-05 0 0 0 0)
(0.000151319 1.79343e-06 0 -43.6868 -0.000349686 0 0 0 0)
(-0.000112865 4.3727e-07 0 -43.6677 4.7743e-05 0 0 0 0)
(-0.000116253 1.00052e-07 0 -48.766 0.000147238 0 0 0 0)
(5.70697e-05 1.76831e-06 0 -48.7533 3.46059e-05 0 0 0 0)
(0.000167787 2.64335e-08 0 -48.7789 -0.000321799 0 0 0 0)
(6.26512e-05 -7.10976e-07 0 -48.7724 -7.45857e-05 0 0 0 0)
)
;

boundaryField
{
    topWall
    {
        type            extrapolatedCalculated;
        value           nonuniform List<tensor> 8((0.000301374 7.50474e-07 0 -51.4064 -9.14281e-05 0 0 0 0) (0.000105165 -1.31744e-06 0 -51.4693 -0.000152559 0 0 0 0) (-0.000352907 -8.76959e-07 0 -51.4317 0.000224757 0 0 0 0) (-0.000224885 2.60101e-07 0 -51.3846 5.79114e-05 0 0 0 0) (-0.000116253 1.00052e-07 0 -51.3777 0.000162332 0 0 0 0) (5.70697e-05 1.76831e-06 0 -51.3567 3.38988e-05 0 0 0 0) (0.000167787 2.64335e-08 0 -51.3914 -0.000262062 0 0 0 0) (6.26512e-05 -7.10976e-07 0 -51.397 2.75548e-05 0 0 0 0));
    }
    botWall
    {
        type            extrapolatedCalculated;
        value           nonuniform List<tensor> 0();
    }
    inlet
    {
        type            cyclic;
    }
    outlet
    {
        type            cyclic;
    }
    fixWall
    {
        type            empty;
    }
    procBoundary7to6
    {
        type            processor;
        value           nonuniform List<tensor> 8((-0.000484812 0.000208915 0 -5.51785 0.000627768 0 0 0 0) (0.00134364 -0.000291144 0 -5.52622 -0.00113619 0 0 0 0) (-0.00184788 -0.000152196 0 -5.52862 0.00204211 0 0 0 0) (0.000202083 0.000355136 0 -5.52023 -0.000285813 0 0 0 0) (0.00263322 9.17258e-05 0 -5.53947 -0.00273704 0 0 0 0) (0.000373404 -0.00013129 0 -5.5357 -0.000191763 0 0 0 0) (-0.000300522 -0.000148445 0 -5.51379 7.188e-05 0 0 0 0) (-0.00191913 6.72987e-05 0 -5.51719 0.00149395 0 0 0 0));
    }
}


// ************************************************************************* //
