/*--------------------------------*- C++ -*----------------------------------*\
  =========                 |
  \\      /  F ield         | OpenFOAM: The Open Source CFD Toolbox
   \\    /   O peration     | Website:  https://openfoam.org
    \\  /    A nd           | Version:  dev
     \\/     M anipulation  |

   OpenFOAM for Windows 20.09 (v1)
   Built by CFD Support, www.cfdsupport.com (based on Symscape).
\*---------------------------------------------------------------------------*/
FoamFile
{
    version     2.0;
    format      ascii;
    class       volVectorField;
    location    "6";
    object      gradp_rgh;
}
// * * * * * * * * * * * * * * * * * * * * * * * * * * * * * * * * * * * * * //

dimensions      [1 -2 -2 0 0 0 0];

internalField   nonuniform List<vector> 
120
(
(-1.262 -0.00188673 0)
(-1.26494 -0.00139991 0)
(-1.25938 0.00103105 0)
(-1.2486 0.00323596 0)
(-1.26198 -0.00104331 0)
(-1.26492 0.00017174 0)
(-1.25935 0.00123569 0)
(-1.2486 0.0035738 0)
(-1.26193 -0.000651085 0)
(-1.2649 0.00104745 0)
(-1.25932 0.00122622 0)
(-1.24861 0.0033171 0)
(-1.26188 -0.000560676 0)
(-1.26488 0.00118524 0)
(-1.25931 0.00109824 0)
(-1.24861 0.00292407 0)
(-1.26183 -0.000528637 0)
(-1.26487 0.00103453 0)
(-1.2593 0.000967281 0)
(-1.24862 0.00265065 0)
(-1.26179 -0.000507952 0)
(-1.26486 0.000907169 0)
(-1.25928 0.000860554 0)
(-1.24862 0.0023934 0)
(-1.26175 -0.000479506 0)
(-1.26485 0.000809939 0)
(-1.25927 0.00077289 0)
(-1.24863 0.00213741 0)
(-1.26172 -0.000443501 0)
(-1.26484 0.000719662 0)
(-1.25926 0.000684882 0)
(-1.24863 0.00187815 0)
(-1.26169 -0.000376474 0)
(-1.26483 0.000636165 0)
(-1.25925 0.000589822 0)
(-1.24863 0.00161493 0)
(-1.26167 -0.000300908 0)
(-1.26482 0.000549315 0)
(-1.25924 0.000489212 0)
(-1.24863 0.00135473 0)
(-1.26165 -0.000224304 0)
(-1.26482 0.000460691 0)
(-1.25924 0.000386496 0)
(-1.24863 0.00109635 0)
(-1.26163 -0.000151314 0)
(-1.26481 0.000373006 0)
(-1.25923 0.000280133 0)
(-1.24864 0.000838532 0)
(-1.26162 -8.09478e-05 0)
(-1.26481 0.000286749 0)
(-1.25923 0.000173189 0)
(-1.24864 0.000585339 0)
(-1.26161 -2.66643e-05 0)
(-1.26481 0.000208889 0)
(-1.25923 7.8294e-05 0)
(-1.24864 0.000359246 0)
(-1.2616 -4.72409e-06 0)
(-1.26481 8.65012e-05 0)
(-1.25923 1.93698e-05 0)
(-1.24864 0.000130273 0)
(-1.23963 0.00144139 0)
(-1.23345 -7.99495e-05 0)
(-1.23899 -0.00230907 0)
(-1.25301 -0.0032098 0)
(-1.23965 0.00108355 0)
(-1.23348 0.000783324 0)
(-1.23903 -0.00187742 0)
(-1.25301 -0.00401004 0)
(-1.23967 0.00060798 0)
(-1.2335 0.00113417 0)
(-1.23907 -0.0016355 0)
(-1.253 -0.00469952 0)
(-1.23969 0.000385902 0)
(-1.23351 0.00112139 0)
(-1.23912 -0.00150262 0)
(-1.25299 -0.00473536 0)
(-1.2397 0.000382827 0)
(-1.23353 0.00103082 0)
(-1.23917 -0.00135393 0)
(-1.25298 -0.00431201 0)
(-1.23971 0.000371065 0)
(-1.23354 0.000932966 0)
(-1.23921 -0.00120657 0)
(-1.25298 -0.00387815 0)
(-1.23973 0.000350156 0)
(-1.23355 0.000820689 0)
(-1.23925 -0.00108904 0)
(-1.25297 -0.00344466 0)
(-1.23974 0.000318993 0)
(-1.23357 0.000715205 0)
(-1.23928 -0.00096186 0)
(-1.25297 -0.00301456 0)
(-1.23975 0.000295394 0)
(-1.23358 0.000619118 0)
(-1.23931 -0.000860206 0)
(-1.25296 -0.00261392 0)
(-1.23975 0.000263027 0)
(-1.23358 0.000522632 0)
(-1.23934 -0.000741002 0)
(-1.25296 -0.00221567 0)
(-1.23976 0.000231139 0)
(-1.23359 0.000427301 0)
(-1.23936 -0.000622689 0)
(-1.25296 -0.00181671 0)
(-1.23976 0.000186613 0)
(-1.2336 0.000331527 0)
(-1.23937 -0.000487796 0)
(-1.25295 -0.00141592 0)
(-1.23977 0.000140891 0)
(-1.2336 0.000236028 0)
(-1.23939 -0.000350496 0)
(-1.25295 -0.00102034 0)
(-1.23977 8.81949e-05 0)
(-1.23361 0.000148155 0)
(-1.2394 -0.000208948 0)
(-1.25295 -0.000663896 0)
(-1.23977 3.20638e-05 0)
(-1.23361 5.31906e-05 0)
(-1.2394 -7.21319e-05 0)
(-1.25295 -0.000250497 0)
)
;

boundaryField
{
    topWall
    {
        type            extrapolatedCalculated;
        value           nonuniform List<vector> 8((-1.2616 0 0) (-1.26481 0 0) (-1.25923 0 0) (-1.24864 0 0) (-1.23977 0 0) (-1.23361 0 0) (-1.2394 0 0) (-1.25295 0 0));
    }
    botWall
    {
        type            extrapolatedCalculated;
        value           nonuniform List<vector> 0();
    }
    inlet
    {
        type            cyclic;
    }
    outlet
    {
        type            cyclic;
    }
    fixWall
    {
        type            empty;
    }
    procBoundary7to6
    {
        type            processor;
        value           nonuniform List<vector> 8((-1.26201 -0.00293484 0) (-1.26496 -0.0031977 0) (-1.25942 0.000705101 0) (-1.24861 0.00251673 0) (-1.2396 0.00164446 0) (-1.23341 -0.00115883 0) (-1.23897 -0.00289716 0) (-1.25302 -0.00259945 0));
    }
}


// ************************************************************************* //
