/*--------------------------------*- C++ -*----------------------------------*\
  =========                 |
  \\      /  F ield         | OpenFOAM: The Open Source CFD Toolbox
   \\    /   O peration     | Website:  https://openfoam.org
    \\  /    A nd           | Version:  dev
     \\/     M anipulation  |

   OpenFOAM for Windows 20.09 (v1)
   Built by CFD Support, www.cfdsupport.com (based on Symscape).
\*---------------------------------------------------------------------------*/
FoamFile
{
    version     2.0;
    format      ascii;
    class       volVectorField;
    location    "6";
    object      gradp;
}
// * * * * * * * * * * * * * * * * * * * * * * * * * * * * * * * * * * * * * //

dimensions      [1 -2 -2 0 0 0 0];

internalField   nonuniform List<vector> 
120
(
(3.738 -9.81189 0)
(-1.26494 -9.8114 0)
(-1.25938 -9.80897 0)
(-1.2486 -9.80676 0)
(3.73802 -9.81104 0)
(-1.26492 -9.80983 0)
(-1.25935 -9.80876 0)
(-1.2486 -9.80643 0)
(3.73807 -9.81065 0)
(-1.2649 -9.80895 0)
(-1.25932 -9.80877 0)
(-1.24861 -9.80668 0)
(3.73812 -9.81056 0)
(-1.26488 -9.80881 0)
(-1.25931 -9.8089 0)
(-1.24861 -9.80708 0)
(3.73817 -9.81053 0)
(-1.26487 -9.80897 0)
(-1.2593 -9.80903 0)
(-1.24862 -9.80735 0)
(3.73821 -9.81051 0)
(-1.26486 -9.80909 0)
(-1.25928 -9.80914 0)
(-1.24862 -9.80761 0)
(3.73825 -9.81048 0)
(-1.26485 -9.80919 0)
(-1.25927 -9.80923 0)
(-1.24863 -9.80786 0)
(3.73828 -9.81044 0)
(-1.26484 -9.80928 0)
(-1.25926 -9.80932 0)
(-1.24863 -9.80812 0)
(3.73831 -9.81038 0)
(-1.26483 -9.80936 0)
(-1.25925 -9.80941 0)
(-1.24863 -9.80839 0)
(3.73833 -9.8103 0)
(-1.26482 -9.80945 0)
(-1.25924 -9.80951 0)
(-1.24863 -9.80865 0)
(3.73835 -9.81022 0)
(-1.26482 -9.80954 0)
(-1.25924 -9.80961 0)
(-1.24863 -9.8089 0)
(3.73837 -9.81015 0)
(-1.26481 -9.80963 0)
(-1.25923 -9.80972 0)
(-1.24864 -9.80916 0)
(3.73838 -9.81008 0)
(-1.26481 -9.80971 0)
(-1.25923 -9.80983 0)
(-1.24864 -9.80941 0)
(3.73839 -9.81003 0)
(-1.26481 -9.80979 0)
(-1.25923 -9.80992 0)
(-1.24864 -9.80964 0)
(3.7384 -9.81 0)
(-1.26481 -9.80991 0)
(-1.25923 -9.80998 0)
(-1.24864 -9.80987 0)
(-1.23963 -9.80856 0)
(-1.23345 -9.81008 0)
(-1.23899 -9.81231 0)
(3.74699 -9.81321 0)
(-1.23965 -9.80892 0)
(-1.23348 -9.80922 0)
(-1.23903 -9.81188 0)
(3.74699 -9.81401 0)
(-1.23967 -9.80939 0)
(-1.2335 -9.80887 0)
(-1.23907 -9.81164 0)
(3.747 -9.8147 0)
(-1.23969 -9.80961 0)
(-1.23351 -9.80888 0)
(-1.23912 -9.8115 0)
(3.74701 -9.81474 0)
(-1.2397 -9.80962 0)
(-1.23353 -9.80897 0)
(-1.23917 -9.81135 0)
(3.74702 -9.81431 0)
(-1.23971 -9.80963 0)
(-1.23354 -9.80907 0)
(-1.23921 -9.81121 0)
(3.74702 -9.81388 0)
(-1.23973 -9.80965 0)
(-1.23355 -9.80918 0)
(-1.23925 -9.81109 0)
(3.74703 -9.81344 0)
(-1.23974 -9.80968 0)
(-1.23357 -9.80928 0)
(-1.23928 -9.81096 0)
(3.74703 -9.81301 0)
(-1.23975 -9.8097 0)
(-1.23358 -9.80938 0)
(-1.23931 -9.81086 0)
(3.74704 -9.81261 0)
(-1.23975 -9.80974 0)
(-1.23358 -9.80948 0)
(-1.23934 -9.81074 0)
(3.74704 -9.81222 0)
(-1.23976 -9.80977 0)
(-1.23359 -9.80957 0)
(-1.23936 -9.81062 0)
(3.74704 -9.81182 0)
(-1.23976 -9.80981 0)
(-1.2336 -9.80967 0)
(-1.23937 -9.81049 0)
(3.74705 -9.81142 0)
(-1.23977 -9.80986 0)
(-1.2336 -9.80976 0)
(-1.23939 -9.81035 0)
(3.74705 -9.81102 0)
(-1.23977 -9.80991 0)
(-1.23361 -9.80985 0)
(-1.2394 -9.81021 0)
(3.74705 -9.81066 0)
(-1.23977 -9.80997 0)
(-1.23361 -9.80995 0)
(-1.2394 -9.81007 0)
(3.74705 -9.81025 0)
)
;

boundaryField
{
    topWall
    {
        type            extrapolatedCalculated;
        value           nonuniform List<vector> 8((3.7384 -9.81 0) (-1.26481 -9.81 0) (-1.25923 -9.81 0) (-1.24864 -9.81 0) (-1.23977 -9.81 0) (-1.23361 -9.81 0) (-1.2394 -9.81 0) (3.74705 -9.81 0));
    }
    botWall
    {
        type            extrapolatedCalculated;
        value           nonuniform List<vector> 0();
    }
    inlet
    {
        type            cyclic;
    }
    outlet
    {
        type            cyclic;
    }
    fixWall
    {
        type            empty;
    }
    procBoundary7to6
    {
        type            processor;
        value           nonuniform List<vector> 8((3.73799 -9.81293 0) (-1.26496 -9.8132 0) (-1.25942 -9.80929 0) (-1.24861 -9.80748 0) (-1.2396 -9.80836 0) (-1.23341 -9.81116 0) (-1.23897 -9.8129 0) (3.74698 -9.8126 0));
    }
}


// ************************************************************************* //
