/*--------------------------------*- C++ -*----------------------------------*\
  =========                 |
  \\      /  F ield         | OpenFOAM: The Open Source CFD Toolbox
   \\    /   O peration     | Website:  https://openfoam.org
    \\  /    A nd           | Version:  dev
     \\/     M anipulation  |

   OpenFOAM for Windows 20.09 (v1)
   Built by CFD Support, www.cfdsupport.com (based on Symscape).
\*---------------------------------------------------------------------------*/
FoamFile
{
    version     2.0;
    format      ascii;
    class       volScalarField;
    location    "6";
    object      nut;
}
// * * * * * * * * * * * * * * * * * * * * * * * * * * * * * * * * * * * * * //

dimensions      [0 2 -1 0 0 0 0];

internalField   nonuniform List<scalar> 
120
(
2.09808e-18
2.09794e-18
2.09761e-18
2.09785e-18
1.80397e-18
1.80385e-18
1.80358e-18
1.80377e-18
1.53251e-18
1.53242e-18
1.5322e-18
1.53235e-18
1.28362e-18
1.28355e-18
1.28338e-18
1.28349e-18
1.05716e-18
1.05711e-18
1.05699e-18
1.05706e-18
8.53006e-19
8.52975e-19
8.52894e-19
8.52941e-19
6.71035e-19
6.71016e-19
6.70966e-19
6.70995e-19
5.11158e-19
5.11147e-19
5.11118e-19
5.11135e-19
3.73336e-19
3.7333e-19
3.73315e-19
3.73324e-19
2.57585e-19
2.57583e-19
2.57576e-19
2.5758e-19
1.63963e-19
1.63962e-19
1.63959e-19
1.63961e-19
9.25438e-20
9.25436e-20
9.25429e-20
9.25433e-20
4.35082e-20
4.35082e-20
4.3508e-20
4.35081e-20
1.48086e-20
1.48086e-20
1.48086e-20
1.48086e-20
2.5539e-21
2.5539e-21
2.5539e-21
2.5539e-21
2.09796e-18
2.09791e-18
2.09781e-18
2.09773e-18
1.80385e-18
1.80381e-18
1.80374e-18
1.80367e-18
1.53241e-18
1.53237e-18
1.53232e-18
1.53227e-18
1.28353e-18
1.28351e-18
1.28347e-18
1.28344e-18
1.05709e-18
1.05708e-18
1.05705e-18
1.05703e-18
8.52962e-19
8.5295e-19
8.52938e-19
8.52923e-19
6.71008e-19
6.71001e-19
6.70995e-19
6.70985e-19
5.11142e-19
5.11139e-19
5.11136e-19
5.11131e-19
3.73327e-19
3.73326e-19
3.73326e-19
3.73323e-19
2.57581e-19
2.57581e-19
2.57581e-19
2.5758e-19
1.63961e-19
1.63961e-19
1.63961e-19
1.63961e-19
9.25434e-20
9.25435e-20
9.25436e-20
9.25435e-20
4.35081e-20
4.35081e-20
4.35082e-20
4.35082e-20
1.48086e-20
1.48086e-20
1.48086e-20
1.48086e-20
2.5539e-21
2.5539e-21
2.5539e-21
2.5539e-21
)
;

boundaryField
{
    topWall
    {
        type            nutkWallFunction;
        Cmu             0.09;
        kappa           0.41;
        E               9.8;
        value           uniform 0;
    }
    botWall
    {
        type            nutkWallFunction;
        Cmu             0.09;
        kappa           0.41;
        E               9.8;
        value           nonuniform List<scalar> 0();
    }
    inlet
    {
        type            cyclic;
    }
    outlet
    {
        type            cyclic;
    }
    fixWall
    {
        type            empty;
    }
    procBoundary7to6
    {
        type            processor;
        value           nonuniform List<scalar> 8(2.41443e-18 2.41427e-18 2.41388e-18 2.41419e-18 2.41435e-18 2.41425e-18 2.41415e-18 2.41404e-18);
    }
}


// ************************************************************************* //
