/*--------------------------------*- C++ -*----------------------------------*\
  =========                 |
  \\      /  F ield         | OpenFOAM: The Open Source CFD Toolbox
   \\    /   O peration     | Website:  https://openfoam.org
    \\  /    A nd           | Version:  dev
     \\/     M anipulation  |

   OpenFOAM for Windows 20.09 (v1)
   Built by CFD Support, www.cfdsupport.com (based on Symscape).
\*---------------------------------------------------------------------------*/
FoamFile
{
    version     2.0;
    format      ascii;
    class       volScalarField;
    location    "6";
    object      omega;
}
// * * * * * * * * * * * * * * * * * * * * * * * * * * * * * * * * * * * * * //

dimensions      [0 0 -1 0 0 0 0];

internalField   nonuniform List<scalar> 
120
(
105.832
105.839
105.856
105.844
123.087
123.095
123.113
123.1
144.889
144.898
144.919
144.905
172.983
172.993
173.015
173.001
210.039
210.048
210.072
210.058
260.308
260.318
260.343
260.328
330.898
330.908
330.933
330.919
434.395
434.404
434.429
434.415
594.758
594.767
594.791
594.778
862.024
862.032
862.054
862.042
1354.24
1354.25
1354.27
1354.25
2399.35
2399.35
2399.37
2399.36
5103.51
5103.51
5103.53
5103.52
14994.3
14994.3
14994.3
14994.3
86943.4
86943.4
86943.4
86943.4
105.838
105.841
105.846
105.85
123.095
123.098
123.103
123.107
144.899
144.902
144.907
144.912
172.995
172.999
173.003
173.008
210.052
210.055
210.06
210.064
260.322
260.325
260.329
260.334
330.912
330.916
330.918
330.923
434.409
434.412
434.414
434.418
594.772
594.774
594.775
594.779
862.036
862.038
862.037
862.041
1354.25
1354.25
1354.25
1354.25
2399.36
2399.35
2399.35
2399.35
5103.52
5103.52
5103.51
5103.51
14994.3
14994.3
14994.3
14994.3
86943.4
86943.4
86943.4
86943.4
)
;

boundaryField
{
    topWall
    {
        beta1           0.075;
        blended         0;
        type            omegaWallFunction;
        value           nonuniform List<scalar> 8(86943.4 86943.4 86943.4 86943.4 86943.4 86943.4 86943.4 86943.4);
    }
    botWall
    {
        beta1           0.075;
        blended         0;
        type            omegaWallFunction;
        value           nonuniform List<scalar> 0();
    }
    inlet
    {
        type            cyclic;
    }
    outlet
    {
        type            cyclic;
    }
    fixWall
    {
        type            empty;
    }
    procBoundary7to6
    {
        type            processor;
        value           nonuniform List<scalar> 8(91.9655 91.9717 91.9864 91.9749 91.9689 91.9723 91.9762 91.9805);
    }
}


// ************************************************************************* //
