/*--------------------------------*- C++ -*----------------------------------*\
  =========                 |
  \\      /  F ield         | OpenFOAM: The Open Source CFD Toolbox
   \\    /   O peration     | Website:  https://openfoam.org
    \\  /    A nd           | Version:  dev
     \\/     M anipulation  |

   OpenFOAM for Windows 20.09 (v1)
   Built by CFD Support, www.cfdsupport.com (based on Symscape).
\*---------------------------------------------------------------------------*/
FoamFile
{
    version     2.0;
    format      ascii;
    class       volScalarField;
    location    "6";
    object      p;
}
// * * * * * * * * * * * * * * * * * * * * * * * * * * * * * * * * * * * * * //

dimensions      [1 -1 -2 0 0 0 0];

internalField   nonuniform List<scalar> 
120
(
-5.26025
-5.32348
-5.38674
-5.44942
-5.26843
-5.33165
-5.39492
-5.45759
-5.2766
-5.33983
-5.40309
-5.46576
-5.28478
-5.348
-5.41127
-5.47393
-5.29295
-5.35618
-5.41944
-5.48211
-5.30113
-5.36435
-5.42762
-5.49028
-5.3093
-5.37253
-5.43579
-5.49845
-5.31748
-5.3807
-5.44396
-5.50663
-5.32566
-5.38887
-5.45214
-5.5148
-5.33383
-5.39705
-5.46031
-5.52297
-5.34201
-5.40522
-5.46849
-5.53115
-5.35018
-5.4134
-5.47666
-5.53932
-5.35836
-5.42157
-5.48484
-5.5475
-5.36653
-5.42975
-5.49301
-5.55567
-5.37471
-5.43792
-5.50119
-5.56384
-5.51161
-5.57338
-5.63495
-5.69728
-5.51978
-5.58155
-5.64313
-5.70546
-5.52795
-5.58973
-5.6513
-5.71364
-5.53613
-5.5979
-5.65948
-5.72181
-5.5443
-5.60608
-5.66766
-5.72999
-5.55248
-5.61425
-5.67583
-5.73817
-5.56065
-5.62242
-5.68401
-5.74635
-5.56883
-5.6306
-5.69218
-5.75453
-5.577
-5.63877
-5.70036
-5.7627
-5.58518
-5.64695
-5.70853
-5.77088
-5.59335
-5.65512
-5.71671
-5.77906
-5.60153
-5.6633
-5.72489
-5.78724
-5.6097
-5.67147
-5.73306
-5.79541
-5.61788
-5.67965
-5.74124
-5.80359
-5.62605
-5.68782
-5.74941
-5.81176
)
;

boundaryField
{
    topWall
    {
        type            calculated;
        value           nonuniform List<scalar> 8(-5.37879 -5.44201 -5.50527 -5.56793 -5.63014 -5.69191 -5.7535 -5.81585);
    }
    botWall
    {
        type            calculated;
        value           nonuniform List<scalar> 0();
    }
    inlet
    {
        type            cyclic;
    }
    outlet
    {
        type            cyclic;
    }
    fixWall
    {
        type            empty;
    }
    procBoundary7to6
    {
        type            processor;
        value           nonuniform List<scalar> 8(-5.25207 -5.3153 -5.37857 -5.44124 -5.50343 -5.5652 -5.62677 -5.6891);
    }
}


// ************************************************************************* //
