/*--------------------------------*- C++ -*----------------------------------*\
  =========                 |
  \\      /  F ield         | OpenFOAM: The Open Source CFD Toolbox
   \\    /   O peration     | Website:  https://openfoam.org
    \\  /    A nd           | Version:  dev
     \\/     M anipulation  |

   OpenFOAM for Windows 20.09 (v1)
   Built by CFD Support, www.cfdsupport.com (based on Symscape).
\*---------------------------------------------------------------------------*/
FoamFile
{
    version     2.0;
    format      ascii;
    class       volScalarField;
    location    "6";
    object      p_rgh;
}
// * * * * * * * * * * * * * * * * * * * * * * * * * * * * * * * * * * * * * //

dimensions      [1 -1 -2 0 0 0 0];

internalField   nonuniform List<scalar> 
120
(
-4.39779
-4.46102
-4.52428
-4.58695
-4.39779
-4.46102
-4.52428
-4.58695
-4.39779
-4.46102
-4.52428
-4.58695
-4.39779
-4.46102
-4.52428
-4.58695
-4.39779
-4.46101
-4.52428
-4.58694
-4.39779
-4.46101
-4.52428
-4.58694
-4.39779
-4.46101
-4.52428
-4.58694
-4.39779
-4.46101
-4.52428
-4.58694
-4.39779
-4.46101
-4.52428
-4.58694
-4.39779
-4.46101
-4.52428
-4.58694
-4.39779
-4.46101
-4.52428
-4.58693
-4.39779
-4.46101
-4.52427
-4.58693
-4.39779
-4.46101
-4.52427
-4.58693
-4.39779
-4.46101
-4.52427
-4.58693
-4.39779
-4.46101
-4.52427
-4.58693
-4.64914
-4.71092
-4.77249
-4.83482
-4.64914
-4.71092
-4.77249
-4.83482
-4.64914
-4.71092
-4.77249
-4.83482
-4.64914
-4.71091
-4.77249
-4.83483
-4.64914
-4.71091
-4.77249
-4.83483
-4.64914
-4.71091
-4.77249
-4.83483
-4.64914
-4.71091
-4.77249
-4.83484
-4.64914
-4.71091
-4.7725
-4.83484
-4.64914
-4.71091
-4.7725
-4.83484
-4.64914
-4.71091
-4.7725
-4.83484
-4.64914
-4.71091
-4.7725
-4.83485
-4.64914
-4.71091
-4.7725
-4.83485
-4.64914
-4.71091
-4.7725
-4.83485
-4.64914
-4.71091
-4.7725
-4.83485
-4.64914
-4.71091
-4.7725
-4.83485
)
;

boundaryField
{
    topWall
    {
        type            zeroGradient;
    }
    botWall
    {
        type            zeroGradient;
    }
    inlet
    {
        type            fixedJump;
        patchType       cyclic;
        jump            uniform -0.5;
        value           nonuniform List<scalar> 
15
(
-4.3663
-4.3663
-4.36631
-4.36631
-4.36631
-4.36631
-4.36631
-4.36632
-4.36632
-4.36632
-4.36632
-4.36632
-4.36632
-4.36632
-4.36632
)
;
    }
    outlet
    {
        type            fixedJump;
        patchType       cyclic;
        value           nonuniform List<scalar> 
15
(
-4.8663
-4.8663
-4.86631
-4.86631
-4.86631
-4.86631
-4.86631
-4.86632
-4.86632
-4.86632
-4.86632
-4.86632
-4.86632
-4.86632
-4.86632
)
;
    }
    fixWall
    {
        type            empty;
    }
    procBoundary7to6
    {
        type            processor;
        value           nonuniform List<scalar> 8(-4.39779 -4.46101 -4.52428 -4.58696 -4.64914 -4.71092 -4.77249 -4.83481);
    }
}


// ************************************************************************* //
