/*--------------------------------*- C++ -*----------------------------------*\
  =========                 |
  \\      /  F ield         | OpenFOAM: The Open Source CFD Toolbox
   \\    /   O peration     | Website:  https://openfoam.org
    \\  /    A nd           | Version:  dev
     \\/     M anipulation  |

   OpenFOAM for Windows 20.09 (v1)
   Built by CFD Support, www.cfdsupport.com (based on Symscape).
\*---------------------------------------------------------------------------*/
FoamFile
{
    version     2.0;
    format      ascii;
    class       surfaceScalarField;
    location    "6";
    object      phi;
}
// * * * * * * * * * * * * * * * * * * * * * * * * * * * * * * * * * * * * * //

dimensions      [0 3 -1 0 0 0 0];

internalField   nonuniform List<scalar> 
217
(
2.39217e-07
4.06791e-10
2.39273e-07
4.45455e-10
2.3919e-07
-9.6289e-10
-2.40213e-10
2.39194e-07
2.34208e-07
4.20709e-10
2.34259e-07
3.94328e-10
2.3418e-07
-8.84526e-10
-2.40198e-10
2.3418e-07
2.28247e-07
4.3432e-10
2.28294e-07
3.47546e-10
2.28215e-07
-8.05451e-10
-2.34276e-10
2.28209e-07
2.21194e-07
4.32099e-10
2.21237e-07
3.04671e-10
2.21161e-07
-7.29543e-10
-2.23707e-10
2.2115e-07
2.12893e-07
4.25844e-10
2.12932e-07
2.6617e-10
2.12854e-07
-6.51666e-10
-2.0687e-10
2.12837e-07
2.03173e-07
4.02289e-10
2.03209e-07
2.30255e-10
2.03132e-07
-5.75195e-10
-1.86413e-10
2.03112e-07
1.9185e-07
3.67026e-10
1.91886e-07
1.94587e-10
1.91806e-07
-4.95423e-10
-1.61297e-10
1.91781e-07
1.7873e-07
3.16402e-10
1.78765e-07
1.59815e-10
1.78685e-07
-4.15154e-10
-1.35804e-10
1.78659e-07
1.63608e-07
2.57192e-10
1.63642e-07
1.26574e-10
1.63559e-07
-3.32247e-10
-1.08896e-10
1.63532e-07
1.46262e-07
1.9487e-10
1.46292e-07
9.65442e-11
1.46212e-07
-2.52141e-10
-8.38606e-11
1.46187e-07
1.26463e-07
1.34465e-10
1.26491e-07
6.88471e-11
1.26415e-07
-1.76293e-10
-5.97907e-11
1.26391e-07
1.03971e-07
8.17049e-11
1.03996e-07
4.42744e-11
1.0393e-07
-1.10411e-10
-3.95205e-11
1.0391e-07
7.8541e-08
4.00206e-11
7.85627e-08
2.26381e-11
7.85094e-08
-5.71152e-11
-2.22612e-11
7.84921e-08
4.99244e-08
1.20714e-11
4.99405e-08
6.57625e-12
4.99022e-08
-1.88186e-11
-8.6542e-12
4.98886e-08
1.78615e-08
1.78681e-08
1.78492e-08
1.78406e-08
2.39293e-07
5.35592e-10
2.39312e-07
1.98216e-10
2.39319e-07
2.09714e-11
-4.03915e-10
2.34282e-07
4.34036e-10
2.34303e-07
1.76985e-10
2.34294e-07
2.99066e-11
-3.31235e-10
2.28292e-07
3.51424e-10
2.28316e-07
1.52233e-10
2.28327e-07
1.96323e-11
-2.65422e-10
2.21234e-07
2.68031e-10
2.21256e-07
1.30345e-10
2.21246e-07
2.91277e-11
-2.11018e-10
2.12898e-07
2.06668e-10
2.1292e-07
1.08725e-10
2.1293e-07
1.87865e-11
-1.67649e-10
2.03173e-07
1.45449e-10
2.03192e-07
8.98612e-11
2.03183e-07
2.69936e-11
-1.3323e-10
1.91822e-07
1.03831e-10
1.91839e-07
7.27843e-11
1.91842e-07
2.41069e-11
-1.05603e-10
1.78701e-07
6.22629e-11
1.78717e-07
5.62603e-11
1.78706e-07
3.59932e-11
-7.97612e-11
1.6356e-07
3.44365e-11
1.63576e-07
4.0105e-11
1.63572e-07
4.01171e-11
-5.72655e-11
1.46212e-07
1.01941e-11
1.46225e-07
2.62118e-11
1.46219e-07
4.66017e-11
-3.84027e-11
1.26404e-07
-2.95158e-12
1.26416e-07
1.39817e-11
1.26419e-07
4.43543e-11
-2.25976e-11
1.03917e-07
-1.06185e-11
1.03925e-07
5.89382e-12
1.03931e-07
3.89984e-11
-1.03086e-11
7.8492e-08
-1.05645e-11
7.84978e-08
1.24827e-13
7.85094e-08
2.74426e-11
-2.7556e-13
4.9884e-08
-6.01667e-12
4.98853e-08
-1.16513e-12
4.99001e-08
1.26638e-11
3.34779e-12
1.78346e-08
1.78334e-08
1.78461e-08
)
;

boundaryField
{
    topWall
    {
        type            calculated;
        value           uniform 0;
    }
    botWall
    {
        type            calculated;
        value           nonuniform List<scalar> 0();
    }
    inlet
    {
        type            cyclic;
        value           nonuniform List<scalar> 
15
(
-2.3924e-07
-2.34222e-07
-2.28261e-07
-2.21192e-07
-2.12887e-07
-2.03149e-07
-1.91815e-07
-1.7868e-07
-1.63549e-07
-1.462e-07
-1.26403e-07
-1.03918e-07
-7.84993e-08
-4.98965e-08
-1.78494e-08
)
;
    }
    outlet
    {
        type            cyclic;
        value           nonuniform List<scalar> 
15
(
2.3924e-07
2.34222e-07
2.28261e-07
2.21192e-07
2.12887e-07
2.03149e-07
1.91815e-07
1.7868e-07
1.63549e-07
1.462e-07
1.26403e-07
1.03918e-07
7.84993e-08
4.98965e-08
1.78494e-08
)
;
    }
    fixWall
    {
        type            empty;
        value           nonuniform List<scalar> 0();
    }
    procBoundary7to6
    {
        type            processor;
        value           nonuniform List<scalar> 8(-3.83532e-10 -5.01644e-10 1.04466e-09 2.36018e-10 -6.34557e-10 -2.17341e-10 -3.00076e-11 4.82684e-10);
    }
}


// ************************************************************************* //
