/*--------------------------------*- C++ -*----------------------------------*\
  =========                 |
  \\      /  F ield         | OpenFOAM: The Open Source CFD Toolbox
   \\    /   O peration     | Website:  https://openfoam.org
    \\  /    A nd           | Version:  dev
     \\/     M anipulation  |

   OpenFOAM for Windows 20.09 (v1)
   Built by CFD Support, www.cfdsupport.com (based on Symscape).
\*---------------------------------------------------------------------------*/
FoamFile
{
    version     2.0;
    format      ascii;
    class       volSymmTensorField;
    location    "6";
    object      R;
}
// * * * * * * * * * * * * * * * * * * * * * * * * * * * * * * * * * * * * * //

dimensions      [0 2 -2 0 0 0 0];

internalField   nonuniform List<symmTensor> 
120
(
(1.48032e-16 1.38852e-17 -0 1.48027e-16 -0 1.4803e-16)
(1.48025e-16 1.39034e-17 -0 1.48035e-16 -0 1.4803e-16)
(1.48038e-16 1.39069e-17 -0 1.48021e-16 -0 1.4803e-16)
(1.4803e-16 1.38887e-17 -0 1.48029e-16 -0 1.4803e-16)
(1.48031e-16 1.42405e-17 -0 1.48028e-16 -0 1.4803e-16)
(1.48026e-16 1.42555e-17 -0 1.48034e-16 -0 1.4803e-16)
(1.48036e-16 1.42606e-17 -0 1.48023e-16 -0 1.4803e-16)
(1.4803e-16 1.42446e-17 -0 1.4803e-16 -0 1.4803e-16)
(1.4803e-16 1.43544e-17 -0 1.48029e-16 -0 1.48029e-16)
(1.48026e-16 1.43638e-17 -0 1.48033e-16 -0 1.48029e-16)
(1.48035e-16 1.43702e-17 -0 1.48024e-16 -0 1.4803e-16)
(1.4803e-16 1.43566e-17 -0 1.4803e-16 -0 1.48029e-16)
(1.4803e-16 1.41872e-17 -0 1.4803e-16 -0 1.4803e-16)
(1.48027e-16 1.41928e-17 -0 1.48033e-16 -0 1.48029e-16)
(1.48034e-16 1.42003e-17 -0 1.48025e-16 -0 1.4803e-16)
(1.48031e-16 1.41891e-17 -0 1.48029e-16 -0 1.4803e-16)
(1.48029e-16 1.37168e-17 -0 1.4803e-16 -0 1.4803e-16)
(1.48028e-16 1.37168e-17 -0 1.48032e-16 -0 1.4803e-16)
(1.48033e-16 1.37255e-17 -0 1.48026e-16 -0 1.4803e-16)
(1.48031e-16 1.37165e-17 -0 1.48029e-16 -0 1.4803e-16)
(1.48029e-16 1.29272e-17 -0 1.48031e-16 -0 1.4803e-16)
(1.48028e-16 1.29204e-17 -0 1.48031e-16 -0 1.4803e-16)
(1.48033e-16 1.29291e-17 -0 1.48027e-16 -0 1.4803e-16)
(1.48031e-16 1.29218e-17 -0 1.48029e-16 -0 1.4803e-16)
(1.48029e-16 1.18136e-17 -0 1.48031e-16 -0 1.4803e-16)
(1.48029e-16 1.18045e-17 -0 1.48031e-16 -0 1.4803e-16)
(1.48032e-16 1.18136e-17 -0 1.48027e-16 -0 1.4803e-16)
(1.48031e-16 1.18075e-17 -0 1.48029e-16 -0 1.4803e-16)
(1.48028e-16 1.03968e-17 -0 1.48031e-16 -0 1.4803e-16)
(1.48029e-16 1.03909e-17 -0 1.48031e-16 -0 1.4803e-16)
(1.48032e-16 1.03979e-17 -0 1.48028e-16 -0 1.4803e-16)
(1.4803e-16 1.03927e-17 -0 1.48029e-16 -0 1.4803e-16)
(1.48029e-16 8.72823e-18 -0 1.48031e-16 -0 1.4803e-16)
(1.48029e-16 8.7265e-18 -0 1.4803e-16 -0 1.4803e-16)
(1.48031e-16 8.73035e-18 -0 1.48028e-16 -0 1.4803e-16)
(1.4803e-16 8.72614e-18 -0 1.48029e-16 -0 1.4803e-16)
(1.48029e-16 6.88835e-18 -0 1.48031e-16 -0 1.4803e-16)
(1.48029e-16 6.88958e-18 -0 1.4803e-16 -0 1.4803e-16)
(1.48031e-16 6.8902e-18 -0 1.48029e-16 -0 1.4803e-16)
(1.4803e-16 6.88681e-18 -0 1.48029e-16 -0 1.4803e-16)
(1.48029e-16 4.9916e-18 -0 1.4803e-16 -0 1.4803e-16)
(1.4803e-16 4.99364e-18 -0 1.4803e-16 -0 1.4803e-16)
(1.4803e-16 4.9928e-18 -0 1.48029e-16 -0 1.4803e-16)
(1.4803e-16 4.99021e-18 -0 1.4803e-16 -0 1.4803e-16)
(1.48029e-16 3.19209e-18 -0 1.4803e-16 -0 1.4803e-16)
(1.4803e-16 3.19416e-18 -0 1.4803e-16 -0 1.4803e-16)
(1.4803e-16 3.19287e-18 -0 1.48029e-16 -0 1.4803e-16)
(1.4803e-16 3.19113e-18 -0 1.4803e-16 -0 1.4803e-16)
(1.4803e-16 1.69238e-18 -0 1.4803e-16 -0 1.4803e-16)
(1.4803e-16 1.69375e-18 -0 1.4803e-16 -0 1.4803e-16)
(1.4803e-16 1.69291e-18 -0 1.4803e-16 -0 1.4803e-16)
(1.4803e-16 1.69201e-18 -0 1.4803e-16 -0 1.4803e-16)
(1.4803e-16 6.46647e-19 -0 1.4803e-16 -0 1.4803e-16)
(1.4803e-16 6.47294e-19 -0 1.4803e-16 -0 1.4803e-16)
(1.4803e-16 6.46944e-19 -0 1.4803e-16 -0 1.4803e-16)
(1.4803e-16 6.46601e-19 -0 1.4803e-16 -0 1.4803e-16)
(1.4803e-16 1.24569e-19 -0 1.4803e-16 -0 1.4803e-16)
(1.4803e-16 1.24711e-19 -0 1.4803e-16 -0 1.4803e-16)
(1.4803e-16 1.24632e-19 -0 1.4803e-16 -0 1.4803e-16)
(1.4803e-16 1.24539e-19 -0 1.4803e-16 -0 1.4803e-16)
(1.4802e-16 1.39355e-17 -0 1.4804e-16 -0 1.4803e-16)
(1.48028e-16 1.39114e-17 -0 1.48031e-16 -0 1.4803e-16)
(1.4803e-16 1.39005e-17 -0 1.4803e-16 -0 1.4803e-16)
(1.48038e-16 1.39239e-17 -0 1.48022e-16 -0 1.4803e-16)
(1.48021e-16 1.42893e-17 -0 1.48039e-16 -0 1.4803e-16)
(1.48028e-16 1.42873e-17 -0 1.48032e-16 -0 1.4803e-16)
(1.48031e-16 1.4274e-17 -0 1.48029e-16 -0 1.48029e-16)
(1.48036e-16 1.42772e-17 -0 1.48024e-16 -0 1.48029e-16)
(1.48023e-16 1.43955e-17 -0 1.48036e-16 -0 1.48029e-16)
(1.48027e-16 1.4397e-17 -0 1.48032e-16 -0 1.4803e-16)
(1.48029e-16 1.43938e-17 -0 1.4803e-16 -0 1.4803e-16)
(1.48034e-16 1.43972e-17 -0 1.48025e-16 -0 1.48029e-16)
(1.48025e-16 1.42221e-17 -0 1.48034e-16 -0 1.4803e-16)
(1.48028e-16 1.42286e-17 -0 1.48031e-16 -0 1.4803e-16)
(1.4803e-16 1.42277e-17 -0 1.48029e-16 -0 1.48029e-16)
(1.48034e-16 1.42276e-17 -0 1.48026e-16 -0 1.4803e-16)
(1.48027e-16 1.3742e-17 -0 1.48033e-16 -0 1.4803e-16)
(1.48028e-16 1.37504e-17 -0 1.48031e-16 -0 1.4803e-16)
(1.4803e-16 1.37463e-17 -0 1.4803e-16 -0 1.4803e-16)
(1.48032e-16 1.37478e-17 -0 1.48027e-16 -0 1.4803e-16)
(1.48027e-16 1.29404e-17 -0 1.48032e-16 -0 1.4803e-16)
(1.48029e-16 1.29462e-17 -0 1.48031e-16 -0 1.4803e-16)
(1.4803e-16 1.29458e-17 -0 1.4803e-16 -0 1.4803e-16)
(1.48031e-16 1.29549e-17 -0 1.48028e-16 -0 1.4803e-16)
(1.48028e-16 1.18193e-17 -0 1.48031e-16 -0 1.4803e-16)
(1.48029e-16 1.18265e-17 -0 1.4803e-16 -0 1.4803e-16)
(1.4803e-16 1.18214e-17 -0 1.4803e-16 -0 1.4803e-16)
(1.48031e-16 1.18298e-17 -0 1.48029e-16 -0 1.4803e-16)
(1.48029e-16 1.03997e-17 -0 1.48031e-16 -0 1.4803e-16)
(1.48029e-16 1.04029e-17 -0 1.4803e-16 -0 1.4803e-16)
(1.4803e-16 1.04003e-17 -0 1.48029e-16 -0 1.4803e-16)
(1.4803e-16 1.0408e-17 -0 1.48029e-16 -0 1.4803e-16)
(1.48029e-16 8.73041e-18 -0 1.4803e-16 -0 1.4803e-16)
(1.48029e-16 8.73549e-18 -0 1.4803e-16 -0 1.4803e-16)
(1.4803e-16 8.73183e-18 -0 1.4803e-16 -0 1.4803e-16)
(1.4803e-16 8.73252e-18 -0 1.48029e-16 -0 1.4803e-16)
(1.48029e-16 6.8893e-18 -0 1.4803e-16 -0 1.4803e-16)
(1.4803e-16 6.89227e-18 -0 1.4803e-16 -0 1.4803e-16)
(1.4803e-16 6.89078e-18 -0 1.4803e-16 -0 1.4803e-16)
(1.4803e-16 6.88989e-18 -0 1.48029e-16 -0 1.4803e-16)
(1.4803e-16 4.99174e-18 -0 1.4803e-16 -0 1.4803e-16)
(1.4803e-16 4.99413e-18 -0 1.4803e-16 -0 1.4803e-16)
(1.4803e-16 4.99314e-18 -0 1.4803e-16 -0 1.4803e-16)
(1.4803e-16 4.99133e-18 -0 1.4803e-16 -0 1.4803e-16)
(1.4803e-16 3.19198e-18 -0 1.4803e-16 -0 1.4803e-16)
(1.4803e-16 3.19289e-18 -0 1.4803e-16 -0 1.4803e-16)
(1.4803e-16 3.19286e-18 -0 1.4803e-16 -0 1.4803e-16)
(1.4803e-16 3.19165e-18 -0 1.4803e-16 -0 1.4803e-16)
(1.4803e-16 1.69249e-18 -0 1.4803e-16 -0 1.4803e-16)
(1.4803e-16 1.69278e-18 -0 1.4803e-16 -0 1.4803e-16)
(1.4803e-16 1.69292e-18 -0 1.4803e-16 -0 1.4803e-16)
(1.4803e-16 1.69219e-18 -0 1.4803e-16 -0 1.4803e-16)
(1.4803e-16 6.46754e-19 -0 1.4803e-16 -0 1.4803e-16)
(1.4803e-16 6.4674e-19 -0 1.4803e-16 -0 1.4803e-16)
(1.4803e-16 6.4694e-19 -0 1.4803e-16 -0 1.4803e-16)
(1.4803e-16 6.46658e-19 -0 1.4803e-16 -0 1.4803e-16)
(1.4803e-16 1.24543e-19 -0 1.4803e-16 -0 1.4803e-16)
(1.4803e-16 1.24511e-19 -0 1.4803e-16 -0 1.4803e-16)
(1.4803e-16 1.24576e-19 -0 1.4803e-16 -0 1.4803e-16)
(1.4803e-16 1.2456e-19 -0 1.4803e-16 -0 1.4803e-16)
)
;

boundaryField
{
    topWall
    {
        type            kqRWallFunction;
        value           uniform (1.4803e-16 0 -0 1.4803e-16 -0 1.4803e-16);
    }
    botWall
    {
        type            kqRWallFunction;
        value           nonuniform List<symmTensor> 0();
    }
    inlet
    {
        type            cyclic;
    }
    outlet
    {
        type            cyclic;
    }
    fixWall
    {
        type            empty;
    }
    procBoundary7to6
    {
        type            processor;
        value           nonuniform List<symmTensor> 8((1.48032e-16 1.3322e-17 -0 1.48027e-16 -0 1.4803e-16) (1.48024e-16 1.33425e-17 -0 1.48036e-16 -0 1.4803e-16) (1.48039e-16 1.33458e-17 -0 1.4802e-16 -0 1.4803e-16) (1.48029e-16 1.3326e-17 -0 1.48031e-16 -0 1.4803e-16) (1.48017e-16 1.3374e-17 -0 1.48043e-16 -0 1.4803e-16) (1.48028e-16 1.33649e-17 -0 1.48031e-16 -0 1.4803e-16) (1.48031e-16 1.33115e-17 -0 1.48029e-16 -0 1.48029e-16) (1.48038e-16 1.33186e-17 -0 1.48022e-16 -0 1.48029e-16));
    }
}


// ************************************************************************* //
