/*--------------------------------*- C++ -*----------------------------------*\
  =========                 |
  \\      /  F ield         | OpenFOAM: The Open Source CFD Toolbox
   \\    /   O peration     | Website:  https://openfoam.org
    \\  /    A nd           | Version:  dev
     \\/     M anipulation  |

   OpenFOAM for Windows 20.09 (v1)
   Built by CFD Support, www.cfdsupport.com (based on Symscape).
\*---------------------------------------------------------------------------*/
FoamFile
{
    version     2.0;
    format      ascii;
    class       volVectorField;
    location    "6";
    object      U;
}
// * * * * * * * * * * * * * * * * * * * * * * * * * * * * * * * * * * * * * //

dimensions      [0 1 -1 0 0 0 0];

internalField   nonuniform List<vector> 
120
(
(0.286991 8.02581e-06 0)
(0.287126 9.48444e-06 0)
(0.287117 -2.00014e-05 0)
(0.286941 -4.72058e-06 0)
(0.280987 8.56515e-06 0)
(0.281108 8.7583e-06 0)
(0.281102 -1.83365e-05 0)
(0.280933 -4.25889e-06 0)
(0.273835 8.7612e-06 0)
(0.273955 7.82483e-06 0)
(0.273939 -1.68475e-05 0)
(0.273779 -4.91457e-06 0)
(0.265375 8.65903e-06 0)
(0.265486 6.58094e-06 0)
(0.265471 -1.53676e-05 0)
(0.265318 -4.65786e-06 0)
(0.255413 8.68242e-06 0)
(0.255526 5.61723e-06 0)
(0.255498 -1.38174e-05 0)
(0.255353 -4.31055e-06 0)
(0.24375 8.3141e-06 0)
(0.24386 4.97641e-06 0)
(0.243828 -1.22894e-05 0)
(0.243691 -3.97244e-06 0)
(0.230155 7.80093e-06 0)
(0.230281 4.2331e-06 0)
(0.230233 -1.07122e-05 0)
(0.230104 -3.47726e-06 0)
(0.214408 6.8424e-06 0)
(0.214541 3.53853e-06 0)
(0.214484 -9.11007e-06 0)
(0.214362 -2.97512e-06 0)
(0.196256 5.79484e-06 0)
(0.1964 2.85386e-06 0)
(0.196328 -7.47765e-06 0)
(0.196216 -2.44913e-06 0)
(0.175443 4.49588e-06 0)
(0.175583 2.21556e-06 0)
(0.175507 -5.82053e-06 0)
(0.175405 -1.91997e-06 0)
(0.151686 3.29397e-06 0)
(0.151822 1.64306e-06 0)
(0.151744 -4.2529e-06 0)
(0.151654 -1.42424e-06 0)
(0.124704 2.09599e-06 0)
(0.124823 1.1124e-06 0)
(0.124755 -2.80433e-06 0)
(0.12468 -9.78384e-07 0)
(0.0941977 1.16547e-06 0)
(0.0942967 6.54485e-07 0)
(0.0942418 -1.60529e-06 0)
(0.0941835 -5.99509e-07 0)
(0.0598738 4.70866e-07 0)
(0.0599408 2.39958e-07 0)
(0.0599045 -7.08e-07 0)
(0.0598636 -3.42646e-07 0)
(0.0214193 3.8095e-08 0)
(0.0214455 6.35662e-08 0)
(0.0214299 -9.36487e-08 0)
(0.0214103 -2.41297e-08 0)
(0.287127 1.17091e-05 0)
(0.287181 4.15449e-06 0)
(0.287186 5.23085e-07 0)
(0.287178 -8.8369e-06 0)
(0.281101 9.90349e-06 0)
(0.28118 4.19454e-06 0)
(0.281165 6.39679e-07 0)
(0.281138 -7.10731e-06 0)
(0.273924 7.48283e-06 0)
(0.27398 3.40079e-06 0)
(0.273997 5.82287e-07 0)
(0.273985 -6.54835e-06 0)
(0.265444 6.08643e-06 0)
(0.265521 2.84136e-06 0)
(0.26551 3.79338e-07 0)
(0.265478 -4.8465e-06 0)
(0.255456 4.72319e-06 0)
(0.255504 2.36239e-06 0)
(0.255521 5.84531e-07 0)
(0.255509 -3.65599e-06 0)
(0.243778 3.4712e-06 0)
(0.243841 2.01035e-06 0)
(0.243836 3.70732e-07 0)
(0.243802 -3.00918e-06 0)
(0.230171 2.43606e-06 0)
(0.230207 1.58655e-06 0)
(0.230225 5.59068e-07 0)
(0.230194 -2.35954e-06 0)
(0.21442 1.64631e-06 0)
(0.214466 1.3101e-06 0)
(0.214473 5.38316e-07 0)
(0.214417 -1.81781e-06 0)
(0.196261 9.01659e-07 0)
(0.196286 9.3835e-07 0)
(0.196313 8.12726e-07 0)
(0.196256 -1.36443e-06 0)
(0.175445 4.33971e-07 0)
(0.175467 6.68351e-07 0)
(0.175491 8.4811e-07 0)
(0.175432 -9.30239e-07 0)
(0.151684 1.50103e-08 0)
(0.15169 3.75465e-07 0)
(0.151726 9.60976e-07 0)
(0.151675 -6.03606e-07 0)
(0.124704 -1.51381e-07 0)
(0.124702 1.89051e-07 0)
(0.124736 8.38225e-07 0)
(0.124695 -3.06461e-07 0)
(0.0941978 -2.52642e-07 0)
(0.0941875 4.07007e-08 0)
(0.0942244 6.92002e-07 0)
(0.0941949 -9.10528e-08 0)
(0.0598692 -1.77759e-07 0)
(0.0598569 -4.35519e-08 0)
(0.0598851 4.27139e-07 0)
(0.059872 1.35791e-07 0)
(0.0214074 -6.76385e-08 0)
(0.0213986 -1.41245e-08 0)
(0.0214131 1.09193e-07 0)
(0.0214154 -1.14812e-08 0)
)
;

boundaryField
{
    topWall
    {
        type            noSlip;
    }
    botWall
    {
        type            noSlip;
    }
    inlet
    {
        type            cyclic;
    }
    outlet
    {
        type            cyclic;
    }
    fixWall
    {
        type            empty;
    }
    procBoundary7to6
    {
        type            processor;
        value           nonuniform List<vector> 8((0.292017 7.36753e-06 0) (0.292153 1.05568e-05 0) (0.292151 -2.17469e-05 0) (0.291968 -4.66282e-06 0) (0.292172 1.37667e-05 0) (0.292231 4.50976e-06 0) (0.292209 6.3766e-07 0) (0.292201 -1.03347e-05 0));
    }
}


// ************************************************************************* //
