/*--------------------------------*- C++ -*----------------------------------*\
  =========                 |
  \\      /  F ield         | OpenFOAM: The Open Source CFD Toolbox
   \\    /   O peration     | Website:  https://openfoam.org
    \\  /    A nd           | Version:  dev
     \\/     M anipulation  |

   OpenFOAM for Windows 20.09 (v1)
   Built by CFD Support, www.cfdsupport.com (based on Symscape).
\*---------------------------------------------------------------------------*/
FoamFile
{
    version     2.0;
    format      ascii;
    class       volVectorField;
    location    "6";
    object      UMean;
}
// * * * * * * * * * * * * * * * * * * * * * * * * * * * * * * * * * * * * * //

dimensions      [0 1 -1 0 0 0 0];

internalField   nonuniform List<vector> 
120
(
(0.219789 7.89889e-06 0)
(0.219881 1.65479e-06 0)
(0.219874 -7.28431e-06 0)
(0.219771 -5.57818e-07 0)
(0.216268 7.95188e-06 0)
(0.21634 1.12394e-06 0)
(0.216335 -6.32623e-06 0)
(0.216248 -5.98974e-07 0)
(0.211925 7.55771e-06 0)
(0.211996 7.73123e-07 0)
(0.211986 -5.76605e-06 0)
(0.211909 -7.38178e-07 0)
(0.206622 7.54433e-06 0)
(0.206678 3.15169e-07 0)
(0.206668 -4.96245e-06 0)
(0.206607 -6.91751e-07 0)
(0.200166 7.22252e-06 0)
(0.200223 3.0648e-08 0)
(0.200206 -4.49104e-06 0)
(0.200156 -5.52163e-07 0)
(0.192369 6.71987e-06 0)
(0.192424 -1.98945e-07 0)
(0.1924 -3.86034e-06 0)
(0.192362 -5.172e-07 0)
(0.183005 6.04175e-06 0)
(0.183066 -2.69373e-07 0)
(0.183029 -3.42341e-06 0)
(0.183003 -3.84101e-07 0)
(0.171837 5.19179e-06 0)
(0.171899 -3.93274e-07 0)
(0.171854 -2.797e-06 0)
(0.171833 -2.91428e-07 0)
(0.158596 4.25247e-06 0)
(0.158659 -3.91227e-07 0)
(0.15861 -2.32977e-06 0)
(0.158595 -2.07778e-07 0)
(0.142999 3.30928e-06 0)
(0.143057 -4.18023e-07 0)
(0.143008 -1.73256e-06 0)
(0.142996 -1.30786e-07 0)
(0.124737 2.41656e-06 0)
(0.124789 -3.55679e-07 0)
(0.124741 -1.29711e-06 0)
(0.124733 -8.7416e-08 0)
(0.103485 1.59782e-06 0)
(0.103529 -2.98888e-07 0)
(0.103487 -8.13885e-07 0)
(0.103481 -5.06145e-08 0)
(0.0789016 9.22537e-07 0)
(0.0789364 -2.15334e-07 0)
(0.0789031 -4.79717e-07 0)
(0.0788982 -2.52866e-08 0)
(0.0506348 3.86723e-07 0)
(0.0506576 -1.35485e-07 0)
(0.0506348 -1.92454e-07 0)
(0.0506309 2.95878e-10 0)
(0.018321 6.38017e-08 0)
(0.0183293 -3.32656e-08 0)
(0.0183193 -2.63342e-08 0)
(0.0183176 2.17221e-09 0)
(0.219875 5.02538e-06 0)
(0.219902 2.0962e-06 0)
(0.219898 -3.40379e-06 0)
(0.219884 -5.55358e-06 0)
(0.216341 4.01652e-06 0)
(0.216368 2.11144e-06 0)
(0.216356 -3.19328e-06 0)
(0.216346 -4.48436e-06 0)
(0.211979 2.8388e-06 0)
(0.212003 1.77365e-06 0)
(0.212006 -3.19517e-06 0)
(0.21199 -4.02925e-06 0)
(0.206666 2.38006e-06 0)
(0.206691 1.73801e-06 0)
(0.206683 -2.91087e-06 0)
(0.206665 -3.18561e-06 0)
(0.20019 1.6843e-06 0)
(0.200214 1.5009e-06 0)
(0.200221 -2.78437e-06 0)
(0.200192 -2.68417e-06 0)
(0.192387 1.28142e-06 0)
(0.192413 1.35167e-06 0)
(0.19241 -2.52895e-06 0)
(0.192368 -2.1989e-06 0)
(0.183013 8.73675e-07 0)
(0.183032 1.07766e-06 0)
(0.183043 -2.20584e-06 0)
(0.182989 -1.8021e-06 0)
(0.171842 6.73776e-07 0)
(0.171863 9.3349e-07 0)
(0.171868 -1.78903e-06 0)
(0.171806 -1.42232e-06 0)
(0.158597 4.13645e-07 0)
(0.158612 6.66793e-07 0)
(0.158624 -1.37287e-06 0)
(0.158561 -1.12687e-06 0)
(0.142998 2.97673e-07 0)
(0.143013 5.2048e-07 0)
(0.143021 -9.52749e-07 0)
(0.142961 -8.13922e-07 0)
(0.124734 1.47081e-07 0)
(0.124742 3.21556e-07 0)
(0.124754 -6.06133e-07 0)
(0.124702 -5.93759e-07 0)
(0.103481 9.20678e-08 0)
(0.103487 2.16669e-07 0)
(0.103496 -3.20879e-07 0)
(0.103454 -3.81209e-07 0)
(0.0788972 4.28103e-08 0)
(0.078899 1.11707e-07 0)
(0.0789095 -1.33427e-07 0)
(0.0788781 -2.47111e-07 0)
(0.0506305 3.82709e-08 0)
(0.0506317 3.67599e-08 0)
(0.0506395 -3.7755e-08 0)
(0.0506196 -8.01169e-08 0)
(0.0183179 5.18312e-09 0)
(0.0183185 2.12186e-08 0)
(0.018322 1.36686e-08 0)
(0.018315 -5.34786e-08 0)
)
;

boundaryField
{
    topWall
    {
        type            calculated;
        value           uniform (0 0 0);
    }
    botWall
    {
        type            calculated;
        value           nonuniform List<vector> 0();
    }
    inlet
    {
        type            cyclic;
    }
    outlet
    {
        type            cyclic;
    }
    fixWall
    {
        type            empty;
    }
    procBoundary7to6
    {
        type            processor;
        value           nonuniform List<vector> 8((0.222642 8.00391e-06 0) (0.222735 2.17641e-06 0) (0.222731 -8.24064e-06 0) (0.22262 -5.51723e-07 0) (0.222746 6.28851e-06 0) (0.222774 2.29719e-06 0) (0.222756 -3.45529e-06 0) (0.222747 -6.64433e-06 0));
    }
}


// ************************************************************************* //
