/*--------------------------------*- C++ -*----------------------------------*\
  =========                 |
  \\      /  F ield         | OpenFOAM: The Open Source CFD Toolbox
   \\    /   O peration     | Website:  https://openfoam.org
    \\  /    A nd           | Version:  dev
     \\/     M anipulation  |

   OpenFOAM for Windows 20.09 (v1)
   Built by CFD Support, www.cfdsupport.com (based on Symscape).
\*---------------------------------------------------------------------------*/
FoamFile
{
    version     2.0;
    format      ascii;
    class       volSymmTensorField;
    location    "6";
    object      UPrime2Mean;
}
// * * * * * * * * * * * * * * * * * * * * * * * * * * * * * * * * * * * * * //

dimensions      [0 2 -2 0 0 0 0];

internalField   nonuniform List<symmTensor> 
120
(
(0.00210339 3.5872e-08 0 1.73023e-12 0 0)
(0.00210621 1.19553e-07 0 2.41205e-11 0 0)
(0.00210601 -2.99573e-07 0 5.33099e-11 0 0)
(0.00210146 -2.8145e-08 0 1.18416e-11 0 0)
(0.00195805 3.75551e-08 0 1.14137e-12 0 0)
(0.00196074 1.08209e-07 0 2.35751e-11 0 0)
(0.0019606 -2.73504e-07 0 4.76083e-11 0 0)
(0.001956 -1.9919e-08 0 9.81922e-12 0 0)
(0.00179843 5.27561e-08 0 1.94489e-12 0 0)
(0.00180074 8.88842e-08 0 2.12817e-11 0 0)
(0.00180035 -2.35606e-07 0 4.02028e-11 0 0)
(0.00179618 -2.8645e-08 0 1.12269e-11 0 0)
(0.00162592 4.73929e-08 0 1.75661e-12 0 0)
(0.00162805 7.30222e-08 0 1.71083e-11 0 0)
(0.00162776 -2.12313e-07 0 3.55557e-11 0 0)
(0.00162365 -2.72292e-08 0 9.78642e-12 0 0)
(0.00144304 5.66669e-08 0 2.74945e-12 0 0)
(0.00144502 5.68739e-08 0 1.43601e-11 0 0)
(0.00144444 -1.75834e-07 0 2.84278e-11 0 0)
(0.00144063 -2.25646e-08 0 9.06837e-12 0 0)
(0.00125258 5.12492e-08 0 2.36341e-12 0 0)
(0.00125441 4.90418e-08 0 1.22758e-11 0 0)
(0.00125377 -1.50169e-07 0 2.33157e-11 0 0)
(0.00125033 -2.02699e-08 0 7.43196e-12 0 0)
(0.00105857 5.19379e-08 0 2.8631e-12 0 0)
(0.00106057 3.80615e-08 0 9.46238e-12 0 0)
(0.0010595 -1.17222e-07 0 1.73583e-11 0 0)
(0.00105653 -1.68311e-08 0 5.89189e-12 0 0)
(0.000865837 4.21431e-08 0 2.23203e-12 0 0)
(0.000867766 3.02924e-08 0 7.14634e-12 0 0)
(0.000866699 -9.27273e-08 0 1.30567e-11 0 0)
(0.000864286 -1.52958e-08 0 4.06379e-12 0 0)
(0.00067969 3.50681e-08 0 1.97162e-12 0 0)
(0.000681691 2.24585e-08 0 4.80241e-12 0 0)
(0.000680343 -6.65731e-08 0 8.67036e-12 0 0)
(0.000678339 -1.2568e-08 0 2.64349e-12 0 0)
(0.00050584 2.40431e-08 0 1.26982e-12 0 0)
(0.000507599 1.62575e-08 0 3.07613e-12 0 0)
(0.00050642 -4.5727e-08 0 5.47256e-12 0 0)
(0.000504801 -1.05295e-08 0 1.46493e-12 0 0)
(0.000349869 1.54293e-08 0 7.77178e-13 0 0)
(0.000351404 1.06274e-08 0 1.72199e-12 0 0)
(0.00035041 -2.73726e-08 0 2.85833e-12 0 0)
(0.000349134 -7.48257e-09 0 7.37771e-13 0 0)
(0.000217357 7.8934e-09 0 3.60524e-13 0 0)
(0.000218442 5.94061e-09 0 8.54096e-13 0 0)
(0.000217776 -1.44181e-08 0 1.29415e-12 0 0)
(0.000216899 -4.80793e-09 0 3.15395e-13 0 0)
(0.000113156 3.21344e-09 0 1.27615e-13 0 0)
(0.000113821 2.72098e-09 0 3.16943e-13 0 0)
(0.000113434 -5.77277e-09 0 4.12587e-13 0 0)
(0.000112922 -2.46792e-09 0 1.11227e-13 0 0)
(4.13296e-05 8.63705e-10 0 2.9793e-14 0 0)
(4.16048e-05 7.24765e-10 0 5.8102e-14 0 0)
(4.14551e-05 -1.49465e-09 0 8.66707e-14 0 0)
(4.12332e-05 -1.00862e-09 0 3.8269e-14 0 0)
(4.64639e-06 1.22432e-11 0 1.16838e-15 0 0)
(4.68533e-06 5.77833e-11 0 4.11249e-15 0 0)
(4.66627e-06 -6.43163e-11 0 1.48248e-15 0 0)
(4.6304e-06 -4.54913e-11 0 4.63423e-16 0 0)
(0.00210678 2.28711e-07 0 2.52386e-11 0 0)
(0.00210847 -2.05896e-08 0 8.13749e-12 0 0)
(0.00210825 6.47416e-08 0 5.71754e-12 0 0)
(0.00210841 -9.02259e-08 0 4.0366e-12 0 0)
(0.00196105 1.93162e-07 0 1.92844e-11 0 0)
(0.00196368 -1.63548e-08 0 7.48097e-12 0 0)
(0.0019627 6.1792e-08 0 5.37921e-12 0 0)
(0.00196213 -6.50706e-08 0 2.39814e-12 0 0)
(0.00180078 1.5219e-07 0 1.32318e-11 0 0)
(0.00180264 -2.35125e-08 0 6.58386e-12 0 0)
(0.00180255 6.3215e-08 0 4.94083e-12 0 0)
(0.00180265 -5.86512e-08 0 2.17534e-12 0 0)
(0.00162764 1.16331e-07 0 8.57107e-12 0 0)
(0.00162995 -3.10689e-08 0 5.78869e-12 0 0)
(0.00162923 5.07539e-08 0 3.81356e-12 0 0)
(0.001629 -3.30022e-08 0 8.99919e-13 0 0)
(0.00144437 9.27528e-08 0 6.227e-12 0 0)
(0.00144532 -3.14835e-08 0 5.1282e-12 0 0)
(0.00144519 5.05043e-08 0 3.91461e-12 0 0)
(0.00144614 -1.67662e-08 0 3.08175e-13 0 0)
(0.00125374 6.58344e-08 0 3.724e-12 0 0)
(0.00125473 -2.90701e-08 0 4.21021e-12 0 0)
(0.00125401 3.79538e-08 0 3.01479e-12 0 0)
(0.00125466 -1.10996e-08 0 2.28666e-13 0 0)
(0.00105955 4.63432e-08 0 2.28316e-12 0 0)
(0.00105965 -2.54711e-08 0 3.37876e-12 0 0)
(0.00105941 3.35372e-08 0 2.72018e-12 0 0)
(0.00106029 -5.75032e-09 0 1.24451e-13 0 0)
(0.000866742 3.04981e-08 0 1.35391e-12 0 0)
(0.000866946 -1.98345e-08 0 2.31281e-12 0 0)
(0.000866512 2.47001e-08 0 1.96662e-12 0 0)
(0.000866802 -2.68867e-09 0 7.90097e-14 0 0)
(0.000680386 1.82212e-08 0 7.61587e-13 0 0)
(0.0006802 -1.52785e-08 0 1.60626e-12 0 0)
(0.000680131 2.12801e-08 0 1.69161e-12 0 0)
(0.000680331 -7.76455e-10 0 3.92227e-14 0 0)
(0.00050634 9.68442e-09 0 4.20544e-13 0 0)
(0.000506188 -1.04907e-08 0 8.94058e-13 0 0)
(0.000506106 1.52831e-08 0 1.13946e-12 0 0)
(0.000506141 4.74499e-10 0 2.21396e-14 0 0)
(0.000350194 3.90632e-09 0 2.30474e-13 0 0)
(0.000349922 -7.01395e-09 0 4.93319e-13 0 0)
(0.000350032 1.16218e-08 0 8.38046e-13 0 0)
(0.000350063 8.31293e-10 0 7.44943e-15 0 0)
(0.000217561 1.05562e-09 0 1.24453e-13 0 0)
(0.000217336 -3.86765e-09 0 1.90686e-13 0 0)
(0.000217437 7.01843e-09 0 4.50531e-13 0 0)
(0.000217469 9.61339e-10 0 4.61585e-15 0 0)
(0.000113256 -2.62011e-10 0 6.76507e-14 0 0)
(0.000113081 -1.91778e-09 0 6.76631e-14 0 0)
(0.00011321 3.799e-09 0 2.2413e-13 0 0)
(0.00011324 7.87111e-10 0 7.92071e-15 0 0)
(4.13359e-05 -3.96221e-10 0 1.98719e-14 0 0)
(4.12418e-05 -6.44599e-10 0 1.41054e-14 0 0)
(4.13101e-05 1.31143e-09 0 7.08139e-14 0 0)
(4.13545e-05 6.23455e-10 0 1.52058e-14 0 0)
(4.63112e-06 -3.60304e-11 0 2.62575e-15 0 0)
(4.61049e-06 -4.48857e-11 0 4.65167e-16 0 0)
(4.62442e-06 1.0953e-10 0 3.08728e-15 0 0)
(4.64244e-06 1.47195e-11 0 1.07608e-15 0 0)
)
;

boundaryField
{
    topWall
    {
        type            calculated;
        value           uniform (0 0 0 0 0 0);
    }
    botWall
    {
        type            calculated;
        value           nonuniform List<symmTensor> 0();
    }
    inlet
    {
        type            cyclic;
    }
    outlet
    {
        type            cyclic;
    }
    fixWall
    {
        type            empty;
    }
    procBoundary7to6
    {
        type            processor;
        value           nonuniform List<symmTensor> 8((0.00223369 2.25046e-08 0 2.16258e-12 0 0) (0.00223701 1.35218e-07 0 2.71709e-11 0 0) (0.00223701 -3.34338e-07 0 6.06064e-11 0 0) (0.00223197 -2.93538e-08 0 1.1496e-11 0 0) (0.00223729 2.66717e-07 0 3.24881e-11 0 0) (0.00223875 -1.85579e-08 0 8.59629e-12 0 0) (0.00223804 7.20809e-08 0 6.06411e-12 0 0) (0.00223843 -1.09453e-07 0 5.44597e-12 0 0));
    }
}


// ************************************************************************* //
