/*--------------------------------*- C++ -*----------------------------------*\
  =========                 |
  \\      /  F ield         | OpenFOAM: The Open Source CFD Toolbox
   \\    /   O peration     | Website:  https://openfoam.org
    \\  /    A nd           | Version:  dev
     \\/     M anipulation  |

   OpenFOAM for Windows 20.09 (v1)
   Built by CFD Support, www.cfdsupport.com (based on Symscape).
\*---------------------------------------------------------------------------*/
FoamFile
{
    version     2.0;
    format      ascii;
    class       surfaceScalarField;
    location    "2";
    object      alphaPhi0.water;
}
// * * * * * * * * * * * * * * * * * * * * * * * * * * * * * * * * * * * * * //

dimensions      [0 3 -1 0 0 0 0];

internalField   nonuniform List<scalar> 
217
(
5.77744e-11
-6.40284e-16
5.56275e-11
-1.97382e-15
2.26972e-10
-1.06918e-16
3.73088e-13
3.2628e-10
1.07716e-13
-3.19046e-18
1.23079e-14
-4.53055e-18
4.75965e-15
-2.01962e-20
4.48239e-16
3.99447e-13
3.14564e-16
-7.37674e-21
5.91444e-17
-8.56371e-21
1.81025e-17
1.666e-22
1.76976e-19
5.01835e-16
7.17506e-19
-1.07599e-23
2.3306e-19
-1.11104e-23
7.66235e-20
2.10621e-24
8.07175e-26
2.97289e-19
1.48884e-21
-1.62593e-26
7.82399e-22
-1.71354e-26
2.3232e-22
8.06389e-27
-7.05322e-28
1.59656e-22
3.14591e-24
-3.07574e-29
2.25049e-24
-2.80142e-29
7.89033e-25
2.0105e-29
-4.91849e-30
4.3257e-25
6.4084e-27
-5.93868e-32
5.35343e-27
-4.71634e-32
2.56521e-27
4.83654e-32
-1.80947e-32
1.19597e-27
1.31129e-29
-1.17569e-34
1.26018e-29
-8.45916e-35
7.19545e-30
1.09953e-34
-5.38865e-35
3.48289e-30
2.85387e-32
-2.42408e-37
2.86691e-32
-1.57085e-37
1.8635e-32
2.36333e-37
-1.40356e-37
1.02163e-32
6.22541e-35
-5.1474e-40
6.31622e-35
-2.99317e-40
4.31828e-35
5.10267e-40
-3.32864e-40
2.53282e-35
1.34227e-37
-1.09193e-42
1.38192e-37
-5.81659e-43
9.71754e-38
1.08649e-42
-7.3183e-43
5.95267e-38
2.87055e-40
-2.28165e-45
2.99233e-40
-1.18333e-45
2.13829e-40
2.22811e-45
-1.52466e-45
1.33522e-40
6.08256e-43
-4.60079e-48
6.3812e-43
-2.42939e-48
4.6016e-43
4.29435e-48
-3.0168e-48
2.90413e-43
1.2746e-45
-8.87223e-51
1.33714e-45
-4.82935e-51
9.66262e-46
7.87781e-51
-5.73445e-51
6.12105e-46
2.6185e-48
2.73208e-48
1.97233e-48
1.25126e-48
1.03537e-10
1.36464e-14
7.8966e-11
1.83844e-15
8.99912e-11
-8.70585e-16
2.60634e-13
3.70188e-13
3.36245e-18
1.02729e-13
1.42531e-18
2.60116e-14
-1.51491e-18
4.52805e-16
6.83996e-16
2.17221e-22
3.3871e-16
2.88311e-21
8.70537e-17
-1.91338e-21
6.38137e-19
5.27644e-19
-8.99502e-25
4.95205e-19
2.02829e-24
2.78834e-19
-1.1831e-24
8.4065e-22
4.3539e-22
-1.33387e-27
4.53304e-22
1.94294e-27
3.83814e-22
-8.71367e-28
1.09066e-24
4.62074e-25
-2.91727e-30
4.13765e-25
1.91354e-30
4.90023e-25
-7.33551e-31
1.61931e-27
6.67689e-28
-6.84959e-33
4.77428e-28
5.11622e-33
6.25721e-28
-6.62952e-34
1.99083e-30
1.21056e-30
-1.6095e-35
6.5629e-31
5.14835e-36
8.58227e-31
-5.8853e-37
2.22489e-33
2.65559e-33
-3.69533e-38
1.28488e-33
1.13893e-38
1.35474e-33
-3.55525e-40
2.29588e-36
6.25999e-36
-8.3091e-41
2.76963e-36
2.51149e-41
2.30511e-36
7.485e-43
1.84295e-39
1.51953e-38
-1.74592e-43
6.26829e-39
5.48877e-44
4.08504e-39
3.79075e-45
6.10871e-43
3.61383e-41
-3.47458e-46
1.46275e-41
9.56026e-47
7.89616e-42
1.26596e-47
9.86364e-47
8.04117e-44
-6.2068e-49
3.2257e-44
1.33282e-49
1.76275e-44
3.10851e-50
7.00691e-49
1.71119e-46
-1.03907e-51
6.70292e-47
1.41135e-52
3.72891e-47
6.36413e-53
4.52436e-52
3.50364e-49
1.33677e-49
7.47936e-50
)
;

boundaryField
{
    topWall
    {
        type            calculated;
        value           nonuniform List<scalar> 0();
    }
    botWall
    {
        type            calculated;
        value           nonuniform List<scalar> 0();
    }
    inlet
    {
        type            cyclic;
        value           nonuniform List<scalar> 
15
(
-2.7629e-13
-1.98773e-10
-5.34533e-16
-8.36908e-19
-1.14774e-21
-1.52528e-24
-2.23003e-27
-2.88931e-30
-3.67009e-33
-4.86596e-36
-7.03131e-39
-1.09402e-41
-1.93108e-44
-3.74915e-47
-7.32737e-50
)
;
    }
    outlet
    {
        type            cyclic;
        value           nonuniform List<scalar> 
15
(
2.7629e-13
1.98773e-10
5.34533e-16
8.36908e-19
1.14774e-21
1.52528e-24
2.23003e-27
2.88931e-30
3.67009e-33
4.86596e-36
7.03131e-39
1.09402e-41
1.93108e-44
3.74915e-47
7.32737e-50
)
;
    }
    fixWall
    {
        type            empty;
        value           nonuniform List<scalar> 0();
    }
    procBoundary4to3
    {
        type            processor;
        value           nonuniform List<scalar> 8(3.86473e-13 3.79455e-12 3.101e-12 -4.52214e-10 -3.99851e-10 -2.15803e-10 2.39647e-12 -4.99721e-10);
    }
    procBoundary4to5
    {
        type            processor;
        value           nonuniform List<scalar> 8(-6.12892e-56 -6.13678e-57 1.00254e-51 -2.32855e-54 -2.50075e-55 3.9782e-56 6.98735e-56 7.09178e-53);
    }
}


// ************************************************************************* //
