/*--------------------------------*- C++ -*----------------------------------*\
  =========                 |
  \\      /  F ield         | OpenFOAM: The Open Source CFD Toolbox
   \\    /   O peration     | Website:  https://openfoam.org
    \\  /    A nd           | Version:  dev
     \\/     M anipulation  |

   OpenFOAM for Windows 20.09 (v1)
   Built by CFD Support, www.cfdsupport.com (based on Symscape).
\*---------------------------------------------------------------------------*/
FoamFile
{
    version     2.0;
    format      ascii;
    class       volSymmTensorField;
    location    "2";
    object      devReff;
}
// * * * * * * * * * * * * * * * * * * * * * * * * * * * * * * * * * * * * * //

dimensions      [0 2 -2 0 0 0 0];

internalField   nonuniform List<symmTensor> 
120
(
(1.58642e-07 -0.0031117 -0 -2.72658e-07 -0 1.14017e-07)
(1.85172e-07 -0.00311892 -0 -8.35033e-08 -0 -1.01669e-07)
(1.50119e-07 -0.00307647 -0 -3.74736e-07 -0 2.24617e-07)
(-2.94224e-07 -0.00303037 -0 3.16294e-07 -0 -2.20696e-08)
(-1.65838e-06 -0.00484184 -0 1.93844e-06 -0 -2.80057e-07)
(1.51401e-06 -0.00484522 -0 -1.67744e-06 -0 1.63436e-07)
(2.20434e-06 -0.00481433 -0 -1.70306e-06 -0 -5.01278e-07)
(-6.58881e-07 -0.00478926 -0 7.86812e-07 -0 -1.27931e-07)
(-4.20204e-07 -0.00415114 -0 6.22502e-08 -0 3.57954e-07)
(9.9383e-07 -0.00414825 -0 -7.8147e-07 -0 -2.1236e-07)
(1.93636e-06 -0.00416157 -0 -2.08027e-06 -0 1.43912e-07)
(-6.83445e-07 -0.00419628 -0 5.51502e-07 -0 1.31943e-07)
(-7.07112e-07 -0.00350454 -0 9.67438e-07 -0 -2.60325e-07)
(1.26624e-06 -0.00350348 -0 -1.52796e-06 -0 2.61723e-07)
(1.29334e-06 -0.00351714 -0 -1.48171e-06 -0 1.88376e-07)
(-8.95811e-07 -0.00353854 -0 9.58718e-07 -0 -6.29068e-08)
(-1.04084e-07 -0.00293388 -0 4.84682e-08 -0 5.56156e-08)
(6.76529e-07 -0.00293369 -0 -5.64739e-07 -0 -1.1179e-07)
(5.14585e-07 -0.00294513 -0 -4.05492e-07 -0 -1.09093e-07)
(-8.20143e-07 -0.00295641 -0 8.31857e-07 -0 -1.17145e-08)
(-9.25193e-08 -0.00243361 -0 8.93037e-08 -0 3.2156e-09)
(6.4675e-07 -0.002434 -0 -6.63544e-07 -0 1.67939e-08)
(3.72109e-07 -0.00244387 -0 -3.98238e-07 -0 2.6129e-08)
(-6.65294e-07 -0.00244725 -0 6.42295e-07 -0 2.29985e-08)
(-1.17021e-07 -0.00199987 -0 2.20204e-07 -0 -1.03183e-07)
(5.58703e-07 -0.00199976 -0 -6.6957e-07 -0 1.10867e-07)
(2.15887e-07 -0.00200863 -0 -2.50525e-07 -0 3.46384e-08)
(-6.06042e-07 -0.00200775 -0 6.93527e-07 -0 -8.74847e-08)
(1.2501e-07 -0.00162731 -0 -2.47046e-07 -0 1.22036e-07)
(2.4299e-07 -0.00162733 -0 -1.48145e-07 -0 -9.48448e-08)
(4.87509e-08 -0.00163472 -0 -1.96886e-08 -0 -2.90624e-08)
(-2.83121e-07 -0.00163188 -0 1.96905e-07 -0 8.62163e-08)
(-1.7901e-07 -0.00131075 -0 3.58943e-07 -0 -1.79933e-07)
(3.19986e-07 -0.00131133 -0 -4.38073e-07 -0 1.18088e-07)
(6.17268e-08 -0.00131784 -0 -9.49634e-08 -0 3.32365e-08)
(-2.98465e-07 -0.00131435 -0 4.05107e-07 -0 -1.06642e-07)
(1.22321e-07 -0.00104608 -0 -2.68787e-07 -0 1.46466e-07)
(6.00314e-08 -0.00104652 -0 -1.87859e-08 -0 -4.12455e-08)
(2.45871e-09 -0.00105217 -0 -2.94443e-08 -0 2.69856e-08)
(6.90574e-09 -0.0010493 -0 -6.5972e-08 -0 5.90662e-08)
(-2.0901e-07 -0.000827133 -0 3.9057e-07 -0 -1.8156e-07)
(8.15296e-08 -0.000825307 -0 -1.63401e-07 -0 8.18715e-08)
(-1.01641e-07 -0.000831226 -0 1.38114e-07 -0 -3.64729e-08)
(2.46651e-09 -0.000829938 -0 6.84057e-08 -0 -7.08722e-08)
(2.21507e-07 -0.000648144 -0 -4.05033e-07 -0 1.83526e-07)
(-1.70648e-07 -0.000644095 -0 3.05939e-07 -0 -1.35291e-07)
(-1.92469e-07 -0.000649089 -0 2.04115e-07 -0 -1.16459e-08)
(1.99084e-07 -0.00064935 -0 -2.36406e-07 -0 3.73212e-08)
(-8.22721e-08 -0.000501984 -0 2.70986e-07 -0 -1.88714e-07)
(1.87103e-07 -0.000497777 -0 -4.0562e-07 -0 2.18517e-07)
(-2.07377e-07 -0.000501651 -0 1.73113e-07 -0 3.42643e-08)
(2.29032e-07 -0.000501895 -0 -2.4011e-07 -0 1.10775e-08)
(3.24062e-07 -0.000383297 -0 -4.61398e-07 -0 1.37337e-07)
(-2.33238e-07 -0.000380123 -0 4.42288e-07 -0 -2.09049e-07)
(-3.58054e-07 -0.00038333 -0 3.96432e-07 -0 -3.83775e-08)
(1.96401e-07 -0.000383812 -0 -1.27674e-07 -0 -6.87269e-08)
(9.79542e-08 -0.000290611 -0 4.71631e-08 -0 -1.45117e-07)
(1.73789e-07 -0.000287099 -0 -3.79847e-07 -0 2.06057e-07)
(-2.89009e-07 -0.000289842 -0 2.1207e-07 -0 7.69395e-08)
(3.48136e-07 -0.000290212 -0 -4.10465e-07 -0 6.23295e-08)
(-2.89955e-08 -0.00308565 -0 1.84937e-07 -0 -1.55941e-07)
(1.94894e-07 -0.00311284 -0 -2.2698e-07 -0 3.2086e-08)
(5.57054e-08 -0.0031073 -0 -2.08484e-07 -0 1.52779e-07)
(-4.01579e-07 -0.00307308 -0 6.25665e-07 -0 -2.24086e-07)
(-2.10862e-06 -0.0048306 -0 1.63781e-06 -0 4.70809e-07)
(-5.48098e-07 -0.00484818 -0 5.30107e-07 -0 1.79905e-08)
(9.73196e-07 -0.00484095 -0 -6.94248e-07 -0 -2.78947e-07)
(-3.35623e-08 -0.00482057 -0 -1.86408e-07 -0 2.1997e-07)
(-2.04063e-06 -0.00417062 -0 2.24168e-06 -0 -2.01046e-07)
(-1.59262e-07 -0.00415576 -0 1.35762e-07 -0 2.35001e-08)
(8.90063e-07 -0.00415453 -0 -9.5483e-07 -0 6.47671e-08)
(-3.40327e-07 -0.00417619 -0 4.72615e-07 -0 -1.32288e-07)
(-1.32892e-06 -0.00351691 -0 1.42739e-06 -0 -9.84699e-08)
(-1.17889e-07 -0.00350707 -0 2.06001e-07 -0 -8.81123e-08)
(7.97587e-07 -0.00350883 -0 -1.0229e-06 -0 2.25315e-07)
(-8.11689e-08 -0.00352205 -0 2.05021e-08 -0 6.06668e-08)
(-7.07425e-07 -0.00294081 -0 6.24066e-07 -0 8.33592e-08)
(7.17892e-08 -0.002934 -0 -5.77376e-08 -0 -1.40516e-08)
(2.21147e-07 -0.00293707 -0 -1.15487e-07 -0 -1.05659e-07)
(-8.77886e-08 -0.00294417 -0 1.09846e-07 -0 -2.20574e-08)
(-5.44674e-07 -0.00243517 -0 6.05865e-07 -0 -6.11909e-08)
(9.06189e-08 -0.00243256 -0 -8.64072e-08 -0 -4.2117e-09)
(2.96713e-07 -0.00243623 -0 -3.60188e-07 -0 6.34749e-08)
(-4.87517e-08 -0.00243839 -0 6.10088e-08 -0 -1.22571e-08)
(-2.81809e-07 -0.00199909 -0 2.62675e-07 -0 1.91338e-08)
(1.63966e-08 -0.00199815 -0 1.68178e-08 -0 -3.32144e-08)
(1.71473e-07 -0.00200237 -0 -2.09415e-07 -0 3.79416e-08)
(3.61727e-08 -0.00200266 -0 -5.12346e-08 -0 1.50619e-08)
(-1.56334e-07 -0.00162493 -0 1.49899e-07 -0 6.43474e-09)
(-7.85351e-10 -0.00162661 -0 -1.316e-08 -0 1.39453e-08)
(8.58029e-08 -0.00162943 -0 -8.96241e-08 -0 3.82128e-09)
(7.70348e-09 -0.00162777 -0 3.0826e-08 -0 -3.85294e-08)
(-1.27355e-07 -0.00130836 -0 1.30063e-07 -0 -2.70827e-09)
(-1.54641e-07 -0.0013107 -0 2.07659e-07 -0 -5.30184e-08)
(1.52261e-07 -0.00131306 -0 -2.09289e-07 -0 5.70275e-08)
(1.35786e-07 -0.00131046 -0 -1.80024e-07 -0 4.42388e-08)
(-6.35144e-08 -0.00104424 -0 8.64325e-08 -0 -2.29181e-08)
(-1.53126e-07 -0.00104597 -0 1.34595e-07 -0 1.85313e-08)
(1.14129e-07 -0.0010476 -0 -1.3899e-07 -0 2.48611e-08)
(4.06585e-08 -0.00104566 -0 4.12242e-08 -0 -8.18828e-08)
(1.26459e-08 -0.000824841 -0 -3.83751e-08 -0 2.57292e-08)
(-2.75712e-07 -0.000825849 -0 3.36623e-07 -0 -6.09115e-08)
(1.13524e-07 -0.000826928 -0 -1.21347e-07 -0 7.8224e-09)
(2.17879e-07 -0.000827116 -0 -2.93953e-07 -0 7.60749e-08)
(1.23561e-07 -0.000644779 -0 -1.50541e-07 -0 2.69804e-08)
(-2.07236e-07 -0.000645259 -0 1.73004e-07 -0 3.42314e-08)
(1.94043e-08 -0.00064607 -0 7.45312e-09 -0 -2.68574e-08)
(5.04391e-08 -0.000648092 -0 1.41828e-08 -0 -6.4622e-08)
(9.95816e-08 -0.000498574 -0 -7.52168e-08 -0 -2.43648e-08)
(-3.12395e-07 -0.000498518 -0 3.66189e-07 -0 -5.37937e-08)
(3.80395e-08 -0.000499015 -0 -6.4826e-08 -0 2.67865e-08)
(1.40657e-07 -0.000502197 -0 -2.09253e-07 -0 6.8596e-08)
(2.60481e-07 -0.00038132 -0 -3.11111e-07 -0 5.06295e-08)
(-2.40819e-07 -0.000380783 -0 2.25352e-07 -0 1.54678e-08)
(-7.37026e-08 -0.000381441 -0 7.0505e-08 -0 3.19764e-09)
(-3.90045e-08 -0.000384195 -0 9.33574e-08 -0 -5.43529e-08)
(2.00169e-07 -0.000288414 -0 -1.74788e-07 -0 -2.53808e-08)
(-2.9441e-07 -0.000287367 -0 3.2582e-07 -0 -3.14094e-08)
(2.17158e-08 -0.000287089 -0 -1.46104e-07 -0 1.24388e-07)
(3.23867e-08 -0.000291026 -0 -5.5311e-08 -0 2.29243e-08)
)
;

boundaryField
{
    topWall
    {
        type            calculated;
        value           nonuniform List<symmTensor> 0();
    }
    botWall
    {
        type            calculated;
        value           nonuniform List<symmTensor> 0();
    }
    inlet
    {
        type            cyclic;
    }
    outlet
    {
        type            cyclic;
    }
    fixWall
    {
        type            empty;
    }
    procBoundary4to3
    {
        type            processor;
        value           nonuniform List<symmTensor> 8((3.04441e-08 -0.000779294 -0 8.98778e-08 -0 -1.20322e-07) (2.43638e-07 -0.000781201 -0 -3.13824e-07 -0 7.01861e-08) (-1.94442e-07 -0.000775306 -0 1.4112e-07 -0 5.3322e-08) (-2.30834e-07 -0.000776205 -0 2.38023e-07 -0 -7.18838e-09) (1.286e-07 -0.000776854 -0 -8.47361e-08 -0 -4.38636e-08) (9.45216e-08 -0.000776266 -0 -3.33628e-08 -0 -6.11588e-08) (-5.86833e-08 -0.000776117 -0 4.19014e-08 -0 1.6782e-08) (-7.32714e-08 -0.000777291 -0 4.10564e-08 -0 3.2215e-08));
    }
    procBoundary4to5
    {
        type            processor;
        value           nonuniform List<symmTensor> 8((3.54666e-07 -0.000218474 -0 -3.90748e-07 -0 3.60821e-08) (-6.24797e-08 -0.000214454 -0 1.26814e-07 -0 -6.4334e-08) (-3.48512e-07 -0.0002166 -0 2.72525e-07 -0 7.59875e-08) (1.56827e-07 -0.000217044 -0 -3.76441e-10 -0 -1.56451e-07) (2.12851e-07 -0.000215637 -0 -1.20675e-07 -0 -9.21766e-08) (-2.40993e-07 -0.000213944 -0 2.69859e-07 -0 -2.88656e-08) (-1.41189e-07 -0.000212168 -0 8.32654e-08 -0 5.79233e-08) (-2.26208e-07 -0.000217317 -0 3.49411e-07 -0 -1.23203e-07));
    }
}


// ************************************************************************* //
