/*--------------------------------*- C++ -*----------------------------------*\
  =========                 |
  \\      /  F ield         | OpenFOAM: The Open Source CFD Toolbox
   \\    /   O peration     | Website:  https://openfoam.org
    \\  /    A nd           | Version:  dev
     \\/     M anipulation  |

   OpenFOAM for Windows 20.09 (v1)
   Built by CFD Support, www.cfdsupport.com (based on Symscape).
\*---------------------------------------------------------------------------*/
FoamFile
{
    version     2.0;
    format      ascii;
    class       volScalarField;
    location    "2";
    object      epsilon;
}
// * * * * * * * * * * * * * * * * * * * * * * * * * * * * * * * * * * * * * //

dimensions      [0 2 -3 0 0 0 0];

internalField   nonuniform List<scalar> 
120
(
5.81961e-16
5.81997e-16
5.8092e-16
5.8053e-16
6.27427e-16
6.27426e-16
6.26524e-16
6.26403e-16
6.42005e-16
6.41905e-16
6.41606e-16
6.42178e-16
6.33991e-16
6.3384e-16
6.33979e-16
6.34772e-16
6.11372e-16
6.11192e-16
6.11599e-16
6.12356e-16
5.80517e-16
5.80313e-16
5.80866e-16
5.81484e-16
5.46099e-16
5.45866e-16
5.4648e-16
5.46947e-16
5.11304e-16
5.11042e-16
5.11655e-16
5.12e-16
4.78156e-16
4.77864e-16
4.78442e-16
4.78703e-16
4.48143e-16
4.47813e-16
4.48325e-16
4.48545e-16
4.34331e-16
4.34097e-16
4.34038e-16
4.34117e-16
4.24626e-16
4.24358e-16
4.24258e-16
4.24342e-16
4.16868e-16
4.16568e-16
4.16431e-16
4.16521e-16
4.10983e-16
4.10653e-16
4.10483e-16
4.1058e-16
4.06877e-16
4.06518e-16
4.06318e-16
4.06421e-16
5.81445e-16
5.82047e-16
5.81926e-16
5.81385e-16
6.27102e-16
6.27585e-16
6.27461e-16
6.27087e-16
6.42071e-16
6.42151e-16
6.42103e-16
6.42227e-16
6.34171e-16
6.34065e-16
6.34121e-16
6.34442e-16
6.11517e-16
6.11344e-16
6.11491e-16
6.11837e-16
5.80561e-16
5.80395e-16
5.80599e-16
5.80894e-16
5.46035e-16
5.45896e-16
5.46127e-16
5.46364e-16
5.11142e-16
5.1104e-16
5.11262e-16
5.11449e-16
4.77915e-16
4.77839e-16
4.78039e-16
4.78196e-16
4.47839e-16
4.47776e-16
4.4794e-16
4.48096e-16
4.33939e-16
4.33844e-16
4.33921e-16
4.33928e-16
4.24188e-16
4.24094e-16
4.24158e-16
4.24166e-16
4.16388e-16
4.16295e-16
4.16345e-16
4.16358e-16
4.10463e-16
4.10372e-16
4.10411e-16
4.10428e-16
4.06317e-16
4.0623e-16
4.06259e-16
4.0628e-16
)
;

boundaryField
{
    topWall
    {
        type            epsilonWallFunction;
        value           nonuniform List<scalar> 0();
    }
    botWall
    {
        type            epsilonWallFunction;
        value           nonuniform List<scalar> 0();
    }
    inlet
    {
        type            cyclic;
    }
    outlet
    {
        type            cyclic;
    }
    fixWall
    {
        type            empty;
    }
    procBoundary4to3
    {
        type            processor;
        value           nonuniform List<scalar> 8(5.27734e-16 5.27736e-16 5.2687e-16 5.26658e-16 5.27308e-16 5.27753e-16 5.27668e-16 5.27297e-16);
    }
    procBoundary4to5
    {
        type            processor;
        value           nonuniform List<scalar> 8(4.02906e-16 4.02541e-16 4.02316e-16 4.02426e-16 4.02332e-16 4.02244e-16 4.0227e-16 4.02288e-16);
    }
}


// ************************************************************************* //
