/*--------------------------------*- C++ -*----------------------------------*\
  =========                 |
  \\      /  F ield         | OpenFOAM: The Open Source CFD Toolbox
   \\    /   O peration     | Website:  https://openfoam.org
    \\  /    A nd           | Version:  dev
     \\/     M anipulation  |

   OpenFOAM for Windows 20.09 (v1)
   Built by CFD Support, www.cfdsupport.com (based on Symscape).
\*---------------------------------------------------------------------------*/
FoamFile
{
    version     2.0;
    format      ascii;
    class       volTensorField;
    location    "2";
    object      gradU;
}
// * * * * * * * * * * * * * * * * * * * * * * * * * * * * * * * * * * * * * //

dimensions      [0 0 -1 0 0 0 0];

internalField   nonuniform List<tensor> 
120
(
(-0.000118256 -0.000235938 0 16.4922 0.00102469 0 0 0 0)
(-0.000760128 -7.97905e-05 0 16.5303 -4.81382e-05 0 0 0 0)
(0.000197417 0.000215814 0 16.3051 0.00158828 0 0 0 0)
(0.00072121 0.000193312 0 16.0608 -0.000896664 0 0 0 0)
(0.00365257 -0.000214072 0 25.6619 -0.00587902 0 0 0 0)
(-0.00357901 -6.91002e-05 0 25.6797 0.00487833 0 0 0 0)
(-0.00716988 0.000207157 0 25.5158 0.00318472 0 0 0 0)
(0.00140702 0.000160666 0 25.3829 -0.00242407 0 0 0 0)
(0.00206212 -0.000172581 0 22.0012 0.000783614 0 0 0 0)
(-0.0031964 7.12718e-05 0 21.9857 0.00150814 0 0 0 0)
(-0.00474998 9.41078e-05 0 22.0562 0.00589408 0 0 0 0)
(0.00216078 8.86913e-05 0 22.2402 -0.00111183 0 0 0 0)
(0.00118399 -0.00016222 0 18.5742 -0.00325357 0 0 0 0)
(-0.00266197 1.60743e-05 0 18.5684 0.00474266 0 0 0 0)
(-0.00292815 0.000163491 0 18.6407 0.00442574 0 0 0 0)
(0.0022072 -4.5456e-05 0 18.7543 -0.00270731 0 0 0 0)
(0.000423203 -9.53103e-05 0 15.5497 1.89404e-05 0 0 0 0)
(-0.00208904 0.00019926 0 15.5484 0.00120032 0 0 0 0)
(-0.00165275 -3.00583e-05 0 15.6092 0.000785457 0 0 0 0)
(0.00214233 -5.2463e-05 0 15.669 -0.00223547 0 0 0 0)
(0.000253697 -0.000136389 0 12.8983 -0.000228133 0 0 0 0)
(-0.00166938 2.88496e-05 0 12.9002 0.00180289 0 0 0 0)
(-0.000916848 0.000106228 0 12.9524 0.00112457 0 0 0 0)
(0.00182397 -8.24282e-05 0 12.9705 -0.00164114 0 0 0 0)
(3.6669e-05 -6.20262e-05 0 10.5994 -0.000856976 0 0 0 0)
(-0.00118677 0.000221805 0 10.5985 0.00206816 0 0 0 0)
(-0.000480308 -8.74589e-05 0 10.6458 0.000755683 0 0 0 0)
(0.00137418 -0.000100668 0 10.6412 -0.00206968 0 0 0 0)
(-7.88094e-06 -0.000104848 0 8.62485 0.000978068 0 0 0 0)
(-0.000895263 5.57273e-05 0 8.62477 0.000141247 0 0 0 0)
(-0.000206205 3.72636e-05 0 8.66396 -2.48405e-05 0 0 0 0)
(0.000978743 -0.000105779 0 8.64906 -0.000293324 0 0 0 0)
(-2.44568e-06 -5.66088e-05 0 6.94703 -0.00142802 0 0 0 0)
(-0.00053503 0.00020509 0 6.94987 0.00147383 0 0 0 0)
(-7.54994e-05 -9.47017e-05 0 6.98464 0.00033973 0 0 0 0)
(0.00050833 -0.00010659 0 6.96614 -0.00135614 0 0 0 0)
(6.39828e-05 -9.01887e-05 0 5.54434 0.00110042 0 0 0 0)
(-0.000268384 8.51898e-05 0 5.5465 -5.95181e-05 0 0 0 0)
(6.49963e-05 -9.90249e-06 0 5.57649 0.000149539 0 0 0 0)
(0.000138225 -0.000117306 0 5.56139 0.000331351 0 0 0 0)
(7.27429e-05 -5.21636e-05 0 4.38386 -0.00151614 0 0 0 0)
(9.05931e-07 0.000189242 0 4.37394 0.000649972 0 0 0 0)
(0.000172697 -8.81872e-05 0 4.40558 -0.000462656 0 0 0 0)
(-0.000194348 -0.000113912 0 4.39879 -0.000369086 0 0 0 0)
(-0.000100651 -9.56988e-05 0 3.43526 0.00155968 0 0 0 0)
(9.36972e-05 0.000102748 0 3.4136 -0.00116926 0 0 0 0)
(0.000479182 -2.68868e-05 0 3.4402 -0.000571767 0 0 0 0)
(-0.000428673 -0.000106763 0 3.44166 0.000725376 0 0 0 0)
(-0.000282072 -6.81707e-05 0 2.66058 -0.00121821 0 0 0 0)
(8.32476e-05 0.000153718 0 2.63806 0.00165396 0 0 0 0)
(0.00064035 -5.661e-05 0 2.65881 -0.000367949 0 0 0 0)
(-0.000577581 -9.65418e-05 0 2.66014 0.000665646 0 0 0 0)
(-0.000494822 -8.04044e-05 0 2.03156 0.00158665 0 0 0 0)
(6.41e-05 0.000116919 0 2.01454 -0.00172604 0 0 0 0)
(0.000847143 -4.33587e-05 0 2.03169 -0.00115224 0 0 0 0)
(-0.000702588 -9.83849e-05 0 2.0343 0.000156209 0 0 0 0)
(-0.000644139 -9.04142e-05 0 1.54033 -0.000509543 0 0 0 0)
(8.55104e-05 0.00010807 0 1.52152 0.00155265 0 0 0 0)
(0.000969763 -2.52391e-05 0 1.53619 -0.000358095 0 0 0 0)
(-0.000757387 -6.13609e-05 0 1.53818 0.00125291 0 0 0 0)
(-0.000336406 1.28666e-05 0 16.3539 -0.000903327 0 0 0 0)
(-0.00043144 -0.000240143 0 16.4983 0.000686524 0 0 0 0)
(0.000257245 7.25682e-06 0 16.4687 0.000957348 0 0 0 0)
(0.000470357 0.000126621 0 16.2872 -0.00225184 0 0 0 0)
(0.00683549 3.66945e-05 0 25.6021 -0.00309255 0 0 0 0)
(0.00150013 -0.000216287 0 25.6956 -0.00135711 0 0 0 0)
(-0.00331818 -2.97793e-05 0 25.6571 0.00110055 0 0 0 0)
(0.000671861 0.000124721 0 25.5489 0.0010769 0 0 0 0)
(0.0048749 3.06493e-05 0 22.1043 -0.00647322 0 0 0 0)
(0.000484319 -0.000170258 0 22.0257 -0.000297494 0 0 0 0)
(-0.00218703 4.78237e-05 0 22.019 0.00270193 0 0 0 0)
(0.000551304 1.02953e-05 0 22.1338 -0.00160299 0 0 0 0)
(0.00326068 5.02668e-05 0 18.6396 -0.00404352 0 0 0 0)
(7.8907e-05 -6.33674e-05 0 18.5875 -0.0007794 0 0 0 0)
(-0.00151652 -5.15376e-05 0 18.5969 0.00330778 0 0 0 0)
(0.000375865 9.27491e-05 0 18.6668 0.000106436 0 0 0 0)
(0.00209558 6.2781e-05 0 15.5862 -0.00143287 0 0 0 0)
(-0.000227478 -4.77367e-05 0 15.5503 0.000115768 0 0 0 0)
(-0.000866036 6.25876e-05 0 15.5664 2.60439e-05 0 0 0 0)
(0.000174188 -9.90606e-05 0 15.6042 -0.000349544 0 0 0 0)
(0.00128123 8.9454e-05 0 12.9063 -0.0017677 0 0 0 0)
(-0.000251301 -3.90522e-05 0 12.8926 0.000217818 0 0 0 0)
(-0.000618081 -5.92928e-05 0 12.9121 0.00112271 0 0 0 0)
(9.67107e-05 9.26308e-05 0 12.9234 -0.000194155 0 0 0 0)
(0.000797498 9.37636e-05 0 10.5951 -0.000645385 0 0 0 0)
(-0.000131469 4.36684e-07 0 10.5902 -0.000132585 0 0 0 0)
(-0.000353859 5.57214e-05 0 10.6125 0.000655495 0 0 0 0)
(-5.59436e-05 -0.000121575 0 10.6142 0.000175686 0 0 0 0)
(0.000431337 0.000121739 0 8.61201 -0.000380181 0 0 0 0)
(3.90363e-05 -1.73708e-05 0 8.62102 7.1829e-05 0 0 0 0)
(-0.000217251 -5.41549e-05 0 8.63605 0.00024763 0 0 0 0)
(-0.000122517 6.74229e-05 0 8.62711 -0.000183792 0 0 0 0)
(0.000330314 9.98495e-05 0 6.93421 -0.000351845 0 0 0 0)
(0.000269299 1.09002e-05 0 6.94671 -0.000690795 0 0 0 0)
(-0.000252369 5.14611e-05 0 6.95916 0.000705738 0 0 0 0)
(-0.000242599 -0.000109401 0 6.94555 0.000594298 0 0 0 0)
(0.00010758 0.000132828 0 5.53433 -0.000289779 0 0 0 0)
(0.000454893 2.55527e-07 0 5.54365 -0.000307569 0 0 0 0)
(-0.000236559 -3.27367e-05 0 5.55233 0.000434205 0 0 0 0)
(-0.000324734 3.18602e-05 0 5.54198 -0.000326233 0 0 0 0)
(3.46706e-05 8.92008e-05 0 4.37157 0.000169877 0 0 0 0)
(0.000569221 2.29666e-05 0 4.37698 -0.00105347 0 0 0 0)
(-0.00028011 5.115e-05 0 4.38267 0.000342298 0 0 0 0)
(-0.00037578 -9.8297e-05 0 4.38381 0.000980575 0 0 0 0)
(-0.000255938 0.000121422 0 3.41721 0.000470432 0 0 0 0)
(0.000639887 3.12922e-06 0 3.41987 -0.000367748 0 0 0 0)
(-0.000122593 1.16398e-06 0 3.42417 -9.09228e-05 0 0 0 0)
(-0.000304912 8.86203e-07 0 3.43489 -0.000208833 0 0 0 0)
(-0.000328458 7.09821e-05 0 2.64237 0.000134758 0 0 0 0)
(0.000685294 1.36107e-05 0 2.64213 -0.00111295 0 0 0 0)
(-2.98206e-05 5.37986e-05 0 2.64473 0.000242773 0 0 0 0)
(-0.000190961 -7.0787e-05 0 2.66171 0.000736299 0 0 0 0)
(-0.000556107 9.17783e-05 0 2.0209 0.000958612 0 0 0 0)
(0.000679161 4.92948e-06 0 2.01815 -0.000556192 0 0 0 0)
(0.000203786 3.19849e-05 0 2.0216 -0.000178364 0 0 0 0)
(-4.06733e-05 -2.34635e-05 0 2.03626 -0.000391432 0 0 0 0)
(-0.000597706 5.91087e-05 0 1.52853 0.000395929 0 0 0 0)
(0.000696952 -5.33892e-06 0 1.52305 -0.000946657 0 0 0 0)
(0.000272082 5.65446e-05 0 1.52151 0.000716805 0 0 0 0)
(-2.50752e-05 -4.13701e-05 0 1.54248 0.000207324 0 0 0 0)
)
;

boundaryField
{
    topWall
    {
        type            extrapolatedCalculated;
        value           nonuniform List<tensor> 0();
    }
    botWall
    {
        type            extrapolatedCalculated;
        value           nonuniform List<tensor> 0();
    }
    inlet
    {
        type            cyclic;
    }
    outlet
    {
        type            cyclic;
    }
    fixWall
    {
        type            empty;
    }
    procBoundary4to3
    {
        type            processor;
        value           nonuniform List<tensor> 8((-0.00039953 -0.0002508 0 4.13051 -0.000557029 0 0 0 0) (-0.000459647 -7.84934e-05 0 4.14044 0.00101763 0 0 0 0) (0.000656575 0.000221299 0 4.1089 -0.000232665 0 0 0 0) (0.000592662 0.000202192 0 4.11368 -0.000649809 0 0 0 0) (-0.000457028 1.0308e-05 0 4.11731 0.000108312 0 0 0 0) (-0.000412553 -0.000247298 0 4.11446 -7.36595e-05 0 0 0 0) (0.000199983 1.91934e-05 0 4.1134 -6.65664e-05 0 0 0 0) (0.000279539 0.000123599 0 4.11952 -2.34297e-05 0 0 0 0));
    }
    procBoundary4to5
    {
        type            processor;
        value           nonuniform List<tensor> 8((-0.000844247 -5.79823e-05 0 1.15797 0.0011311 0 0 0 0) (-4.91401e-06 0.000119443 0 1.13648 -0.000506542 0 0 0 0) (0.00112492 -4.83544e-05 0 1.14803 -0.000520823 0 0 0 0) (-0.000830188 -8.58178e-05 0 1.15042 -0.000413598 0 0 0 0) (-0.000808324 5.51189e-05 0 1.14282 7.55197e-05 0 0 0 0) (0.000562139 1.02774e-05 0 1.13389 -0.00079162 0 0 0 0) (0.000527646 5.12179e-05 0 1.12444 -6.71566e-05 0 0 0 0) (0.000272963 -4.39026e-05 0 1.15182 -0.00125243 0 0 0 0));
    }
}


// ************************************************************************* //
