/*--------------------------------*- C++ -*----------------------------------*\
  =========                 |
  \\      /  F ield         | OpenFOAM: The Open Source CFD Toolbox
   \\    /   O peration     | Website:  https://openfoam.org
    \\  /    A nd           | Version:  dev
     \\/     M anipulation  |

   OpenFOAM for Windows 20.09 (v1)
   Built by CFD Support, www.cfdsupport.com (based on Symscape).
\*---------------------------------------------------------------------------*/
FoamFile
{
    version     2.0;
    format      ascii;
    class       volVectorField;
    location    "2";
    object      gradp;
}
// * * * * * * * * * * * * * * * * * * * * * * * * * * * * * * * * * * * * * //

dimensions      [1 -2 -2 0 0 0 0];

internalField   nonuniform List<vector> 
120
(
(3.74708 -31.7304 0)
(-1.24697 -31.5305 0)
(-1.23877 -32.0446 0)
(-1.24436 -32.5069 0)
(3.74903 -9.86798 0)
(-1.24809 -9.85054 0)
(-1.24246 -9.93548 0)
(-1.24446 -10.0728 0)
(3.74903 -9.80891 0)
(-1.24809 -9.80728 0)
(-1.24248 -9.81039 0)
(-1.24448 -9.8085 0)
(3.74903 -9.80886 0)
(-1.24812 -9.8076 0)
(-1.24248 -9.8105 0)
(-1.24448 -9.80861 0)
(3.74904 -9.80946 0)
(-1.24812 -9.80743 0)
(-1.24249 -9.81027 0)
(-1.2445 -9.80875 0)
(3.74905 -9.80951 0)
(-1.24813 -9.80771 0)
(-1.2425 -9.8104 0)
(-1.24451 -9.80875 0)
(3.74905 -9.80978 0)
(-1.24814 -9.80752 0)
(-1.24251 -9.81024 0)
(-1.24452 -9.80888 0)
(3.74907 -9.80979 0)
(-1.24814 -9.80751 0)
(-1.24252 -9.81014 0)
(-1.24454 -9.80884 0)
(3.74908 -9.80992 0)
(-1.24814 -9.80753 0)
(-1.24253 -9.81008 0)
(-1.24455 -9.80881 0)
(3.74909 -9.81 0)
(-1.24814 -9.80749 0)
(-1.24255 -9.80999 0)
(-1.24456 -9.80883 0)
(3.74911 -9.81002 0)
(-1.24814 -9.80767 0)
(-1.24255 -9.81022 0)
(-1.24458 -9.80873 0)
(3.74912 -9.80996 0)
(-1.24814 -9.80813 0)
(-1.24256 -9.81061 0)
(-1.24458 -9.80864 0)
(3.74912 -9.81006 0)
(-1.24815 -9.80821 0)
(-1.24256 -9.8107 0)
(-1.24458 -9.8085 0)
(3.74913 -9.8105 0)
(-1.24815 -9.80829 0)
(-1.24257 -9.81056 0)
(-1.24458 -9.80888 0)
(3.74914 -9.81115 0)
(-1.24815 -9.80818 0)
(-1.24257 -9.81004 0)
(-1.24457 -9.80955 0)
(-1.25454 -32.1306 0)
(-1.25824 -31.8926 0)
(-1.25377 -31.9241 0)
(3.74957 -32.1962 0)
(-1.25116 -9.94221 0)
(-1.25715 -9.87042 0)
(-1.2554 -9.87624 0)
(3.7497 -9.9674 0)
(-1.25116 -9.81155 0)
(-1.25714 -9.8085 0)
(-1.25539 -9.81091 0)
(3.74971 -9.80766 0)
(-1.25116 -9.81172 0)
(-1.25714 -9.80858 0)
(-1.25539 -9.81101 0)
(3.74974 -9.80819 0)
(-1.25116 -9.81185 0)
(-1.25713 -9.80894 0)
(-1.25538 -9.81078 0)
(3.74975 -9.80829 0)
(-1.25117 -9.81185 0)
(-1.25713 -9.80908 0)
(-1.25538 -9.81089 0)
(3.74976 -9.80852 0)
(-1.25117 -9.81195 0)
(-1.25712 -9.80918 0)
(-1.25537 -9.81069 0)
(3.74977 -9.80869 0)
(-1.25117 -9.81186 0)
(-1.2571 -9.80918 0)
(-1.25537 -9.81054 0)
(3.74978 -9.8089 0)
(-1.25117 -9.81175 0)
(-1.25709 -9.80919 0)
(-1.25537 -9.81037 0)
(3.74978 -9.80903 0)
(-1.25118 -9.81165 0)
(-1.25708 -9.80917 0)
(-1.25537 -9.81022 0)
(3.74978 -9.80922 0)
(-1.25118 -9.81133 0)
(-1.25707 -9.8091 0)
(-1.25537 -9.81031 0)
(3.74979 -9.80925 0)
(-1.25118 -9.81082 0)
(-1.25706 -9.80893 0)
(-1.25537 -9.81049 0)
(3.74979 -9.80918 0)
(-1.25119 -9.81046 0)
(-1.25706 -9.80872 0)
(-1.25537 -9.81022 0)
(3.7498 -9.80916 0)
(-1.25119 -9.81024 0)
(-1.25706 -9.8086 0)
(-1.25538 -9.8091 0)
(3.74979 -9.80932 0)
(-1.25118 -9.81032 0)
(-1.25705 -9.80853 0)
(-1.25539 -9.80696 0)
(3.74977 -9.80983 0)
)
;

boundaryField
{
    topWall
    {
        type            extrapolatedCalculated;
        value           nonuniform List<vector> 0();
    }
    botWall
    {
        type            extrapolatedCalculated;
        value           nonuniform List<vector> 0();
    }
    inlet
    {
        type            cyclic;
    }
    outlet
    {
        type            cyclic;
    }
    fixWall
    {
        type            empty;
    }
    procBoundary4to3
    {
        type            processor;
        value           nonuniform List<vector> 8((3.73793 -75.5911 0) (-1.24285 -75.3285 0) (-1.22619 -75.9559 0) (-1.24303 -76.3663 0) (-1.2614 -76.1048 0) (-1.2606 -75.9172 0) (-1.25034 -75.9066 0) (3.74648 -76.1073 0));
    }
    procBoundary4to5
    {
        type            processor;
        value           nonuniform List<vector> 8((3.74916 -9.81219 0) (-1.24813 -9.80771 0) (-1.24259 -9.80922 0) (-1.24458 -9.81069 0) (-1.25117 -9.81088 0) (-1.257 -9.80866 0) (-1.2554 -9.80438 0) (3.74972 -9.81065 0));
    }
}


// ************************************************************************* //
