/*--------------------------------*- C++ -*----------------------------------*\
  =========                 |
  \\      /  F ield         | OpenFOAM: The Open Source CFD Toolbox
   \\    /   O peration     | Website:  https://openfoam.org
    \\  /    A nd           | Version:  dev
     \\/     M anipulation  |

   OpenFOAM for Windows 20.09 (v1)
   Built by CFD Support, www.cfdsupport.com (based on Symscape).
\*---------------------------------------------------------------------------*/
FoamFile
{
    version     2.0;
    format      ascii;
    class       volVectorField;
    location    "2";
    object      gradp_rgh;
}
// * * * * * * * * * * * * * * * * * * * * * * * * * * * * * * * * * * * * * //

dimensions      [1 -2 -2 0 0 0 0];

internalField   nonuniform List<vector> 
120
(
(-1.48644 -2622.51 0)
(-1.1088 -2612.37 0)
(-0.794972 -2636.12 0)
(-1.24283 -2647.1 0)
(-1.25094 -7.21783 0)
(-1.24818 -5.36404 0)
(-1.24248 -15.5757 0)
(-1.24429 -32.2143 0)
(-1.25097 -0.00452388 0)
(-1.24809 0.000403033 0)
(-1.24248 -0.000625083 0)
(-1.24448 0.000538585 0)
(-1.25097 0.00113131 0)
(-1.24812 0.00239756 0)
(-1.24248 -0.000503556 0)
(-1.24448 0.00138461 0)
(-1.25096 0.000542009 0)
(-1.24812 0.0025735 0)
(-1.24249 -0.000267608 0)
(-1.2445 0.00124752 0)
(-1.25095 0.000491686 0)
(-1.24813 0.0022898 0)
(-1.2425 -0.000399647 0)
(-1.24451 0.0012456 0)
(-1.25095 0.000221578 0)
(-1.24814 0.00248054 0)
(-1.24251 -0.000235032 0)
(-1.24452 0.00111739 0)
(-1.25093 0.000213828 0)
(-1.24814 0.00248961 0)
(-1.24252 -0.000139946 0)
(-1.24454 0.00115551 0)
(-1.25092 8.16231e-05 0)
(-1.24814 0.00246784 0)
(-1.24253 -7.59781e-05 0)
(-1.24455 0.00118609 0)
(-1.25091 3.59467e-06 0)
(-1.24814 0.00251478 0)
(-1.24255 1.24118e-05 0)
(-1.24456 0.0011714 0)
(-1.25089 -1.53868e-05 0)
(-1.24814 0.00232976 0)
(-1.24255 -0.000220936 0)
(-1.24458 0.00126583 0)
(-1.25088 4.4904e-05 0)
(-1.24814 0.00187452 0)
(-1.24256 -0.000610308 0)
(-1.24458 0.00135793 0)
(-1.25088 -5.55445e-05 0)
(-1.24815 0.00179083 0)
(-1.24256 -0.000704159 0)
(-1.24458 0.00149868 0)
(-1.25087 -0.000504048 0)
(-1.24815 0.00171376 0)
(-1.24257 -0.000559234 0)
(-1.24458 0.00112425 0)
(-1.25086 -0.00115415 0)
(-1.24815 0.00181956 0)
(-1.24257 -4.28212e-05 0)
(-1.24457 0.00045053 0)
(-1.66321 -2643.76 0)
(-1.38152 -2641.46 0)
(-1.05539 -2637.63 0)
(-1.26685 -2640.63 0)
(-1.25107 -15.6742 0)
(-1.2573 -7.49178 0)
(-1.25551 -8.2117 0)
(-1.25022 -19.492 0)
(-1.25116 -0.011911 0)
(-1.25714 -0.00499451 0)
(-1.25539 -0.00230734 0)
(-1.25029 0.00208126 0)
(-1.25116 -0.00173249 0)
(-1.25714 0.00140403 0)
(-1.25539 -0.00101458 0)
(-1.25026 0.00181181 0)
(-1.25116 -0.00185355 0)
(-1.25713 0.00105611 0)
(-1.25538 -0.000784128 0)
(-1.25025 0.00171283 0)
(-1.25117 -0.00184615 0)
(-1.25713 0.000915333 0)
(-1.25538 -0.000892979 0)
(-1.25024 0.00148004 0)
(-1.25117 -0.0019512 0)
(-1.25712 0.000822306 0)
(-1.25537 -0.000693206 0)
(-1.25023 0.00130729 0)
(-1.25117 -0.00185938 0)
(-1.2571 0.000818632 0)
(-1.25537 -0.000544379 0)
(-1.25022 0.00110266 0)
(-1.25117 -0.00175217 0)
(-1.25709 0.000808099 0)
(-1.25537 -0.000367496 0)
(-1.25022 0.000967588 0)
(-1.25118 -0.00164547 0)
(-1.25708 0.000834389 0)
(-1.25537 -0.000220859 0)
(-1.25022 0.000784447 0)
(-1.25118 -0.00133429 0)
(-1.25707 0.000901885 0)
(-1.25537 -0.00031304 0)
(-1.25021 0.000748103 0)
(-1.25118 -0.000819447 0)
(-1.25706 0.00106878 0)
(-1.25537 -0.000490403 0)
(-1.25021 0.000820055 0)
(-1.25119 -0.00045857 0)
(-1.25706 0.0012752 0)
(-1.25537 -0.00021889 0)
(-1.2502 0.000835256 0)
(-1.25119 -0.000239678 0)
(-1.25706 0.00140166 0)
(-1.25538 0.00090026 0)
(-1.25021 0.000680561 0)
(-1.25118 -0.00031918 0)
(-1.25705 0.0014668 0)
(-1.25539 0.00304234 0)
(-1.25023 0.000170371 0)
)
;

boundaryField
{
    topWall
    {
        type            extrapolatedCalculated;
        value           nonuniform List<vector> 0();
    }
    botWall
    {
        type            extrapolatedCalculated;
        value           nonuniform List<vector> 0();
    }
    inlet
    {
        type            cyclic;
    }
    outlet
    {
        type            cyclic;
    }
    fixWall
    {
        type            empty;
    }
    procBoundary4to3
    {
        type            processor;
        value           nonuniform List<vector> 8((-1.72185 -2641.1 0) (-1.02143 -2642.67 0) (-0.663729 -2633.17 0) (-1.11691 -2617.09 0) (-1.34512 -2633.23 0) (-1.35952 -2641.16 0) (-1.2693 -2640.43 0) (-1.50215 -2629.44 0));
    }
    procBoundary4to5
    {
        type            processor;
        value           nonuniform List<vector> 8((-1.25084 -0.00219079 0) (-1.24813 0.00228513 0) (-1.24259 0.00078223 0) (-1.24458 -0.000693772 0) (-1.25117 -0.000875471 0) (-1.257 0.00133913 0) (-1.2554 0.00562094 0) (-1.25028 -0.000649286 0));
    }
}


// ************************************************************************* //
