/*--------------------------------*- C++ -*----------------------------------*\
  =========                 |
  \\      /  F ield         | OpenFOAM: The Open Source CFD Toolbox
   \\    /   O peration     | Website:  https://openfoam.org
    \\  /    A nd           | Version:  dev
     \\/     M anipulation  |

   OpenFOAM for Windows 20.09 (v1)
   Built by CFD Support, www.cfdsupport.com (based on Symscape).
\*---------------------------------------------------------------------------*/
FoamFile
{
    version     2.0;
    format      ascii;
    class       volScalarField;
    location    "2";
    object      nut;
}
// * * * * * * * * * * * * * * * * * * * * * * * * * * * * * * * * * * * * * //

dimensions      [0 2 -1 0 0 0 0];

internalField   nonuniform List<scalar> 
120
(
4.7961e-18
4.78598e-18
4.84883e-18
4.91955e-18
3.19943e-18
3.19761e-18
3.21676e-18
3.23272e-18
3.76929e-18
3.77201e-18
3.76027e-18
3.7303e-18
4.43109e-18
4.43226e-18
4.41705e-18
4.39265e-18
5.19806e-18
5.19795e-18
5.18135e-18
5.16455e-18
6.11393e-18
6.11218e-18
6.09275e-18
6.08766e-18
7.22584e-18
7.22502e-18
7.2003e-18
7.20694e-18
8.59648e-18
8.59465e-18
8.56516e-18
8.58359e-18
1.00448e-17
1.00462e-17
1.00575e-17
1.00589e-17
9.99656e-18
9.99819e-18
1.00105e-17
1.00118e-17
1.02165e-17
1.0222e-17
1.02234e-17
1.02215e-17
1.045e-17
1.04566e-17
1.04591e-17
1.0457e-17
1.06445e-17
1.06521e-17
1.06557e-17
1.06533e-17
1.07969e-17
1.08056e-17
1.08101e-17
1.08075e-17
1.09059e-17
1.09155e-17
1.09209e-17
1.09181e-17
4.83477e-18
4.79565e-18
4.8042e-18
4.85459e-18
3.20639e-18
3.1963e-18
3.20102e-18
3.21326e-18
3.7524e-18
3.76637e-18
3.76759e-18
3.74814e-18
4.41695e-18
4.42932e-18
4.42745e-18
4.41181e-18
5.18759e-18
5.19933e-18
5.19457e-18
5.1836e-18
6.11186e-18
6.11813e-18
6.10992e-18
6.10644e-18
7.23044e-18
7.23375e-18
7.21986e-18
7.2211e-18
8.61071e-18
8.60204e-18
8.5888e-18
8.60021e-18
1.00527e-17
1.00554e-17
1.00551e-17
1.00579e-17
1.00052e-17
1.00082e-17
1.00078e-17
1.00109e-17
1.02257e-17
1.0228e-17
1.02261e-17
1.0226e-17
1.04608e-17
1.04631e-17
1.04615e-17
1.04613e-17
1.06568e-17
1.06591e-17
1.06578e-17
1.06575e-17
1.08106e-17
1.0813e-17
1.08119e-17
1.08115e-17
1.09209e-17
1.09232e-17
1.09224e-17
1.09219e-17
)
;

boundaryField
{
    topWall
    {
        type            nutkWallFunction;
        Cmu             0.09;
        kappa           0.41;
        E               9.8;
        value           nonuniform List<scalar> 0();
    }
    botWall
    {
        type            nutkWallFunction;
        Cmu             0.09;
        kappa           0.41;
        E               9.8;
        value           nonuniform List<scalar> 0();
    }
    inlet
    {
        type            cyclic;
    }
    outlet
    {
        type            cyclic;
    }
    fixWall
    {
        type            empty;
    }
    procBoundary4to3
    {
        type            processor;
        value           nonuniform List<scalar> 8(9.58077e-18 9.58615e-18 9.5961e-18 9.58808e-18 9.58411e-18 9.58575e-18 9.58885e-18 9.58506e-18);
    }
    procBoundary4to5
    {
        type            processor;
        value           nonuniform List<scalar> 8(1.10133e-17 1.10233e-17 1.10295e-17 1.10265e-17 1.10291e-17 1.10315e-17 1.10307e-17 1.10303e-17);
    }
}


// ************************************************************************* //
