/*--------------------------------*- C++ -*----------------------------------*\
  =========                 |
  \\      /  F ield         | OpenFOAM: The Open Source CFD Toolbox
   \\    /   O peration     | Website:  https://openfoam.org
    \\  /    A nd           | Version:  dev
     \\/     M anipulation  |

   OpenFOAM for Windows 20.09 (v1)
   Built by CFD Support, www.cfdsupport.com (based on Symscape).
\*---------------------------------------------------------------------------*/
FoamFile
{
    version     2.0;
    format      ascii;
    class       volScalarField;
    location    "2";
    object      omega;
}
// * * * * * * * * * * * * * * * * * * * * * * * * * * * * * * * * * * * * * //

dimensions      [0 0 -1 0 0 0 0];

internalField   nonuniform List<scalar> 
120
(
25.9884
25.9829
25.9435
25.9439
27.0073
27.0022
26.9671
26.9719
27.203
27.1969
27.1788
27.1983
26.869
26.8629
26.856
26.8776
26.2268
26.2209
26.2203
26.2386
25.4313
25.4253
25.4277
25.4412
24.5871
24.5806
24.5838
24.593
23.7622
23.7548
23.7573
23.7636
22.9981
22.9895
22.9905
22.9952
22.3183
22.3083
22.3073
22.3113
21.7339
21.7222
21.7192
21.7232
21.2483
21.2349
21.2299
21.2341
20.8601
20.8451
20.8382
20.8427
20.5656
20.5491
20.5405
20.5454
20.3601
20.3421
20.3322
20.3373
25.9722
25.9839
25.9767
25.9686
26.9949
27.0043
26.9977
26.9922
27.1993
27.1989
27.1959
27.2013
26.8671
26.8623
26.863
26.8712
26.2235
26.2172
26.2206
26.2278
25.4251
25.4188
25.4239
25.4288
24.5779
24.572
24.5778
24.5807
23.7501
23.7447
23.7504
23.7518
22.9833
22.9784
22.9836
22.9842
22.3011
22.2962
22.3008
22.3011
21.7143
21.7095
21.7134
21.7137
21.2264
21.2217
21.2249
21.2252
20.836
20.8314
20.8339
20.8346
20.5395
20.535
20.537
20.5378
20.3321
20.3278
20.3292
20.3302
)
;

boundaryField
{
    topWall
    {
        beta1           0.075;
        blended         0;
        type            omegaWallFunction;
        value           nonuniform List<scalar> 0();
    }
    botWall
    {
        beta1           0.075;
        blended         0;
        type            omegaWallFunction;
        value           nonuniform List<scalar> 0();
    }
    inlet
    {
        type            cyclic;
    }
    outlet
    {
        type            cyclic;
    }
    fixWall
    {
        type            empty;
    }
    procBoundary4to3
    {
        type            processor;
        value           nonuniform List<scalar> 8(24.7392 24.7323 24.6992 24.7046 24.7249 24.7332 24.7273 24.7234);
    }
    procBoundary4to5
    {
        type            processor;
        value           nonuniform List<scalar> 8(20.1614 20.1431 20.1319 20.1374 20.1327 20.1283 20.1296 20.1305);
    }
}


// ************************************************************************* //
