/*--------------------------------*- C++ -*----------------------------------*\
  =========                 |
  \\      /  F ield         | OpenFOAM: The Open Source CFD Toolbox
   \\    /   O peration     | Website:  https://openfoam.org
    \\  /    A nd           | Version:  dev
     \\/     M anipulation  |

   OpenFOAM for Windows 20.09 (v1)
   Built by CFD Support, www.cfdsupport.com (based on Symscape).
\*---------------------------------------------------------------------------*/
FoamFile
{
    version     2.0;
    format      ascii;
    class       volScalarField;
    location    "2";
    object      p;
}
// * * * * * * * * * * * * * * * * * * * * * * * * * * * * * * * * * * * * * //

dimensions      [1 -1 -2 0 0 0 0];

internalField   nonuniform List<scalar> 
120
(
-4.87031
-4.93296
-4.99501
-5.05683
-4.87858
-4.9412
-5.00339
-5.06545
-4.88676
-4.94937
-5.01157
-5.07362
-4.89493
-4.95755
-5.01974
-5.0818
-4.9031
-4.96572
-5.02792
-5.08997
-4.91128
-4.97389
-5.03609
-5.09814
-4.91945
-4.98207
-5.04427
-5.10632
-4.92763
-4.99024
-5.05244
-5.11449
-4.9358
-4.99841
-5.06062
-5.12267
-4.94398
-5.00659
-5.06879
-5.13084
-4.95215
-5.01476
-5.07697
-5.13901
-4.96033
-5.02293
-5.08514
-5.14719
-4.9685
-5.03111
-5.09332
-5.15536
-4.97668
-5.03928
-5.10149
-5.16354
-4.98485
-5.04745
-5.10967
-5.17171
-5.11944
-5.18229
-5.24527
-5.30767
-5.12784
-5.19056
-5.25355
-5.3161
-5.13601
-5.19874
-5.26173
-5.32428
-5.14419
-5.20691
-5.2699
-5.33245
-5.15237
-5.21509
-5.27808
-5.34062
-5.16054
-5.22326
-5.28625
-5.3488
-5.16872
-5.23143
-5.29443
-5.35697
-5.1769
-5.23961
-5.30261
-5.36515
-5.18507
-5.24778
-5.31078
-5.37332
-5.19325
-5.25596
-5.31896
-5.38149
-5.20142
-5.26413
-5.32713
-5.38967
-5.2096
-5.27231
-5.33531
-5.39784
-5.21778
-5.28048
-5.34348
-5.40602
-5.22595
-5.28865
-5.35166
-5.41419
-5.23413
-5.29683
-5.35983
-5.42237
)
;

boundaryField
{
    topWall
    {
        type            calculated;
        value           nonuniform List<scalar> 0();
    }
    botWall
    {
        type            calculated;
        value           nonuniform List<scalar> 0();
    }
    inlet
    {
        type            cyclic;
    }
    outlet
    {
        type            cyclic;
    }
    fixWall
    {
        type            empty;
    }
    procBoundary4to3
    {
        type            processor;
        value           nonuniform List<scalar> 8(-4.8257 -4.88865 -4.94998 -5.01127 -5.07429 -5.13741 -5.20034 -5.26244);
    }
    procBoundary4to5
    {
        type            processor;
        value           nonuniform List<scalar> 8(-4.99303 -5.05563 -5.11784 -5.17988 -5.2423 -5.305 -5.368 -5.43054);
    }
}


// ************************************************************************* //
