/*--------------------------------*- C++ -*----------------------------------*\
  =========                 |
  \\      /  F ield         | OpenFOAM: The Open Source CFD Toolbox
   \\    /   O peration     | Website:  https://openfoam.org
    \\  /    A nd           | Version:  dev
     \\/     M anipulation  |

   OpenFOAM for Windows 20.09 (v1)
   Built by CFD Support, www.cfdsupport.com (based on Symscape).
\*---------------------------------------------------------------------------*/
FoamFile
{
    version     2.0;
    format      ascii;
    class       volScalarField;
    location    "2";
    object      p_rgh;
}
// * * * * * * * * * * * * * * * * * * * * * * * * * * * * * * * * * * * * * //

dimensions      [1 -1 -2 0 0 0 0];

internalField   nonuniform List<scalar> 
120
(
-4.36379
-4.4295
-4.47467
-4.50899
-4.37581
-4.43844
-4.50063
-4.56268
-4.37582
-4.43844
-4.50063
-4.56268
-4.37582
-4.43844
-4.50063
-4.56268
-4.37582
-4.43843
-4.50063
-4.56268
-4.37582
-4.43843
-4.50063
-4.56268
-4.37582
-4.43843
-4.50063
-4.56268
-4.37582
-4.43843
-4.50063
-4.56268
-4.37582
-4.43843
-4.50063
-4.56268
-4.37582
-4.43842
-4.50063
-4.56268
-4.37582
-4.43842
-4.50063
-4.56268
-4.37582
-4.43842
-4.50063
-4.56268
-4.37582
-4.43842
-4.50063
-4.56267
-4.37582
-4.43842
-4.50063
-4.56267
-4.37582
-4.43841
-4.50063
-4.56267
-4.59895
-4.67531
-4.7371
-4.78085
-4.62506
-4.68779
-4.75079
-4.81334
-4.62508
-4.6878
-4.75079
-4.81334
-4.62508
-4.6878
-4.75079
-4.81334
-4.62508
-4.6878
-4.75079
-4.81334
-4.62508
-4.6878
-4.75079
-4.81334
-4.62508
-4.6878
-4.75079
-4.81333
-4.62508
-4.6878
-4.75079
-4.81333
-4.62508
-4.6878
-4.75079
-4.81333
-4.62509
-4.6878
-4.75079
-4.81333
-4.62509
-4.68779
-4.75079
-4.81333
-4.62509
-4.68779
-4.75079
-4.81333
-4.62509
-4.68779
-4.75079
-4.81333
-4.62509
-4.68779
-4.75079
-4.81333
-4.62509
-4.68779
-4.75079
-4.81333
)
;

boundaryField
{
    topWall
    {
        type            zeroGradient;
    }
    botWall
    {
        type            zeroGradient;
    }
    inlet
    {
        type            fixedJump;
        patchType       cyclic;
        jump            uniform -0.5;
        value           nonuniform List<scalar> 
15
(
-4.34458
-4.32232
-4.34458
-4.34458
-4.34458
-4.34458
-4.34458
-4.34457
-4.34457
-4.34457
-4.34457
-4.34457
-4.34457
-4.34457
-4.34457
)
;
    }
    outlet
    {
        type            fixedJump;
        patchType       cyclic;
        value           nonuniform List<scalar> 
15
(
-4.84458
-4.82232
-4.84458
-4.84458
-4.84458
-4.84458
-4.84458
-4.84457
-4.84457
-4.84457
-4.84457
-4.84457
-4.84457
-4.84457
-4.84457
)
;
    }
    fixWall
    {
        type            empty;
    }
    procBoundary4to3
    {
        type            processor;
        value           nonuniform List<scalar> 8(-0.00495387 -0.0844783 -0.107096 -0.150851 -0.218787 -0.285363 -0.354739 -0.412294);
    }
    procBoundary4to5
    {
        type            processor;
        value           nonuniform List<scalar> 8(-4.37582 -4.43841 -4.50063 -4.56267 -4.62509 -4.68779 -4.75079 -4.81333);
    }
}


// ************************************************************************* //
