/*--------------------------------*- C++ -*----------------------------------*\
  =========                 |
  \\      /  F ield         | OpenFOAM: The Open Source CFD Toolbox
   \\    /   O peration     | Website:  https://openfoam.org
    \\  /    A nd           | Version:  dev
     \\/     M anipulation  |

   OpenFOAM for Windows 20.09 (v1)
   Built by CFD Support, www.cfdsupport.com (based on Symscape).
\*---------------------------------------------------------------------------*/
FoamFile
{
    version     2.0;
    format      ascii;
    class       surfaceScalarField;
    location    "2";
    object      phi;
}
// * * * * * * * * * * * * * * * * * * * * * * * * * * * * * * * * * * * * * //

dimensions      [0 3 -1 0 0 0 0];

internalField   nonuniform List<scalar> 
217
(
2.86215e-08
5.87957e-11
2.85875e-08
-7.6928e-10
2.85943e-08
-3.80952e-10
2.64663e-10
2.86279e-08
4.77465e-08
-9.9546e-11
4.75907e-08
-6.13492e-10
4.72908e-08
-8.11616e-11
2.02637e-10
4.73528e-08
6.42784e-08
-1.91405e-10
6.41386e-08
-4.73758e-10
6.39393e-08
1.18067e-10
1.08984e-10
6.4033e-08
7.82929e-08
-2.46673e-10
7.81755e-08
-3.56282e-10
7.8052e-08
2.41544e-10
1.32616e-11
7.81477e-08
9.00718e-08
-2.70124e-10
8.99784e-08
-2.62853e-10
8.99079e-08
3.11936e-10
-7.9868e-11
9.00011e-08
9.98887e-08
-2.86456e-10
9.98128e-08
-1.87007e-10
9.97729e-08
3.51761e-10
-1.59847e-10
9.98529e-08
1.07987e-07
-2.93685e-10
1.07932e-07
-1.31353e-10
1.0791e-07
3.73522e-10
-2.2122e-10
1.07971e-07
1.14609e-07
-2.98926e-10
1.14566e-07
-8.79839e-11
1.14555e-07
3.83979e-10
-2.6619e-10
1.146e-07
1.19966e-07
-3.04334e-10
1.19938e-07
-5.96995e-11
1.19933e-07
3.89135e-10
-2.91682e-10
1.19958e-07
1.2426e-07
-3.12355e-10
1.24243e-07
-4.26369e-11
1.24243e-07
3.88569e-10
-3.01822e-10
1.24254e-07
1.27668e-07
-3.20696e-10
1.27662e-07
-3.68499e-11
1.27667e-07
3.83649e-10
-2.98223e-10
1.27664e-07
1.30342e-07
-3.21662e-10
1.3034e-07
-3.5062e-11
1.30357e-07
3.66114e-10
-2.8498e-10
1.30344e-07
1.32424e-07
-3.15065e-10
1.32422e-07
-3.292e-11
1.32446e-07
3.41903e-10
-2.65658e-10
1.32427e-07
1.34021e-07
-2.9945e-10
1.34018e-07
-3.0276e-11
1.34051e-07
3.09037e-10
-2.41228e-10
1.34027e-07
1.35234e-07
1.35232e-07
1.3527e-07
1.35243e-07
2.86129e-08
6.64572e-10
2.85963e-08
3.96937e-10
2.86034e-08
-6.00909e-10
3.84718e-10
4.76382e-08
3.79163e-10
4.77054e-08
3.29675e-10
4.75591e-08
-4.54708e-10
3.55716e-10
6.42366e-08
1.7555e-10
6.42616e-08
3.04647e-10
6.41623e-08
-3.55385e-10
3.31544e-10
7.82839e-08
3.93301e-11
7.82922e-08
2.96374e-10
7.82207e-08
-2.83798e-10
3.14613e-10
9.00886e-08
-4.81739e-11
9.00842e-08
3.00761e-10
9.00397e-08
-2.39264e-10
3.05988e-10
9.99063e-08
-1.0164e-10
9.99011e-08
3.06035e-10
9.98668e-08
-2.04974e-10
3.00498e-10
1.08004e-07
-1.34815e-10
1.08004e-07
3.06194e-10
1.07981e-07
-1.81589e-10
3.01266e-10
1.14618e-07
-1.52612e-10
1.14625e-07
2.9915e-10
1.14608e-07
-1.63814e-10
3.04703e-10
1.19972e-07
-1.66053e-10
1.19988e-07
2.82383e-10
1.19969e-07
-1.44488e-10
3.13073e-10
1.24258e-07
-1.70102e-10
1.24282e-07
2.57791e-10
1.24264e-07
-1.25749e-10
3.24764e-10
1.27665e-07
-1.70995e-10
1.27694e-07
2.28319e-10
1.27673e-07
-1.05127e-10
3.38552e-10
1.30333e-07
-1.5969e-10
1.30365e-07
1.9581e-10
1.30351e-07
-9.09864e-11
3.49307e-10
1.32412e-07
-1.45246e-10
1.32447e-07
1.61306e-10
1.32437e-07
-8.06677e-11
3.55336e-10
1.34003e-07
-1.21124e-10
1.34037e-07
1.27024e-10
1.34036e-07
-8.01072e-11
3.55109e-10
1.35217e-07
1.35252e-07
1.35255e-07
)
;

boundaryField
{
    topWall
    {
        type            calculated;
        value           nonuniform List<scalar> 0();
    }
    botWall
    {
        type            calculated;
        value           nonuniform List<scalar> 0();
    }
    inlet
    {
        type            cyclic;
        value           nonuniform List<scalar> 
15
(
-4.75882e-08
-2.86255e-08
-6.41865e-08
-7.82376e-08
-9.00483e-08
-9.98723e-08
-1.0798e-07
-1.14604e-07
-1.19961e-07
-1.24252e-07
-1.2766e-07
-1.3034e-07
-1.32431e-07
-1.34037e-07
-1.35256e-07
)
;
    }
    outlet
    {
        type            cyclic;
        value           nonuniform List<scalar> 
15
(
4.75882e-08
2.86255e-08
6.41865e-08
7.82376e-08
9.00483e-08
9.98723e-08
1.0798e-07
1.14604e-07
1.19961e-07
1.24252e-07
1.2766e-07
1.3034e-07
1.32431e-07
1.34037e-07
1.35256e-07
)
;
    }
    fixWall
    {
        type            empty;
        value           nonuniform List<scalar> 0();
    }
    procBoundary4to3
    {
        type            processor;
        value           nonuniform List<scalar> 8(-5.51904e-11 8.02855e-10 3.74321e-10 -2.97666e-10 -6.49316e-10 -3.82934e-10 5.95077e-10 -4.07193e-10);
    }
    procBoundary4to5
    {
        type            processor;
        value           nonuniform List<scalar> 8(-2.78608e-10 -3.21378e-11 2.75988e-10 -2.14569e-10 -9.69545e-11 9.26689e-11 -8.50584e-11 3.49844e-10);
    }
}


// ************************************************************************* //
