/*--------------------------------*- C++ -*----------------------------------*\
  =========                 |
  \\      /  F ield         | OpenFOAM: The Open Source CFD Toolbox
   \\    /   O peration     | Website:  https://openfoam.org
    \\  /    A nd           | Version:  dev
     \\/     M anipulation  |

   OpenFOAM for Windows 20.09 (v1)
   Built by CFD Support, www.cfdsupport.com (based on Symscape).
\*---------------------------------------------------------------------------*/
FoamFile
{
    version     2.0;
    format      ascii;
    class       volSymmTensorField;
    location    "2";
    object      R;
}
// * * * * * * * * * * * * * * * * * * * * * * * * * * * * * * * * * * * * * //

dimensions      [0 2 -2 0 0 0 0];

internalField   nonuniform List<symmTensor> 
120
(
(1.65879e-16 -7.90972e-17 -0 1.65868e-16 -0 1.65878e-16)
(1.65925e-16 -7.91136e-17 -0 1.65918e-16 -0 1.65918e-16)
(1.65869e-16 -7.90616e-17 -0 1.65855e-16 -0 1.65871e-16)
(1.65743e-16 -7.90126e-17 -0 1.65759e-16 -0 1.6575e-16)
(1.72059e-16 -8.2103e-17 -0 1.7212e-16 -0 1.72083e-16)
(1.72145e-16 -8.21135e-17 -0 1.72091e-16 -0 1.72122e-16)
(1.72133e-16 -8.20788e-17 -0 1.72066e-16 -0 1.72087e-16)
(1.72021e-16 -8.20563e-17 -0 1.72045e-16 -0 1.7203e-16)
(1.7481e-16 -8.29283e-17 -0 1.7482e-16 -0 1.74826e-16)
(1.7485e-16 -8.29304e-17 -0 1.74815e-16 -0 1.74826e-16)
(1.74904e-16 -8.29379e-17 -0 1.74824e-16 -0 1.74868e-16)
(1.74882e-16 -8.29628e-17 -0 1.74907e-16 -0 1.74899e-16)
(1.74766e-16 -8.23034e-17 -0 1.74805e-16 -0 1.74776e-16)
(1.7481e-16 -8.23003e-17 -0 1.74745e-16 -0 1.74787e-16)
(1.74894e-16 -8.23375e-17 -0 1.74829e-16 -0 1.74868e-16)
(1.74921e-16 -8.23808e-17 -0 1.74964e-16 -0 1.7494e-16)
(1.72671e-16 -8.08276e-17 -0 1.72675e-16 -0 1.72675e-16)
(1.7268e-16 -8.08207e-17 -0 1.72646e-16 -0 1.72658e-16)
(1.72795e-16 -8.08767e-17 -0 1.7277e-16 -0 1.72778e-16)
(1.72852e-16 -8.09233e-17 -0 1.72897e-16 -0 1.72874e-16)
(1.69085e-16 -7.88582e-17 -0 1.69091e-16 -0 1.69088e-16)
(1.69089e-16 -7.88483e-17 -0 1.69047e-16 -0 1.69069e-16)
(1.69226e-16 -7.89164e-17 -0 1.69201e-16 -0 1.69214e-16)
(1.69282e-16 -7.89595e-17 -0 1.69325e-16 -0 1.69305e-16)
(1.6452e-16 -7.6589e-17 -0 1.64533e-16 -0 1.6452e-16)
(1.64519e-16 -7.65762e-17 -0 1.64472e-16 -0 1.64502e-16)
(1.6467e-16 -7.66525e-17 -0 1.64652e-16 -0 1.64663e-16)
(1.64717e-16 -7.66896e-17 -0 1.64767e-16 -0 1.64737e-16)
(1.59395e-16 -7.41425e-17 -0 1.59378e-16 -0 1.59395e-16)
(1.59368e-16 -7.41273e-17 -0 1.5935e-16 -0 1.59353e-16)
(1.59534e-16 -7.42085e-17 -0 1.59531e-16 -0 1.5953e-16)
(1.59584e-16 -7.4239e-17 -0 1.59606e-16 -0 1.59601e-16)
(1.53999e-16 -6.97812e-17 -0 1.54027e-16 -0 1.53999e-16)
(1.53988e-16 -6.98217e-17 -0 1.53948e-16 -0 1.53978e-16)
(1.54154e-16 -7.02468e-17 -0 1.54146e-16 -0 1.54153e-16)
(1.54188e-16 -7.00706e-17 -0 1.54226e-16 -0 1.54198e-16)
(1.48744e-16 -5.54234e-17 -0 1.48723e-16 -0 1.48745e-16)
(1.48698e-16 -5.54558e-17 -0 1.48694e-16 -0 1.48693e-16)
(1.48872e-16 -5.58233e-17 -0 1.4887e-16 -0 1.48873e-16)
(1.48918e-16 -5.56783e-17 -0 1.48914e-16 -0 1.48921e-16)
(1.48018e-16 -4.47871e-17 -0 1.48051e-16 -0 1.4802e-16)
(1.48034e-16 -4.47123e-17 -0 1.48021e-16 -0 1.48034e-16)
(1.48024e-16 -4.50392e-17 -0 1.48037e-16 -0 1.48028e-16)
(1.4803e-16 -4.49612e-17 -0 1.48033e-16 -0 1.48026e-16)
(1.48042e-16 -3.58975e-17 -0 1.48007e-16 -0 1.4804e-16)
(1.4802e-16 -3.56957e-17 -0 1.48047e-16 -0 1.48022e-16)
(1.48019e-16 -3.5981e-17 -0 1.48041e-16 -0 1.48029e-16)
(1.48041e-16 -3.59883e-17 -0 1.48017e-16 -0 1.48032e-16)
(1.48025e-16 -2.83198e-17 -0 1.48045e-16 -0 1.48019e-16)
(1.4804e-16 -2.81027e-17 -0 1.48007e-16 -0 1.48042e-16)
(1.48018e-16 -2.83307e-17 -0 1.4804e-16 -0 1.48032e-16)
(1.48043e-16 -2.83384e-17 -0 1.48016e-16 -0 1.4803e-16)
(1.48048e-16 -2.19336e-17 -0 1.48003e-16 -0 1.48038e-16)
(1.48016e-16 -2.17695e-17 -0 1.48055e-16 -0 1.48018e-16)
(1.48009e-16 -2.19623e-17 -0 1.48052e-16 -0 1.48028e-16)
(1.48041e-16 -2.19847e-17 -0 1.48022e-16 -0 1.48026e-16)
(1.48035e-16 -1.67977e-17 -0 1.48032e-16 -0 1.48021e-16)
(1.4804e-16 -1.66093e-17 -0 1.48008e-16 -0 1.48042e-16)
(1.48013e-16 -1.67762e-17 -0 1.48042e-16 -0 1.48034e-16)
(1.4805e-16 -1.67933e-17 -0 1.48006e-16 -0 1.48033e-16)
(1.65831e-16 -7.90675e-17 -0 1.65836e-16 -0 1.65827e-16)
(1.65933e-16 -7.9119e-17 -0 1.65922e-16 -0 1.65928e-16)
(1.65941e-16 -7.9119e-17 -0 1.65934e-16 -0 1.65943e-16)
(1.65827e-16 -7.90683e-17 -0 1.65853e-16 -0 1.65831e-16)
(1.72041e-16 -8.20905e-17 -0 1.72104e-16 -0 1.72085e-16)
(1.7214e-16 -8.213e-17 -0 1.72159e-16 -0 1.7215e-16)
(1.72174e-16 -8.21288e-17 -0 1.72146e-16 -0 1.72153e-16)
(1.72089e-16 -8.20958e-17 -0 1.72087e-16 -0 1.72094e-16)
(1.74819e-16 -8.29441e-17 -0 1.74905e-16 -0 1.74856e-16)
(1.74882e-16 -8.29563e-17 -0 1.74888e-16 -0 1.74885e-16)
(1.74909e-16 -8.29586e-17 -0 1.74872e-16 -0 1.74892e-16)
(1.74883e-16 -8.29607e-17 -0 1.749e-16 -0 1.74888e-16)
(1.74813e-16 -8.23302e-17 -0 1.74878e-16 -0 1.74842e-16)
(1.74843e-16 -8.23298e-17 -0 1.74851e-16 -0 1.74844e-16)
(1.74876e-16 -8.23364e-17 -0 1.74833e-16 -0 1.74863e-16)
(1.7489e-16 -8.23547e-17 -0 1.74893e-16 -0 1.74894e-16)
(1.72717e-16 -8.08554e-17 -0 1.72754e-16 -0 1.72739e-16)
(1.72731e-16 -8.08508e-17 -0 1.72727e-16 -0 1.72729e-16)
(1.72755e-16 -8.08612e-17 -0 1.72745e-16 -0 1.72746e-16)
(1.72796e-16 -8.08853e-17 -0 1.72801e-16 -0 1.72798e-16)
(1.69124e-16 -7.88821e-17 -0 1.69161e-16 -0 1.6914e-16)
(1.69138e-16 -7.88785e-17 -0 1.69133e-16 -0 1.69135e-16)
(1.69171e-16 -7.88914e-17 -0 1.6915e-16 -0 1.69163e-16)
(1.69213e-16 -7.89163e-17 -0 1.69216e-16 -0 1.69214e-16)
(1.64556e-16 -7.6608e-17 -0 1.64577e-16 -0 1.64567e-16)
(1.64565e-16 -7.66066e-17 -0 1.64565e-16 -0 1.64563e-16)
(1.64602e-16 -7.66213e-17 -0 1.64587e-16 -0 1.64597e-16)
(1.64648e-16 -7.66455e-17 -0 1.64645e-16 -0 1.64648e-16)
(1.59413e-16 -7.41566e-17 -0 1.59427e-16 -0 1.5942e-16)
(1.59424e-16 -7.41583e-17 -0 1.59423e-16 -0 1.59425e-16)
(1.59459e-16 -7.41729e-17 -0 1.59451e-16 -0 1.59455e-16)
(1.59504e-16 -7.41956e-17 -0 1.59505e-16 -0 1.59502e-16)
(1.54023e-16 -6.97084e-17 -0 1.54036e-16 -0 1.54029e-16)
(1.5403e-16 -6.98524e-17 -0 1.54049e-16 -0 1.54036e-16)
(1.54076e-16 -6.99755e-17 -0 1.54057e-16 -0 1.54071e-16)
(1.54122e-16 -6.98565e-17 -0 1.54105e-16 -0 1.54117e-16)
(1.48748e-16 -5.53736e-17 -0 1.48756e-16 -0 1.48751e-16)
(1.48755e-16 -5.54817e-17 -0 1.4877e-16 -0 1.48764e-16)
(1.48793e-16 -5.5566e-17 -0 1.4878e-16 -0 1.48789e-16)
(1.48839e-16 -5.54808e-17 -0 1.48839e-16 -0 1.48832e-16)
(1.4803e-16 -4.47034e-17 -0 1.48028e-16 -0 1.48031e-16)
(1.48015e-16 -4.47678e-17 -0 1.48048e-16 -0 1.48026e-16)
(1.48036e-16 -4.48184e-17 -0 1.48023e-16 -0 1.4803e-16)
(1.48042e-16 -4.48278e-17 -0 1.48014e-16 -0 1.48034e-16)
(1.48037e-16 -3.57479e-17 -0 1.48021e-16 -0 1.48031e-16)
(1.48018e-16 -3.57825e-17 -0 1.48039e-16 -0 1.48032e-16)
(1.48031e-16 -3.58221e-17 -0 1.4803e-16 -0 1.48028e-16)
(1.48033e-16 -3.59336e-17 -0 1.48031e-16 -0 1.48026e-16)
(1.48035e-16 -2.81599e-17 -0 1.48025e-16 -0 1.48028e-16)
(1.48012e-16 -2.8163e-17 -0 1.4805e-16 -0 1.48027e-16)
(1.48032e-16 -2.81877e-17 -0 1.48026e-16 -0 1.48031e-16)
(1.48038e-16 -2.83665e-17 -0 1.48018e-16 -0 1.48034e-16)
(1.48045e-16 -2.18482e-17 -0 1.48012e-16 -0 1.48033e-16)
(1.48016e-16 -2.18222e-17 -0 1.48043e-16 -0 1.48031e-16)
(1.48026e-16 -2.18578e-17 -0 1.48034e-16 -0 1.4803e-16)
(1.48028e-16 -2.20148e-17 -0 1.48035e-16 -0 1.48027e-16)
(1.48041e-16 -1.66936e-17 -0 1.4802e-16 -0 1.48028e-16)
(1.48013e-16 -1.66365e-17 -0 1.48049e-16 -0 1.48028e-16)
(1.48031e-16 -1.66192e-17 -0 1.48021e-16 -0 1.48037e-16)
(1.48032e-16 -1.68464e-17 -0 1.48027e-16 -0 1.48031e-16)
)
;

boundaryField
{
    topWall
    {
        type            kqRWallFunction;
        value           nonuniform List<symmTensor> 0();
    }
    botWall
    {
        type            kqRWallFunction;
        value           nonuniform List<symmTensor> 0();
    }
    inlet
    {
        type            cyclic;
    }
    outlet
    {
        type            cyclic;
    }
    fixWall
    {
        type            empty;
    }
    procBoundary4to3
    {
        type            processor;
        value           nonuniform List<symmTensor> 8((1.58015e-16 -3.95711e-17 -0 1.58018e-16 -0 1.58008e-16) (1.58071e-16 -3.96902e-17 -0 1.58043e-16 -0 1.58062e-16) (1.58001e-16 -3.94316e-17 -0 1.58018e-16 -0 1.58014e-16) (1.57901e-16 -3.94443e-17 -0 1.57925e-16 -0 1.57913e-16) (1.57984e-16 -3.94609e-17 -0 1.57973e-16 -0 1.57975e-16) (1.58063e-16 -3.94378e-17 -0 1.58056e-16 -0 1.58055e-16) (1.58068e-16 -3.9443e-17 -0 1.58073e-16 -0 1.58072e-16) (1.5798e-16 -3.9487e-17 -0 1.57986e-16 -0 1.57985e-16));
    }
    procBoundary4to5
    {
        type            processor;
        value           nonuniform List<symmTensor> 8((1.4805e-16 -1.27525e-17 -0 1.48007e-16 -0 1.48032e-16) (1.48026e-16 -1.25292e-17 -0 1.48037e-16 -0 1.48026e-16) (1.48009e-16 -1.26616e-17 -0 1.48046e-16 -0 1.48034e-16) (1.48039e-16 -1.26841e-17 -0 1.4803e-16 -0 1.48021e-16) (1.48042e-16 -1.26049e-17 -0 1.48023e-16 -0 1.48024e-16) (1.48016e-16 -1.25086e-17 -0 1.48046e-16 -0 1.48028e-16) (1.48021e-16 -1.2404e-17 -0 1.48035e-16 -0 1.48033e-16) (1.48017e-16 -1.27044e-17 -0 1.4805e-16 -0 1.48023e-16));
    }
}


// ************************************************************************* //
