/*--------------------------------*- C++ -*----------------------------------*\
  =========                 |
  \\      /  F ield         | OpenFOAM: The Open Source CFD Toolbox
   \\    /   O peration     | Website:  https://openfoam.org
    \\  /    A nd           | Version:  dev
     \\/     M anipulation  |

   OpenFOAM for Windows 20.09 (v1)
   Built by CFD Support, www.cfdsupport.com (based on Symscape).
\*---------------------------------------------------------------------------*/
FoamFile
{
    version     2.0;
    format      ascii;
    class       volVectorField;
    location    "2";
    object      UMean;
}
// * * * * * * * * * * * * * * * * * * * * * * * * * * * * * * * * * * * * * //

dimensions      [0 1 -1 0 0 0 0];

internalField   nonuniform List<vector> 
120
(
(0.0343566 1.04046e-06 0)
(0.0343316 -1.55155e-05 0)
(0.0342805 -6.9386e-06 0)
(0.0343513 6.06591e-06 0)
(0.0572775 2.097e-06 0)
(0.0573035 -1.5963e-05 0)
(0.0569196 -4.81302e-06 0)
(0.0565865 4.75264e-06 0)
(0.0771265 -8.75791e-06 0)
(0.0771311 -7.38499e-06 0)
(0.0768068 -1.63073e-06 0)
(0.0766561 2.02579e-06 0)
(0.0939463 3.40302e-06 0)
(0.0939463 -1.34495e-05 0)
(0.0936801 5.01045e-06 0)
(0.0936535 2.89959e-06 0)
(0.108084 -1.41805e-05 0)
(0.108079 5.1945e-07 0)
(0.107875 5.7455e-06 0)
(0.107913 -2.48638e-06 0)
(0.119862 3.43459e-06 0)
(0.11986 -1.14489e-05 0)
(0.119695 6.31955e-06 0)
(0.119769 -8.26184e-07 0)
(0.129581 -1.45608e-05 0)
(0.129579 3.52428e-06 0)
(0.129462 7.61979e-06 0)
(0.129531 -5.22161e-06 0)
(0.137528 2.0063e-06 0)
(0.137524 -8.00201e-06 0)
(0.137438 7.57902e-06 0)
(0.137504 -4.27565e-06 0)
(0.143955 -1.29306e-05 0)
(0.143953 3.75969e-06 0)
(0.143902 7.57838e-06 0)
(0.143946 -5.71048e-06 0)
(0.149106 -3.73741e-07 0)
(0.149108 -5.54563e-06 0)
(0.14908 8.14524e-06 0)
(0.149114 -6.53588e-06 0)
(0.153196 -1.10966e-05 0)
(0.153198 3.66049e-06 0)
(0.153196 7.82762e-06 0)
(0.153215 -5.15823e-06 0)
(0.156413 -2.90065e-06 0)
(0.156397 -4.46235e-06 0)
(0.156422 7.37414e-06 0)
(0.156445 -7.15103e-06 0)
(0.158921 -8.49714e-06 0)
(0.158887 1.71173e-06 0)
(0.15893 6.87467e-06 0)
(0.158951 -3.94927e-06 0)
(0.160847 -4.93099e-06 0)
(0.160794 -1.70574e-06 0)
(0.160854 6.7609e-06 0)
(0.160879 -6.04161e-06 0)
(0.162307 -5.85273e-06 0)
(0.162244 -1.16501e-06 0)
(0.162316 4.95427e-06 0)
(0.162341 -3.68892e-06 0)
(0.0343527 1.23927e-05 0)
(0.0343177 7.35257e-06 0)
(0.0343095 -1.16217e-05 0)
(0.0343434 8.07825e-06 0)
(0.0570603 1.12535e-05 0)
(0.05727 8.42209e-06 0)
(0.0572104 -1.03751e-05 0)
(0.0569382 5.44416e-06 0)
(0.0770229 7.2384e-06 0)
(0.0771436 5.09072e-06 0)
(0.0770713 -9.78744e-06 0)
(0.0769249 9.87309e-06 0)
(0.0939008 4.64851e-07 0)
(0.0939795 7.92627e-06 0)
(0.0939087 -5.87189e-06 0)
(0.0938279 2.77251e-06 0)
(0.108089 4.99199e-07 0)
(0.108123 3.79172e-06 0)
(0.108066 -4.27447e-06 0)
(0.108036 1.00505e-05 0)
(0.119878 -1.92327e-06 0)
(0.119897 8.11922e-06 0)
(0.119853 -5.82849e-06 0)
(0.119835 2.18994e-06 0)
(0.129599 -2.44697e-06 0)
(0.129611 4.15475e-06 0)
(0.129586 -2.4033e-06 0)
(0.129575 9.72689e-06 0)
(0.137536 -2.99891e-06 0)
(0.137547 7.89824e-06 0)
(0.13754 -4.736e-06 0)
(0.137525 2.48275e-06 0)
(0.143953 -3.0806e-06 0)
(0.143979 4.27447e-06 0)
(0.14398 -1.99058e-06 0)
(0.143954 9.42057e-06 0)
(0.149093 -3.58532e-06 0)
(0.149125 6.74691e-06 0)
(0.149139 -3.55977e-06 0)
(0.149101 3.47324e-06 0)
(0.153177 -3.56357e-06 0)
(0.153218 3.76185e-06 0)
(0.153234 -1.2669e-06 0)
(0.15319 8.87685e-06 0)
(0.156379 -3.30219e-06 0)
(0.15642 4.99114e-06 0)
(0.156443 -2.98927e-06 0)
(0.156407 5.10753e-06 0)
(0.158872 -2.77951e-06 0)
(0.158918 3.14894e-06 0)
(0.15894 -1.41844e-06 0)
(0.158915 8.52879e-06 0)
(0.160783 -3.07759e-06 0)
(0.160823 3.13621e-06 0)
(0.160851 -2.58465e-06 0)
(0.160844 6.3347e-06 0)
(0.16224 -1.18183e-06 0)
(0.162282 2.22195e-06 0)
(0.16231 -1.71572e-06 0)
(0.162309 7.87641e-06 0)
)
;

boundaryField
{
    topWall
    {
        type            calculated;
        value           nonuniform List<vector> 0();
    }
    botWall
    {
        type            calculated;
        value           nonuniform List<vector> 0();
    }
    inlet
    {
        type            cyclic;
    }
    outlet
    {
        type            cyclic;
    }
    fixWall
    {
        type            empty;
    }
    procBoundary4to3
    {
        type            processor;
        value           nonuniform List<vector> 8((0.0297905 3.89184e-07 0) (0.0297529 -1.58828e-05 0) (0.0297445 -7.46016e-06 0) (0.0298186 6.24708e-06 0) (0.0298038 1.27591e-05 0) (0.0297729 7.27789e-06 0) (0.0297625 -1.19707e-05 0) (0.0297929 9.19723e-06 0));
    }
    procBoundary4to5
    {
        type            processor;
        value           nonuniform List<vector> 8((0.163414 -5.78023e-06 0) (0.16333 8.82003e-07 0) (0.163414 6.16407e-06 0) (0.163443 -3.95344e-06 0) (0.163331 -2.41771e-06 0) (0.163362 1.55845e-06 0) (0.163387 -1.38997e-06 0) (0.163414 6.68024e-06 0));
    }
}


// ************************************************************************* //
