/*--------------------------------*- C++ -*----------------------------------*\
  =========                 |
  \\      /  F ield         | OpenFOAM: The Open Source CFD Toolbox
   \\    /   O peration     | Website:  https://openfoam.org
    \\  /    A nd           | Version:  dev
     \\/     M anipulation  |

   OpenFOAM for Windows 20.09 (v1)
   Built by CFD Support, www.cfdsupport.com (based on Symscape).
\*---------------------------------------------------------------------------*/
FoamFile
{
    version     2.0;
    format      ascii;
    class       surfaceScalarField;
    location    "2";
    object      alphaPhi0.water;
}
// * * * * * * * * * * * * * * * * * * * * * * * * * * * * * * * * * * * * * //

dimensions      [0 3 -1 0 0 0 0];

internalField   nonuniform List<scalar> 
1792
(
1.26214e-09
2.43013e-12
1.27585e-09
-1.38212e-11
1.2737e-09
2.1575e-12
6.28124e-12
1.26743e-09
3.44634e-09
-2.75373e-12
3.46711e-09
-3.46056e-11
3.46266e-09
6.62279e-12
2.24717e-11
3.44648e-09
5.30003e-09
-8.43905e-12
5.328e-09
-6.25746e-11
5.3209e-09
1.37392e-11
4.60521e-11
5.29732e-09
6.86232e-09
-1.58497e-11
6.89433e-09
-9.45684e-11
6.88465e-09
2.34289e-11
7.45846e-11
6.85611e-09
8.16607e-09
-2.46362e-11
8.20037e-09
-1.28855e-10
8.18878e-09
3.50281e-11
1.06485e-10
8.15687e-09
9.24389e-09
-3.40713e-11
9.2791e-09
-1.64059e-10
9.2662e-09
4.79283e-11
1.40392e-10
9.23229e-09
1.01261e-08
-4.39277e-11
1.01616e-08
-1.99601e-10
1.01478e-08
6.17438e-11
1.75439e-10
1.01128e-08
1.0841e-08
-5.40007e-11
1.08765e-08
-2.3512e-10
1.08621e-08
7.613e-11
2.11016e-10
1.08265e-08
1.14143e-08
-6.42277e-11
1.14497e-08
-2.70523e-10
1.1435e-08
9.07733e-11
2.4681e-10
1.13993e-08
1.18693e-08
-7.49232e-11
1.19047e-08
-3.05883e-10
1.18899e-08
1.05514e-10
2.82363e-10
1.18544e-08
1.22264e-08
-8.56551e-11
1.22616e-08
-3.41136e-10
1.22472e-08
1.19916e-10
3.17445e-10
1.22121e-08
1.25035e-08
-9.71264e-11
1.25385e-08
-3.7617e-10
1.25249e-08
1.33512e-10
3.51173e-10
1.24912e-08
1.27162e-08
-1.08649e-10
1.27505e-08
-4.10397e-10
1.27383e-08
1.45692e-10
3.82845e-10
1.27066e-08
1.28772e-08
-1.20993e-10
1.2911e-08
-4.44173e-10
1.29009e-08
1.55778e-10
4.12195e-10
1.28715e-08
1.29992e-08
-1.34826e-10
1.30295e-08
-4.75301e-10
1.30226e-08
1.62265e-10
4.39086e-10
1.29969e-08
1.30877e-08
-1.50659e-10
1.31177e-08
-5.06814e-10
1.31164e-08
1.63628e-10
4.65435e-10
1.30903e-08
1.31521e-08
-1.65893e-10
1.31808e-08
-5.35462e-10
1.31842e-08
1.6019e-10
4.9043e-10
1.31592e-08
1.31981e-08
-1.81221e-10
1.32272e-08
-5.6452e-10
1.32332e-08
1.54181e-10
5.14582e-10
1.3209e-08
1.32314e-08
-1.96347e-10
1.32607e-08
-5.93851e-10
1.32682e-08
1.46674e-10
5.38447e-10
1.32444e-08
1.32547e-08
-2.11881e-10
1.32845e-08
-6.23612e-10
1.32929e-08
1.3826e-10
5.62167e-10
1.32692e-08
1.32711e-08
-2.27533e-10
1.33012e-08
-6.53756e-10
1.33101e-08
1.29428e-10
5.85964e-10
1.32863e-08
1.32824e-08
-2.43482e-10
1.33128e-08
-6.84204e-10
1.33216e-08
1.20581e-10
6.09554e-10
1.32981e-08
1.32898e-08
-2.5935e-10
1.33206e-08
-7.14955e-10
1.33295e-08
1.11718e-10
6.33119e-10
1.33059e-08
1.3295e-08
-2.7517e-10
1.33259e-08
-7.45871e-10
1.33347e-08
1.02922e-10
6.56549e-10
1.33112e-08
1.32981e-08
-2.90468e-10
1.3329e-08
-7.76814e-10
1.33379e-08
9.4066e-11
6.79755e-10
1.33147e-08
1.33004e-08
-3.05425e-10
1.3331e-08
-8.07392e-10
1.33399e-08
8.52432e-11
7.02247e-10
1.33174e-08
1.33017e-08
-3.18929e-10
1.33313e-08
-8.37044e-10
1.33404e-08
7.61763e-11
7.23731e-10
1.33189e-08
1.33032e-08
-3.31318e-10
1.33311e-08
-8.64942e-10
1.33403e-08
6.69294e-11
7.43528e-10
1.33205e-08
1.33041e-08
-3.41641e-10
1.3329e-08
-8.89867e-10
1.33387e-08
5.71385e-11
7.60795e-10
1.33215e-08
1.33059e-08
-3.48731e-10
1.33265e-08
-9.10493e-10
1.33365e-08
4.80225e-11
7.75679e-10
1.33225e-08
1.33075e-08
-3.5371e-10
1.3323e-08
-9.25914e-10
1.33279e-08
4.35051e-11
7.79868e-10
1.33243e-08
1.33068e-08
-3.51719e-10
1.33215e-08
-9.40657e-10
1.33267e-08
3.82787e-11
7.81885e-10
1.33247e-08
1.33067e-08
-3.46937e-10
1.33201e-08
-9.54076e-10
1.33257e-08
3.26473e-11
7.82114e-10
1.33255e-08
1.33076e-08
-3.40965e-10
1.33203e-08
-9.66832e-10
1.33261e-08
2.68706e-11
7.81444e-10
1.33268e-08
1.33081e-08
-3.33485e-10
1.33208e-08
-9.79542e-10
1.33271e-08
2.05679e-11
7.8008e-10
1.33285e-08
1.33098e-08
-3.25337e-10
1.3323e-08
-9.92657e-10
1.33293e-08
1.41929e-11
7.78235e-10
1.33312e-08
1.33123e-08
-3.16388e-10
1.33258e-08
-1.00618e-09
1.33325e-08
7.48045e-12
7.75976e-10
1.33348e-08
1.33167e-08
-3.07054e-10
1.33306e-08
-1.02005e-09
1.33376e-08
5.38215e-13
7.73527e-10
1.334e-08
1.33233e-08
-2.97287e-10
1.33375e-08
-1.03423e-09
1.33447e-08
-6.63139e-12
7.70847e-10
1.33474e-08
1.33335e-08
-2.87098e-10
1.33477e-08
-1.0485e-09
1.33552e-08
-1.41098e-11
7.67778e-10
1.33583e-08
1.33484e-08
-2.76551e-10
1.33625e-08
-1.06262e-09
1.337e-08
-2.16558e-11
7.64273e-10
1.33735e-08
1.33702e-08
-2.65802e-10
1.33833e-08
-1.0757e-09
1.33913e-08
-2.9704e-11
7.59889e-10
1.33957e-08
1.34014e-08
-2.54897e-10
1.34129e-08
-1.08722e-09
1.34208e-08
-3.76155e-11
7.54224e-10
1.34265e-08
1.34453e-08
-2.43482e-10
1.34539e-08
-1.09581e-09
1.34619e-08
-4.556e-11
7.46465e-10
1.34696e-08
1.35068e-08
-2.32524e-10
1.35104e-08
-1.10017e-09
1.35171e-08
-5.23932e-11
7.34006e-10
1.35292e-08
1.35955e-08
-2.28187e-10
1.35832e-08
-1.08821e-09
1.35947e-08
-6.34224e-11
7.22138e-10
1.36074e-08
1.37024e-08
-2.19696e-10
1.3691e-08
-1.07679e-09
1.36991e-08
-7.14678e-11
7.05775e-10
1.37154e-08
1.38467e-08
-2.10412e-10
1.38327e-08
-1.06271e-09
1.38411e-08
-7.98201e-11
6.86689e-10
1.38601e-08
1.40357e-08
-2.00435e-10
1.40202e-08
-1.04712e-09
1.4029e-08
-8.85799e-11
6.66654e-10
1.4049e-08
1.42809e-08
-1.89945e-10
1.42642e-08
-1.0304e-09
1.42739e-08
-9.82541e-11
6.45571e-10
1.4295e-08
1.45955e-08
-1.79074e-10
1.45785e-08
-1.01328e-09
1.45889e-08
-1.08664e-10
6.24485e-10
1.461e-08
1.49951e-08
-1.68234e-10
1.49777e-08
-9.95843e-10
1.49889e-08
-1.19824e-10
6.02941e-10
1.50104e-08
1.54969e-08
-1.57495e-10
1.54802e-08
-9.79029e-10
1.54912e-08
-1.30788e-10
5.80984e-10
1.55132e-08
1.61209e-08
-1.46828e-10
1.61047e-08
-9.6284e-10
1.61164e-08
-1.42423e-10
5.59877e-10
1.61375e-08
1.68884e-08
-1.36101e-10
1.68734e-08
-9.47778e-10
1.68859e-08
-1.54873e-10
5.39551e-10
1.69063e-08
1.78239e-08
-1.25079e-10
1.78103e-08
-9.34113e-10
1.78239e-08
-1.68507e-10
5.20412e-10
1.78431e-08
1.89525e-08
-1.136e-10
1.89407e-08
-9.22251e-10
1.89564e-08
-1.84153e-10
5.02583e-10
1.89742e-08
2.03029e-08
-1.00228e-10
2.02927e-08
-9.12011e-10
2.03114e-08
-2.02886e-10
4.86021e-10
2.0328e-08
2.19018e-08
-8.50908e-11
2.18926e-08
-9.02945e-10
2.19166e-08
-2.26515e-10
4.69274e-10
2.19335e-08
2.34961e-08
-3.86473e-13
2.34554e-08
-3.79455e-12
2.37535e-08
-3.101e-12
2.37972e-08
4.52214e-10
1.26584e-09
1.59183e-12
1.26447e-09
1.34854e-12
1.27562e-09
-1.11514e-11
1.2247e-11
3.44306e-09
5.01351e-12
3.44473e-09
-3.27311e-13
3.46389e-09
-3.03152e-11
3.49719e-11
5.29326e-09
9.0767e-12
5.29921e-09
-6.25682e-12
5.32024e-09
-5.13547e-11
6.08971e-11
6.8518e-09
1.33902e-11
6.86064e-09
-1.50747e-11
6.88274e-09
-7.34651e-11
8.87848e-11
8.1525e-09
1.77607e-11
8.16335e-09
-2.59018e-11
8.18583e-09
-9.59543e-11
1.17375e-10
9.2278e-09
2.22462e-11
9.23992e-09
-3.8008e-11
9.26301e-09
-1.19048e-10
1.45958e-10
1.01082e-08
2.68266e-11
1.0121e-08
-5.07843e-11
1.01445e-08
-1.42534e-10
1.7417e-10
1.08219e-08
3.14715e-11
1.08348e-08
-6.369e-11
1.08586e-08
-1.66308e-10
2.0178e-10
1.13948e-08
3.59262e-11
1.14074e-08
-7.63453e-11
1.14312e-08
-1.90055e-10
2.28844e-10
1.18499e-08
4.04247e-11
1.18616e-08
-8.81194e-11
1.1885e-08
-2.13416e-10
2.55142e-10
1.22078e-08
4.4725e-11
1.2219e-08
-9.93126e-11
1.22412e-08
-2.35654e-10
2.80679e-10
1.24867e-08
4.92317e-11
1.24958e-08
-1.08427e-10
1.25167e-08
-2.56573e-10
3.05298e-10
1.27022e-08
5.36611e-11
1.27093e-08
-1.15529e-10
1.27285e-08
-2.75807e-10
3.29036e-10
1.2867e-08
5.82447e-11
1.28706e-08
-1.19206e-10
1.28868e-08
-2.91916e-10
3.50901e-10
1.29931e-08
5.98587e-11
1.29932e-08
-1.20811e-10
1.30058e-08
-3.04896e-10
3.70834e-10
1.30855e-08
6.17684e-11
1.30863e-08
-1.22388e-10
1.30875e-08
-3.06168e-10
3.84899e-10
1.3154e-08
6.6952e-11
1.31499e-08
-1.18226e-10
1.31539e-08
-3.10234e-10
4.01934e-10
1.32026e-08
7.34213e-11
1.31961e-08
-1.11742e-10
1.31986e-08
-3.12773e-10
4.17751e-10
1.32379e-08
7.99042e-11
1.32303e-08
-1.04211e-10
1.32319e-08
-3.14287e-10
4.33341e-10
1.32623e-08
8.67852e-11
1.32538e-08
-9.57162e-11
1.32543e-08
-3.14766e-10
4.48439e-10
1.32797e-08
9.33277e-11
1.32713e-08
-8.72708e-11
1.32707e-08
-3.14181e-10
4.63723e-10
1.32915e-08
9.99205e-11
1.32829e-08
-7.86662e-11
1.32817e-08
-3.12952e-10
4.78996e-10
1.32997e-08
1.06157e-10
1.32913e-08
-7.03081e-11
1.32897e-08
-3.11267e-10
4.94704e-10
1.33051e-08
1.12372e-10
1.32966e-08
-6.18733e-11
1.32949e-08
-3.09448e-10
5.10413e-10
1.33087e-08
1.18409e-10
1.33005e-08
-5.3709e-11
1.3299e-08
-3.07864e-10
5.26599e-10
1.33111e-08
1.24667e-10
1.33026e-08
-4.51531e-11
1.33016e-08
-3.06867e-10
5.42714e-10
1.33128e-08
1.30779e-10
1.33044e-08
-3.67306e-11
1.33044e-08
-3.06828e-10
5.58887e-10
1.33143e-08
1.37051e-10
1.33051e-08
-2.75616e-11
1.33061e-08
-3.07804e-10
5.74157e-10
1.33157e-08
1.42871e-10
1.33065e-08
-1.83883e-11
1.33087e-08
-3.09975e-10
5.8907e-10
1.33163e-08
1.4739e-10
1.33105e-08
-1.41371e-11
1.33065e-08
-3.04599e-10
5.97378e-10
1.33157e-08
1.54461e-10
1.33099e-08
-9.67885e-12
1.33096e-08
-3.0342e-10
6.05359e-10
1.33154e-08
1.63814e-10
1.33094e-08
-3.69146e-12
1.33085e-08
-3.02572e-10
6.05135e-10
1.33153e-08
1.73948e-10
1.33094e-08
2.20478e-12
1.33112e-08
-3.04367e-10
6.04937e-10
1.33156e-08
1.8509e-10
1.3309e-08
8.83575e-12
1.33132e-08
-3.08544e-10
6.04573e-10
1.33166e-08
1.96995e-10
1.331e-08
1.5362e-11
1.33158e-08
-3.14291e-10
6.04745e-10
1.33184e-08
2.09785e-10
1.33115e-08
2.22575e-11
1.33184e-08
-3.21215e-10
6.05109e-10
1.33215e-08
2.23052e-10
1.33146e-08
2.91736e-11
1.33222e-08
-3.288e-10
6.05983e-10
1.33265e-08
2.36555e-10
1.33193e-08
3.63349e-11
1.33272e-08
-3.36684e-10
6.07073e-10
1.33338e-08
2.50119e-10
1.33266e-08
4.35015e-11
1.33346e-08
-3.44667e-10
6.08522e-10
1.33448e-08
2.63634e-10
1.33374e-08
5.0804e-11
1.33452e-08
-3.52478e-10
6.10117e-10
1.33602e-08
2.76969e-10
1.33531e-08
5.79161e-11
1.33606e-08
-3.59939e-10
6.11737e-10
1.33828e-08
2.89853e-10
1.33756e-08
6.51938e-11
1.33827e-08
-3.67039e-10
6.13442e-10
1.3414e-08
3.02355e-10
1.34071e-08
7.21075e-11
1.34136e-08
-3.73515e-10
6.14719e-10
1.34584e-08
3.136e-10
1.34514e-08
7.90891e-11
1.34567e-08
-3.78831e-10
6.14729e-10
1.35186e-08
3.23856e-10
1.35115e-08
8.55678e-11
1.35156e-08
-3.84687e-10
6.12892e-10
1.36016e-08
3.29249e-10
1.3594e-08
9.19554e-11
1.35958e-08
-3.8748e-10
6.0929e-10
1.37139e-08
3.30833e-10
1.37042e-08
1.01593e-10
1.37036e-08
-3.86892e-10
6.02024e-10
1.38596e-08
3.31364e-10
1.38498e-08
1.11436e-10
1.38479e-08
-3.84984e-10
5.93896e-10
1.40494e-08
3.3102e-10
1.40395e-08
1.21362e-10
1.40371e-08
-3.82589e-10
5.85217e-10
1.42952e-08
3.30871e-10
1.42853e-08
1.31219e-10
1.42826e-08
-3.79894e-10
5.76412e-10
1.46099e-08
3.30943e-10
1.46003e-08
1.40863e-10
1.45975e-08
-3.77177e-10
5.67523e-10
1.50097e-08
3.31733e-10
1.50002e-08
1.50315e-10
1.49973e-08
-3.74363e-10
5.58955e-10
1.55113e-08
3.33572e-10
1.55021e-08
1.59512e-10
1.54993e-08
-3.71601e-10
5.50607e-10
1.61353e-08
3.35836e-10
1.61263e-08
1.68422e-10
1.61236e-08
-3.68854e-10
5.42676e-10
1.69028e-08
3.39327e-10
1.68941e-08
1.77094e-10
1.68916e-08
-3.66403e-10
5.35167e-10
1.78381e-08
3.44361e-10
1.783e-08
1.85169e-10
1.78281e-08
-3.64589e-10
5.2845e-10
1.89667e-08
3.51897e-10
1.89585e-08
1.93327e-10
1.89575e-08
-3.63575e-10
5.2198e-10
2.03168e-08
3.63079e-10
2.03093e-08
2.00858e-10
2.03106e-08
-3.64848e-10
5.16296e-10
2.19168e-08
3.797e-10
2.19081e-08
2.09543e-10
2.19112e-08
-3.67886e-10
5.1056e-10
2.37399e-08
3.99851e-10
2.37129e-08
2.15803e-10
2.36978e-08
-2.39647e-12
4.99721e-10
5.77744e-11
-6.40284e-16
5.56275e-11
-1.97382e-15
2.26972e-10
-1.06918e-16
3.73088e-13
3.2628e-10
1.07716e-13
-3.19046e-18
1.23079e-14
-4.53055e-18
4.75965e-15
-2.01962e-20
4.48239e-16
3.99447e-13
3.14564e-16
-7.37674e-21
5.91444e-17
-8.56371e-21
1.81025e-17
1.666e-22
1.76976e-19
5.01835e-16
7.17506e-19
-1.07599e-23
2.3306e-19
-1.11104e-23
7.66235e-20
2.10621e-24
8.07175e-26
2.97289e-19
1.48884e-21
-1.62593e-26
7.82399e-22
-1.71354e-26
2.3232e-22
8.06389e-27
-7.05322e-28
1.59656e-22
3.14591e-24
-3.07574e-29
2.25049e-24
-2.80142e-29
7.89033e-25
2.0105e-29
-4.91849e-30
4.3257e-25
6.4084e-27
-5.93868e-32
5.35343e-27
-4.71634e-32
2.56521e-27
4.83654e-32
-1.80947e-32
1.19597e-27
1.31129e-29
-1.17569e-34
1.26018e-29
-8.45916e-35
7.19545e-30
1.09953e-34
-5.38865e-35
3.48289e-30
2.85387e-32
-2.42408e-37
2.86691e-32
-1.57085e-37
1.8635e-32
2.36333e-37
-1.40356e-37
1.02163e-32
6.22541e-35
-5.1474e-40
6.31622e-35
-2.99317e-40
4.31828e-35
5.10267e-40
-3.32864e-40
2.53282e-35
1.34227e-37
-1.09193e-42
1.38192e-37
-5.81659e-43
9.71754e-38
1.08649e-42
-7.3183e-43
5.95267e-38
2.87055e-40
-2.28165e-45
2.99233e-40
-1.18333e-45
2.13829e-40
2.22811e-45
-1.52466e-45
1.33522e-40
6.08256e-43
-4.60079e-48
6.3812e-43
-2.42939e-48
4.6016e-43
4.29435e-48
-3.0168e-48
2.90413e-43
1.2746e-45
-8.87223e-51
1.33714e-45
-4.82935e-51
9.66262e-46
7.87781e-51
-5.73445e-51
6.12105e-46
2.6185e-48
-6.12892e-56
2.73208e-48
-6.13678e-57
1.97233e-48
1.00254e-51
-2.32855e-54
1.25126e-48
8.50223e-54
-6.04831e-59
4.14732e-54
-5.76733e-60
9.94888e-52
4.88457e-55
-9.5345e-58
4.87313e-52
9.33118e-57
-4.88957e-62
4.35688e-57
-4.59618e-63
4.92388e-55
1.80941e-58
-2.99543e-61
2.1395e-55
8.61656e-60
-3.26798e-65
4.00446e-60
-3.05192e-66
1.84837e-58
4.36978e-62
-6.46391e-65
7.38522e-59
6.85597e-63
-1.74387e-68
3.18637e-63
-1.65556e-69
4.70851e-62
4.02813e-66
-7.49158e-69
1.94526e-62
4.66879e-66
-7.0076e-72
2.11353e-66
-8.07497e-73
6.61895e-66
-6.46241e-75
-7.43031e-73
3.52239e-66
2.72892e-69
-1.99084e-75
9.39057e-70
-2.25023e-76
5.7117e-70
-5.44247e-76
-6.84645e-76
3.52333e-70
1.50664e-72
-2.4703e-79
7.70332e-73
5.33844e-80
6.72166e-73
-1.1701e-78
-6.46817e-79
4.25278e-73
9.49754e-76
2.88155e-82
6.6512e-76
2.42011e-82
8.0598e-76
-2.07249e-81
-5.08277e-82
6.05453e-76
7.78545e-79
5.77631e-85
6.34156e-79
4.39868e-85
9.63412e-79
-3.27859e-84
-2.51271e-85
8.10633e-79
6.46992e-82
8.06116e-88
5.20216e-82
5.20021e-88
1.15737e-81
-5.05356e-87
1.44713e-88
1.06442e-81
4.93385e-85
6.57592e-91
5.43207e-85
6.81678e-91
1.45611e-84
-7.50376e-90
7.2479e-91
1.39942e-84
3.06271e-88
5.11111e-94
6.26002e-88
7.52368e-94
1.8822e-87
-1.07882e-92
1.39422e-93
1.84897e-87
1.85787e-91
5.79827e-97
6.01718e-91
8.5573e-97
2.44344e-90
-1.53886e-95
2.34553e-96
2.48172e-90
2.2441e-94
1.14079e-99
6.44118e-94
1.21011e-99
3.21798e-93
-2.19864e-98
3.26103e-99
3.41545e-93
2.96728e-97
6.55584e-100
7.25377e-97
1.38064e-102
4.39e-96
-2.873e-102
1.92845e-100
4.74424e-96
1.3042e-100
1.65326e-103
4.95404e-100
1.35881e-105
5.11286e-100
-3.81934e-105
8.62677e-107
5.93699e-100
1.67984e-103
2.32364e-106
6.40671e-103
2.02796e-108
6.18476e-103
-4.40513e-108
1.35613e-108
1.575e-103
1.96607e-106
2.87426e-109
6.94538e-106
2.09864e-111
7.43815e-106
-4.92299e-111
1.33732e-112
2.308e-106
2.18359e-109
3.19867e-112
7.27717e-109
2.20531e-114
8.88487e-109
-5.21012e-114
2.28861e-116
3.91453e-109
2.32223e-112
3.2666e-115
7.2914e-112
2.1077e-117
1.02965e-111
-5.82429e-117
-2.54845e-118
6.68522e-112
2.3946e-115
3.04783e-118
6.94634e-115
1.8061e-120
1.27051e-114
-6.24708e-120
-6.56279e-121
9.42245e-115
2.39651e-118
2.59427e-121
6.62691e-118
7.98261e-123
1.48958e-117
-6.39377e-123
-1.21892e-123
1.18037e-117
2.34157e-121
1.98028e-124
6.48226e-121
1.32945e-126
1.6912e-120
-6.24254e-126
-1.90437e-126
1.4123e-120
2.24959e-124
1.33245e-127
6.12444e-124
1.10201e-129
1.8516e-123
-5.75693e-129
-2.64627e-129
1.64299e-123
2.13586e-127
7.80148e-131
5.796e-127
1.51939e-132
1.96737e-126
-5.05296e-132
-3.37176e-132
1.88368e-126
2.03186e-130
4.08425e-134
5.45395e-130
8.17182e-136
2.016e-129
-4.12522e-135
-3.91455e-135
2.05883e-129
1.93087e-133
2.3293e-137
5.10073e-133
6.82391e-139
2.02897e-132
-3.17431e-138
-4.11533e-138
2.03902e-132
1.85162e-136
1.3605e-140
4.7475e-136
5.63188e-142
1.89932e-135
-2.21539e-141
-3.90196e-141
1.91309e-135
1.74696e-139
3.05525e-143
4.35968e-139
4.60727e-145
1.66735e-138
-1.43227e-144
-3.3738e-144
1.6803e-138
1.70065e-142
2.9584e-145
3.99761e-142
6.77331e-147
1.37229e-141
-4.11814e-149
-7.43486e-149
1.38122e-141
1.01091e-145
1.87542e-149
5.69485e-146
4.98636e-152
4.56428e-146
-1.54407e-152
-5.84691e-152
1.97696e-146
7.83895e-149
1.89189e-152
4.28825e-149
3.90799e-153
2.72149e-149
-5.55572e-156
-3.64205e-155
1.84594e-149
5.70976e-152
6.78766e-155
3.07606e-152
5.21151e-156
1.6999e-152
-3.37226e-159
-2.3635e-158
1.18509e-152
6.91454e-155
1.32503e-157
4.13658e-155
1.36019e-158
2.52744e-155
-1.40149e-162
-1.40394e-161
1.48691e-155
6.87825e-158
1.07188e-160
4.16676e-158
1.02418e-161
2.32088e-158
-5.15603e-166
-7.10904e-165
1.20259e-158
5.07419e-161
6.93271e-164
2.65124e-161
4.42332e-165
1.32221e-161
-1.12162e-169
-2.81881e-168
6.33621e-162
3.03806e-164
3.49594e-167
1.37201e-164
1.38514e-168
6.27471e-165
2.01817e-169
-8.9278e-172
2.80061e-165
1.43041e-167
1.34477e-170
5.71984e-168
8.09196e-173
2.48003e-168
1.2717e-172
-1.97829e-175
1.0252e-168
5.1386e-171
3.85408e-174
1.78403e-171
-2.72785e-179
7.43095e-172
4.26873e-176
-3.21552e-179
2.86067e-172
1.36298e-174
8.02392e-178
4.32586e-175
-1.0012e-182
1.68671e-175
6.59897e-180
-3.32266e-183
6.14223e-176
2.56639e-178
1.16408e-181
7.48823e-179
-1.52467e-186
2.62603e-179
4.7491e-184
-2.16743e-187
9.13292e-180
3.2323e-182
1.133e-185
8.52943e-183
-1.11728e-190
2.59856e-183
-2.44532e-192
-8.74056e-192
8.8748e-184
2.52601e-186
6.70268e-190
5.86485e-187
-4.0299e-195
1.48458e-187
-3.09174e-196
-2.19646e-196
5.33747e-188
1.02019e-190
1.68557e-194
2.03291e-191
-4.55025e-200
4.43594e-192
-4.70363e-201
-1.59969e-201
1.87554e-192
1.00618e-195
1.88291e-196
2.75492e-197
1.75747e-197
1.03537e-10
1.36464e-14
7.8966e-11
1.83844e-15
8.99912e-11
-8.70585e-16
2.60634e-13
3.70188e-13
3.36245e-18
1.02729e-13
1.42531e-18
2.60116e-14
-1.51491e-18
4.52805e-16
6.83996e-16
2.17221e-22
3.3871e-16
2.88311e-21
8.70537e-17
-1.91338e-21
6.38137e-19
5.27644e-19
-8.99502e-25
4.95205e-19
2.02829e-24
2.78834e-19
-1.1831e-24
8.4065e-22
4.3539e-22
-1.33387e-27
4.53304e-22
1.94294e-27
3.83814e-22
-8.71367e-28
1.09066e-24
4.62074e-25
-2.91727e-30
4.13765e-25
1.91354e-30
4.90023e-25
-7.33551e-31
1.61931e-27
6.67689e-28
-6.84959e-33
4.77428e-28
5.11622e-33
6.25721e-28
-6.62952e-34
1.99083e-30
1.21056e-30
-1.6095e-35
6.5629e-31
5.14835e-36
8.58227e-31
-5.8853e-37
2.22489e-33
2.65559e-33
-3.69533e-38
1.28488e-33
1.13893e-38
1.35474e-33
-3.55525e-40
2.29588e-36
6.25999e-36
-8.3091e-41
2.76963e-36
2.51149e-41
2.30511e-36
7.485e-43
1.84295e-39
1.51953e-38
-1.74592e-43
6.26829e-39
5.48877e-44
4.08504e-39
3.79075e-45
6.10871e-43
3.61383e-41
-3.47458e-46
1.46275e-41
9.56026e-47
7.89616e-42
1.26596e-47
9.86364e-47
8.04117e-44
-6.2068e-49
3.2257e-44
1.33282e-49
1.76275e-44
3.10851e-50
7.00691e-49
1.71119e-46
-1.03907e-51
6.70292e-47
1.41135e-52
3.72891e-47
6.36413e-53
4.52436e-52
3.50364e-49
-2.50075e-55
1.33677e-49
3.9782e-56
7.47936e-50
6.98735e-56
7.09178e-53
9.58601e-53
-6.07111e-59
4.76247e-53
-3.69388e-60
5.60237e-53
1.31692e-59
1.03033e-55
3.76005e-56
-2.01792e-63
2.14445e-56
-2.66145e-63
2.75015e-56
3.62882e-63
1.0612e-58
1.17579e-59
6.55239e-66
7.61396e-60
-1.43295e-66
1.22086e-59
5.57996e-68
8.73517e-62
4.7522e-63
1.39625e-67
2.99531e-63
-8.26345e-70
6.05185e-63
-8.43665e-70
5.87726e-65
2.9172e-66
5.98552e-70
1.56264e-66
-3.85884e-73
3.51734e-66
-9.17968e-73
3.10188e-68
1.22619e-69
1.34978e-73
6.65607e-70
-2.74306e-76
1.98171e-69
-9.3373e-76
1.17551e-71
7.9219e-73
1.53094e-78
4.29787e-73
-2.72711e-79
1.24451e-72
-8.17342e-79
2.58813e-75
7.17865e-76
2.75913e-81
3.79822e-76
-3.53701e-82
6.08051e-76
-7.49494e-82
1.90607e-79
8.37288e-79
4.61759e-84
4.00391e-79
-5.3117e-85
2.94743e-79
-8.63848e-85
-4.27732e-87
1.12864e-81
6.63259e-87
5.1031e-82
-8.28176e-88
1.90177e-82
-1.25765e-87
-1.16811e-88
1.58779e-84
1.26194e-88
7.69121e-85
-1.29898e-90
2.21452e-85
-1.92951e-90
-3.46114e-91
2.31781e-87
4.72033e-91
1.2547e-87
-1.711e-93
2.96982e-88
-3.10094e-93
-8.11416e-94
3.52883e-90
1.11764e-93
1.91353e-90
-2.06783e-96
4.57132e-91
-5.01797e-96
-1.60214e-96
5.4578e-93
2.15568e-96
2.88826e-93
-1.83641e-99
6.96128e-94
-7.78949e-99
-2.5145e-99
8.35491e-96
1.01423e-98
4.30374e-96
3.85055e-104
9.77655e-97
-8.10542e-102
-2.92016e-102
1.07286e-98
1.25371e-101
4.45778e-99
2.04218e-105
9.74489e-100
-9.8704e-105
-4.09519e-105
1.28591e-101
1.44178e-104
5.22145e-102
5.38848e-108
1.20875e-102
-1.11483e-107
-4.89649e-108
1.47203e-104
1.54255e-107
6.10216e-105
9.5567e-111
1.35334e-105
-1.20734e-110
-5.63431e-111
1.59477e-107
1.51833e-110
6.81361e-108
1.37624e-113
1.49097e-108
-1.23527e-113
-6.15779e-114
1.613e-110
1.34594e-113
7.18969e-111
1.68648e-116
1.60642e-111
-1.17053e-116
-6.20847e-117
1.48757e-113
1.04098e-116
7.03682e-114
1.77292e-119
1.67039e-114
-1.02033e-119
-5.73873e-120
1.22895e-116
6.27317e-120
6.32753e-117
1.5939e-122
1.68515e-117
-8.25219e-123
-4.88819e-123
8.62034e-120
2.81165e-123
4.90296e-120
1.2374e-125
1.7358e-120
-6.27374e-126
-3.8747e-126
5.35941e-123
8.19903e-127
3.69011e-123
8.60338e-129
1.88948e-123
-4.58582e-129
-2.95417e-129
3.05878e-126
2.77404e-132
2.84647e-126
1.03994e-130
1.5424e-126
-3.06133e-132
-2.22745e-132
1.87568e-129
7.56615e-135
1.97925e-129
2.42811e-133
1.18727e-129
-2.08995e-135
-1.71185e-135
1.08599e-132
1.01579e-138
1.31256e-132
1.52591e-136
9.4417e-133
-1.5239e-138
-1.30652e-138
9.25366e-136
3.51514e-143
8.62574e-136
8.51659e-140
7.74203e-136
-1.13579e-141
-9.8099e-142
7.75768e-139
-3.85173e-145
5.80715e-139
2.2104e-143
6.36775e-139
-8.46906e-145
-7.16851e-145
6.31452e-142
-1.00041e-149
4.23582e-142
3.30971e-145
5.11321e-142
-4.09645e-148
-3.23915e-148
1.08841e-146
-1.0745e-152
1.7647e-145
7.79751e-149
2.6234e-145
-2.55641e-151
-2.20369e-151
8.11013e-150
-7.21756e-156
8.43709e-149
4.04924e-152
1.65631e-148
-1.6803e-154
-1.23701e-154
5.1267e-153
-4.73881e-159
4.45954e-152
4.40956e-155
1.02288e-151
-1.33042e-157
-7.46521e-158
7.98364e-156
-2.76636e-162
6.07104e-155
8.46477e-158
7.67375e-155
-8.95687e-161
-4.11726e-161
5.78094e-159
-1.28037e-165
1.72782e-157
2.2495e-160
1.02738e-157
-6.22107e-164
-2.5684e-164
2.87855e-162
-4.68834e-169
1.56706e-160
1.8759e-163
7.65851e-161
-3.29622e-167
-1.28216e-167
1.20145e-165
-1.49289e-172
1.0268e-163
1.09304e-166
4.54704e-164
-1.33841e-170
-5.17382e-171
4.11954e-169
-3.27849e-176
5.27868e-167
4.76894e-170
2.17446e-167
-4.14725e-174
-1.58815e-174
1.07576e-172
-5.48728e-180
2.11482e-170
1.56423e-173
8.16784e-171
-9.2645e-178
-3.55753e-178
2.16463e-176
-5.63396e-184
6.4381e-174
3.69842e-177
2.31985e-174
-1.44086e-181
-5.34527e-182
3.00389e-180
-3.71494e-188
1.41446e-177
5.94719e-181
4.69193e-178
-1.37882e-185
-4.76004e-186
2.70232e-184
-1.31318e-192
2.09387e-181
5.73028e-185
6.21931e-182
-7.36774e-190
-2.04312e-190
1.45863e-188
-2.05051e-197
1.85315e-185
2.57651e-189
4.69682e-186
-1.53404e-194
-1.99149e-195
3.99825e-193
6.21171e-199
7.71025e-190
2.4665e-194
1.47855e-190
-4.71578e-200
4.13753e-196
1.67126e-198
6.56608e-195
5.70943e-196
)
;

boundaryField
{
    topWall
    {
        type            calculated;
        value           uniform 0;
    }
    botWall
    {
        type            calculated;
        value           uniform 0;
    }
    inlet
    {
        type            cyclic;
        value           nonuniform List<scalar> 
120
(
-2.7629e-13
-1.98773e-10
-2.37301e-08
-2.1917e-08
-2.03163e-08
-1.8964e-08
-1.78349e-08
-1.68991e-08
-1.61315e-08
-1.55077e-08
-1.50059e-08
-1.46064e-08
-1.42914e-08
-1.40457e-08
-1.3856e-08
-1.37109e-08
-1.36001e-08
-1.35178e-08
-1.34567e-08
-1.34123e-08
-1.3381e-08
-1.33589e-08
-1.33436e-08
-1.33331e-08
-1.33261e-08
-1.33213e-08
-1.3318e-08
-1.33156e-08
-1.33135e-08
-1.33114e-08
-1.33088e-08
-1.33025e-08
-1.32992e-08
-1.32937e-08
-1.32908e-08
-1.32882e-08
-1.32855e-08
-1.32828e-08
-1.32791e-08
-1.3274e-08
-1.32664e-08
-1.32554e-08
-1.32392e-08
-1.32163e-08
-1.31828e-08
-1.31369e-08
-1.30725e-08
-1.29858e-08
-1.28649e-08
-1.27047e-08
-1.2492e-08
-1.22156e-08
-1.18586e-08
-1.14041e-08
-1.08309e-08
-1.01162e-08
-9.23445e-09
-8.15729e-09
-6.85491e-09
-5.29436e-09
-3.44117e-09
-1.26334e-09
-5.34533e-16
-8.36908e-19
-1.14774e-21
-1.52528e-24
-2.23003e-27
-2.88931e-30
-3.67009e-33
-4.86596e-36
-7.03131e-39
-1.09402e-41
-1.93108e-44
-3.74915e-47
-7.32737e-50
-1.26717e-52
-1.30337e-55
-1.18161e-58
-9.32867e-62
-6.22254e-65
-3.36533e-68
-1.36509e-71
-3.4153e-75
-3.93687e-79
-9.78083e-83
-1.42096e-85
-1.89234e-88
-2.46319e-91
-3.39337e-94
-4.16472e-97
-7.27409e-100
-6.81254e-103
-7.78344e-106
-8.62463e-109
-9.1624e-112
-9.10633e-115
-8.3589e-118
-7.04801e-121
-5.53199e-124
-4.18995e-127
-3.21632e-130
-2.58483e-133
-2.33224e-136
-2.16304e-139
-1.86623e-142
-1.35129e-145
-8.07917e-149
-5.08107e-152
-4.52939e-155
-4.84623e-158
-3.28488e-161
-1.83092e-164
-8.28002e-168
-2.93664e-171
-7.79432e-175
-1.44584e-178
-1.69919e-182
-1.07054e-186
-2.43756e-191
-5.95849e-197
)
;
    }
    outlet
    {
        type            cyclic;
        value           nonuniform List<scalar> 
120
(
2.7629e-13
1.98773e-10
2.37301e-08
2.1917e-08
2.03163e-08
1.8964e-08
1.78349e-08
1.68991e-08
1.61315e-08
1.55077e-08
1.50059e-08
1.46064e-08
1.42914e-08
1.40457e-08
1.3856e-08
1.37109e-08
1.36001e-08
1.35178e-08
1.34567e-08
1.34123e-08
1.3381e-08
1.33589e-08
1.33436e-08
1.33331e-08
1.33261e-08
1.33213e-08
1.3318e-08
1.33156e-08
1.33135e-08
1.33114e-08
1.33088e-08
1.33025e-08
1.32992e-08
1.32937e-08
1.32908e-08
1.32882e-08
1.32855e-08
1.32828e-08
1.32791e-08
1.3274e-08
1.32664e-08
1.32554e-08
1.32392e-08
1.32163e-08
1.31828e-08
1.31369e-08
1.30725e-08
1.29858e-08
1.28649e-08
1.27047e-08
1.2492e-08
1.22156e-08
1.18586e-08
1.14041e-08
1.08309e-08
1.01162e-08
9.23445e-09
8.15729e-09
6.85491e-09
5.29436e-09
3.44117e-09
1.26334e-09
5.34533e-16
8.36908e-19
1.14774e-21
1.52528e-24
2.23003e-27
2.88931e-30
3.67009e-33
4.86596e-36
7.03131e-39
1.09402e-41
1.93108e-44
3.74915e-47
7.32737e-50
1.26717e-52
1.30337e-55
1.18161e-58
9.32867e-62
6.22254e-65
3.36533e-68
1.36509e-71
3.4153e-75
3.93687e-79
9.78083e-83
1.42096e-85
1.89234e-88
2.46319e-91
3.39337e-94
4.16472e-97
7.27409e-100
6.81254e-103
7.78344e-106
8.62463e-109
9.1624e-112
9.10633e-115
8.3589e-118
7.04801e-121
5.53199e-124
4.18995e-127
3.21632e-130
2.58483e-133
2.33224e-136
2.16304e-139
1.86623e-142
1.35129e-145
8.07917e-149
5.08107e-152
4.52939e-155
4.84623e-158
3.28488e-161
1.83092e-164
8.28002e-168
2.93664e-171
7.79432e-175
1.44584e-178
1.69919e-182
1.07054e-186
2.43756e-191
5.95849e-197
)
;
    }
    fixWall
    {
        type            empty;
        value           nonuniform List<scalar> 0();
    }
}


// ************************************************************************* //
