/*--------------------------------*- C++ -*----------------------------------*\
  =========                 |
  \\      /  F ield         | OpenFOAM: The Open Source CFD Toolbox
   \\    /   O peration     | Website:  https://openfoam.org
    \\  /    A nd           | Version:  dev
     \\/     M anipulation  |

   OpenFOAM for Windows 20.09 (v1)
   Built by CFD Support, www.cfdsupport.com (based on Symscape).
\*---------------------------------------------------------------------------*/
FoamFile
{
    version     2.0;
    format      ascii;
    class       volScalarField;
    location    "2";
    object      alpha.water;
}
// * * * * * * * * * * * * * * * * * * * * * * * * * * * * * * * * * * * * * //

dimensions      [0 0 0 0 0 0 0];

internalField   nonuniform List<scalar> 
960
(
1.00007
1
1
1
0.999999
1
1
1
1
1
1
1
1
1
1
1
1
1
1
1
1
1
1
1
1
1
1
1
1
1
1
1
1
1
1
1
1
1
1
0.999999
1
1
1
0.999999
1
1
1
0.999999
1
1
1
1
1
1
1
1
0.999993
0.999997
0.999985
0.999982
1
0.999997
0.999993
0.999997
1
1
1
1
1
1
1
1
1
1
1
1
1
1
1
1
1
1
1
1
1
1
1
1
1
1
1
1
1
1
1
1
1
1
1
1
1
1
1
1
1
1
1
1
1
1
1
1
1
1
1
1
1.00001
1
1
0.999986
1.00001
1.00002
1.00001
0.999989
1
1
1
1
1
1
1
1
1
1
1
1
1
1
1
1
1
1
1
1
1
1
1
1
1
1
1
1
1
1
1
1
1
1
1
1
1
1
1
1
1
1
1
1
1
1
1
1
1
1
0.999999
1
1
0.999989
0.999997
0.999989
0.999999
0.999986
0.999991
0.999993
1
1
1
1
1
1
1
1
0.999999
1
1
1
0.999999
1
1
0.999999
0.999999
0.999999
1
0.999999
0.999999
0.999999
1
0.999999
0.999999
0.999999
1
0.999999
1
1
1
1
1
1
1
1
1
1
1
1
1
1
1
1
1
1
1
1
0.999999
0.999999
0.999997
1
0.99009
0.986305
0.995148
0.999153
1
1
1
1
1
1
1
1
1
1
1
1
1
1
1
1
1
1
1
1
1
1
1
1
1
1
1
1
1
1
1
1
1
1
1
1
1
1
1
1
1
1
1
1
1
1
1
1
1
1
1
1
1
1
1
1
1.00002
1.00001
1.00001
1
1.00001
1.00001
1.00002
1.00001
1
1
1
1
1
1
1
1
1
1
1
1
1
1
1
1
1
1
1
1
1
1
1
1
1
1
1
1
1
1
1
1
1
1
1
1
1
1
1
1
1
1
1
1
1
1
1
1
1
1
1
1
1.00001
1.00001
1.00001
1.00002
1.00001
1.00001
1.00002
1.00001
1
1
1
1
1
1
1
1
1
1
1
1
1
1
1
1
1
1
1
1
1
1
1
1
1
1
1
1
1
1
1
1
1
1
1
1
1
1
1
1
1
1
1
1
1
1
1
1
1
1
0.999999
1
0.999984
1
1
0.999993
0.999991
0.999999
1.00001
0.999996
1
1
1
1
1
1
1
1
1
1
1
1
1
1
1
1
1
1
1
1
1
1
1
1
1
1
1
1
1
1
1
1
1
1
1
1
1
1
1
1
1
1
1
1
0.999999
1
1
1
0.999999
0.999999
1
1
0.998029
0.997241
0.99577
0.996808
0.00268082
0.00199324
0.00578493
0.0119634
2.0689e-06
8.53331e-07
8.58847e-08
3.52498e-07
4.20533e-09
2.50477e-09
2.49367e-10
1.57117e-10
7.683e-12
6.05253e-12
1.04297e-12
2.2532e-13
1.39309e-14
1.32965e-14
3.97325e-15
9.74449e-16
2.66214e-17
2.76799e-17
1.14606e-17
3.18392e-18
5.35312e-20
5.73938e-20
2.70413e-20
1.27031e-20
1.08203e-22
1.18122e-22
6.21433e-23
3.28663e-23
2.16304e-25
2.50355e-25
1.35097e-25
7.7862e-26
4.38457e-28
5.35119e-28
2.93179e-28
1.77629e-28
9.02759e-31
1.13509e-30
6.32065e-31
3.97442e-31
1.86952e-33
2.39613e-33
1.36398e-33
8.70176e-34
3.86719e-36
5.02852e-36
2.92209e-36
1.87159e-36
7.94024e-39
1.04618e-38
6.20637e-39
3.95524e-39
1.60177e-41
2.1382e-41
1.29512e-41
8.1707e-42
7.91832e-47
2.42946e-47
2.85154e-48
2.83964e-45
8.65492e-50
2.53315e-50
1.04685e-51
1.2921e-48
7.97082e-53
2.28052e-53
2.64463e-55
4.58113e-52
6.3135e-56
1.81802e-56
3.75442e-59
1.1014e-55
4.2303e-59
1.33441e-59
6.02665e-63
1.32939e-59
2.35734e-62
1.0252e-62
4.29786e-63
2.73574e-63
1.11826e-65
6.57263e-66
4.83611e-66
4.12691e-66
5.11105e-69
5.17508e-69
5.64075e-69
5.22952e-69
4.12192e-72
4.43083e-72
7.07465e-72
6.63627e-72
4.35085e-75
3.22453e-75
8.42843e-75
8.34945e-75
2.55249e-78
2.70278e-78
1.0799e-77
1.0741e-77
1.09138e-81
1.87053e-81
1.37925e-80
1.37999e-80
2.25939e-85
1.65863e-84
1.72471e-83
1.78237e-83
4.38783e-88
1.81813e-87
2.24808e-86
2.33991e-86
4.49279e-91
1.88611e-90
3.00446e-89
3.21347e-89
1.26387e-96
1.59166e-93
2.96807e-93
4.23609e-94
1.47928e-99
2.1952e-96
4.23599e-96
1.04361e-96
1.64307e-102
2.20404e-99
4.94446e-99
2.33993e-99
1.74773e-105
2.15388e-102
5.69774e-102
3.85438e-102
1.80258e-108
2.03213e-105
6.37992e-105
5.97342e-105
1.80452e-111
1.79825e-108
7.55307e-108
8.07695e-108
1.76388e-114
1.68132e-111
8.87915e-111
1.00849e-110
1.69558e-117
1.6256e-114
1.04194e-113
1.20147e-113
1.61125e-120
1.5458e-117
1.17963e-116
1.37307e-116
1.5347e-123
1.44996e-120
1.29363e-119
1.49196e-119
1.46104e-126
1.34904e-123
1.35525e-122
1.54237e-122
1.40462e-129
1.24528e-126
1.32929e-125
1.56477e-125
6.91608e-131
1.14499e-129
1.25184e-128
1.47276e-128
1.13184e-133
1.05104e-132
1.11791e-131
1.29728e-131
1.3144e-136
9.57342e-136
9.47943e-135
1.06996e-134
4.6737e-142
4.05208e-142
2.11796e-139
2.57691e-139
9.81427e-144
1.58476e-142
2.3365e-142
1.78427e-142
1.73709e-146
1.37116e-145
1.67244e-145
1.13094e-145
2.61829e-148
2.99074e-148
2.12505e-148
1.19229e-148
5.6245e-151
3.41156e-151
1.90018e-151
9.8467e-152
4.27909e-154
2.23561e-154
1.11496e-154
5.34384e-155
2.66376e-157
1.20288e-157
5.50152e-158
2.45595e-158
1.32033e-160
5.27918e-161
2.28901e-161
9.46447e-162
5.07721e-164
1.76259e-164
7.34166e-165
2.8269e-165
1.47493e-167
4.68091e-168
1.82511e-168
6.64755e-169
3.1429e-171
9.17023e-172
3.2158e-172
1.11858e-172
4.70883e-175
1.24261e-175
3.78559e-176
1.29303e-176
4.76223e-179
1.10575e-179
2.79894e-180
1.00638e-180
2.95599e-183
5.89095e-184
1.28545e-184
5.43543e-185
7.92603e-188
1.48359e-188
2.17105e-189
1.38513e-189
0.00581931
0.00278248
0.00304985
0.00723933
3.81608e-06
2.39298e-06
5.13907e-07
9.34849e-08
5.37385e-09
4.42056e-09
1.61254e-09
1.05266e-10
5.3967e-12
3.50394e-12
2.42831e-12
8.15059e-13
4.09832e-15
1.99844e-15
2.86362e-15
1.25027e-15
4.49537e-18
1.62417e-18
3.43188e-18
1.76306e-18
8.60154e-21
1.5731e-21
4.47592e-21
2.41008e-21
2.02132e-23
2.5308e-24
5.96417e-24
3.37869e-24
5.22155e-26
5.6197e-27
8.96489e-27
5.13144e-27
1.2441e-28
1.43256e-29
1.52251e-29
7.99414e-30
2.85088e-31
4.82259e-32
2.92862e-32
1.21806e-32
6.34796e-34
1.35906e-34
5.42039e-35
1.91996e-35
1.37358e-36
3.13896e-37
1.08908e-37
4.23001e-38
2.87817e-39
6.84208e-40
2.1167e-40
9.83588e-41
5.84604e-42
1.42622e-42
4.17429e-43
1.94968e-43
1.95201e-45
1.93174e-46
1.67379e-46
5.70462e-49
8.06108e-49
6.47575e-50
1.04491e-49
5.16341e-52
2.64086e-52
1.66731e-53
5.8106e-53
4.06799e-55
6.29025e-56
7.0842e-57
3.14297e-56
2.71048e-58
4.42037e-60
5.4474e-60
1.65662e-59
1.4701e-61
4.20073e-66
2.25975e-63
8.29697e-63
6.09413e-65
2.84689e-67
1.45864e-66
5.42028e-66
1.71568e-68
1.18006e-69
1.3563e-69
3.66736e-69
2.73515e-72
2.20136e-72
1.74856e-72
2.85525e-72
5.50028e-73
2.97175e-75
2.69631e-75
2.86954e-75
4.67091e-76
3.53837e-78
4.25114e-78
3.69142e-78
6.61928e-79
4.46282e-81
6.98607e-81
5.16611e-81
1.16827e-81
5.46386e-84
1.06892e-83
7.62982e-84
2.06298e-84
6.63755e-87
1.6234e-86
1.14544e-86
3.11589e-87
8.18638e-90
2.43355e-89
1.73247e-89
3.71256e-90
7.1861e-95
2.6667e-92
1.74884e-92
2.5588e-93
8.22651e-98
3.0531e-95
2.03853e-95
3.92957e-96
8.9133e-101
3.44605e-98
2.28693e-98
3.94199e-99
9.01671e-104
3.65372e-101
2.46917e-101
3.96674e-102
8.31759e-107
3.57796e-104
2.53658e-104
4.06839e-105
6.87435e-110
3.13912e-107
2.42888e-107
4.24377e-108
5.00711e-113
2.38962e-110
2.13322e-110
4.57052e-111
3.2031e-116
1.4922e-113
1.5479e-113
5.30909e-114
9.87276e-118
6.72573e-117
1.01439e-116
6.58327e-117
3.87127e-120
8.89755e-121
8.32536e-120
5.80696e-120
6.47328e-123
8.62107e-126
6.44706e-123
4.85088e-123
9.65035e-126
7.22624e-128
4.87869e-126
4.18135e-126
9.42955e-129
8.67818e-130
3.79179e-129
3.61473e-129
8.40524e-132
1.12635e-132
3.06546e-132
3.06802e-132
6.89792e-135
9.21787e-136
2.60149e-135
2.53901e-135
8.04878e-140
6.56022e-142
1.45361e-138
1.11105e-138
8.98193e-143
8.81258e-144
9.57632e-142
8.69324e-142
5.76153e-146
5.8773e-147
6.3777e-145
5.5926e-145
6.17112e-149
2.67533e-148
5.91022e-148
3.84032e-148
4.73344e-152
1.41357e-150
8.41634e-151
3.96743e-151
2.42788e-155
1.32152e-153
6.45931e-154
2.77082e-154
1.05364e-158
9.00317e-157
3.98747e-157
1.60577e-157
3.80339e-162
4.87252e-160
2.00743e-160
7.64491e-161
1.06314e-165
2.08953e-163
8.07133e-164
2.9023e-164
2.34292e-169
6.96673e-167
2.51065e-167
8.43648e-168
3.67938e-173
1.73213e-170
5.74637e-171
1.77101e-171
3.93747e-177
3.05023e-174
9.06084e-175
2.47585e-175
2.75041e-181
3.49357e-178
8.85525e-179
2.01865e-179
1.15878e-185
2.23419e-182
4.2847e-183
7.06449e-184
1.31717e-190
5.17447e-187
4.49976e-188
4.69582e-189
)
;

boundaryField
{
    topWall
    {
        type            zeroGradient;
    }
    botWall
    {
        type            zeroGradient;
    }
    inlet
    {
        type            cyclic;
    }
    outlet
    {
        type            cyclic;
    }
    fixWall
    {
        type            empty;
    }
}


// ************************************************************************* //
