/*--------------------------------*- C++ -*----------------------------------*\
  =========                 |
  \\      /  F ield         | OpenFOAM: The Open Source CFD Toolbox
   \\    /   O peration     | Website:  https://openfoam.org
    \\  /    A nd           | Version:  dev
     \\/     M anipulation  |

   OpenFOAM for Windows 20.09 (v1)
   Built by CFD Support, www.cfdsupport.com (based on Symscape).
\*---------------------------------------------------------------------------*/
FoamFile
{
    version     2.0;
    format      ascii;
    class       volSymmTensorField;
    location    "2";
    object      devReff;
}
// * * * * * * * * * * * * * * * * * * * * * * * * * * * * * * * * * * * * * //

dimensions      [0 2 -2 0 0 0 0];

internalField   nonuniform List<symmTensor> 
960
(
(1.0131e-07 -0.000652662 0 -1.81062e-07 0 7.97516e-08)
(-7.98181e-08 -0.000657049 0 9.22035e-08 0 -1.23854e-08)
(-2.20715e-09 -0.000659608 0 -2.29297e-09 0 4.50012e-09)
(3.85288e-08 -0.000656585 0 -3.71996e-08 0 -1.32913e-09)
(-3.91524e-08 -0.000560776 0 7.77851e-08 0 -3.86327e-08)
(-1.66982e-07 -0.000564518 0 1.69883e-07 0 -2.90069e-09)
(2.26091e-08 -0.00056583 0 -2.29823e-08 0 3.73276e-10)
(1.14844e-07 -0.000562881 0 -1.10733e-07 0 -4.11122e-09)
(-3.31974e-08 -0.000476591 0 4.82499e-08 0 -1.50525e-08)
(-2.35397e-07 -0.00047915 0 2.34971e-07 0 4.25843e-10)
(4.81259e-08 -0.000480231 0 -4.84081e-08 0 2.82179e-10)
(1.834e-07 -0.000477765 0 -1.79798e-07 0 -3.60144e-09)
(-6.43967e-08 -0.00040164 0 9.73091e-08 0 -3.29124e-08)
(-2.83061e-07 -0.000403263 0 2.80884e-07 0 2.17709e-09)
(6.85381e-08 -0.000403963 0 -6.86211e-08 0 8.29785e-11)
(2.35214e-07 -0.00040215 0 -2.31175e-07 0 -4.0394e-09)
(-6.71778e-08 -0.000335503 0 9.3141e-08 0 -2.59632e-08)
(-3.14368e-07 -0.00033647 0 3.15782e-07 0 -1.41448e-09)
(8.51522e-08 -0.00033681 0 -8.53749e-08 0 2.22678e-10)
(2.72684e-07 -0.000335593 0 -2.70747e-07 0 -1.93708e-09)
(-4.68549e-08 -0.000277634 0 4.35012e-08 0 3.35366e-09)
(-3.26272e-07 -0.000278192 0 3.2418e-07 0 2.09167e-09)
(9.7934e-08 -0.000278311 0 -9.81493e-08 0 2.15273e-10)
(2.93376e-07 -0.000277544 0 -2.8868e-07 0 -4.69637e-09)
(-6.24814e-08 -0.000227561 0 6.84329e-08 0 -5.95153e-09)
(-3.36042e-07 -0.000227841 0 3.37176e-07 0 -1.13452e-09)
(1.06888e-07 -0.000227847 0 -1.07304e-07 0 4.15919e-10)
(3.09975e-07 -0.000227409 0 -3.08201e-07 0 -1.77453e-09)
(-8.13531e-08 -0.00018468 0 1.01164e-07 0 -1.9811e-08)
(-3.34525e-07 -0.000184805 0 3.31925e-07 0 2.6001e-09)
(1.12024e-07 -0.000184774 0 -1.11911e-07 0 -1.13097e-10)
(3.1376e-07 -0.000184563 0 -3.08668e-07 0 -5.09255e-09)
(-5.91981e-08 -0.000148409 0 5.24053e-08 0 6.79275e-09)
(-3.3684e-07 -0.000148406 0 3.366e-07 0 2.4005e-10)
(1.14903e-07 -0.000148378 0 -1.15378e-07 0 4.7542e-10)
(3.18844e-07 -0.000148351 0 -3.17027e-07 0 -1.81684e-09)
(-9.69551e-08 -0.000118029 0 1.24822e-07 0 -2.78674e-08)
(-3.33125e-07 -0.000117959 0 3.31256e-07 0 1.869e-09)
(1.14056e-07 -0.000117971 0 -1.14191e-07 0 1.35312e-10)
(3.1507e-07 -0.000118116 0 -3.11506e-07 0 -3.56431e-09)
(-6.78738e-08 -9.29569e-05 0 6.10904e-08 0 6.78343e-09)
(-3.30172e-07 -9.27309e-05 0 3.26525e-07 0 3.6471e-09)
(1.08688e-07 -9.27621e-05 0 -1.08315e-07 0 -3.72724e-10)
(3.08178e-07 -9.3157e-05 0 -3.03816e-07 0 -4.36155e-09)
(-9.94044e-08 -7.2406e-05 0 1.21971e-07 0 -2.25666e-08)
(-3.27061e-07 -7.21024e-05 0 3.2707e-07 0 -9.07231e-12)
(1.01188e-07 -7.22317e-05 0 -1.02786e-07 0 1.59773e-09)
(2.9744e-07 -7.28074e-05 0 -2.95298e-07 0 -2.14151e-09)
(-8.51969e-08 -5.58328e-05 0 8.48278e-08 0 3.69065e-10)
(-3.1637e-07 -5.53532e-05 0 3.0637e-07 0 1.00005e-08)
(8.52513e-08 -5.56125e-05 0 -8.5103e-08 0 -1.48369e-10)
(2.8175e-07 -5.63466e-05 0 -2.75639e-07 0 -6.11116e-09)
(-1.00489e-07 -4.24816e-05 0 1.14145e-07 0 -1.36564e-08)
(-3.32051e-07 -4.19732e-05 0 3.46163e-07 0 -1.41125e-08)
(6.68829e-08 -4.25454e-05 0 -6.74768e-08 0 5.93843e-10)
(2.69288e-07 -4.32083e-05 0 -2.67627e-07 0 -1.66095e-09)
(-1.04856e-07 -3.18998e-05 0 1.1053e-07 0 -5.67377e-09)
(-3.19065e-07 -3.10216e-05 0 3.11575e-07 0 7.48985e-09)
(4.53956e-08 -3.18142e-05 0 -4.6756e-08 0 1.36037e-09)
(2.60521e-07 -3.27019e-05 0 -2.50974e-07 0 -9.54759e-09)
(-1.03568e-07 -2.36325e-05 0 1.13054e-07 0 -9.48627e-09)
(-3.17564e-07 -2.26021e-05 0 3.22143e-07 0 -4.5791e-09)
(7.19227e-09 -2.34122e-05 0 -4.31442e-09 0 -2.87785e-09)
(2.47283e-07 -2.45185e-05 0 -2.5312e-07 0 5.83677e-09)
(-9.65286e-08 -1.731e-05 0 1.00311e-07 0 -3.78234e-09)
(-3.16586e-07 -1.66704e-05 0 3.16186e-07 0 4.00004e-10)
(-2.65432e-08 -1.7414e-05 0 3.30191e-08 0 -6.4759e-09)
(2.27848e-07 -1.82525e-05 0 -2.27086e-07 0 -7.62637e-10)
(-9.53465e-08 -1.26146e-05 0 1.0516e-07 0 -9.81336e-09)
(-3.05362e-07 -1.21795e-05 0 2.96663e-07 0 8.69939e-09)
(-4.5963e-08 -1.27327e-05 0 4.90678e-08 0 -3.10482e-09)
(2.22393e-07 -1.33489e-05 0 -2.29464e-07 0 7.07175e-09)
(-8.87917e-08 -9.00791e-06 0 8.89921e-08 0 -2.00379e-10)
(-3.18044e-07 -8.83539e-06 0 3.17669e-07 0 3.74757e-10)
(-6.53871e-08 -9.28288e-06 0 7.1515e-08 0 -6.12794e-09)
(2.13852e-07 -9.61802e-06 0 -2.16608e-07 0 2.75585e-09)
(-9.53247e-08 -6.38409e-06 0 1.02976e-07 0 -7.65158e-09)
(-3.18778e-07 -6.31707e-06 0 3.16987e-07 0 1.79069e-09)
(-7.50116e-08 -6.62371e-06 0 8.09168e-08 0 -5.90521e-09)
(2.11867e-07 -6.80415e-06 0 -2.15726e-07 0 3.85922e-09)
(-9.59717e-08 -4.42674e-06 0 1.01033e-07 0 -5.0616e-09)
(-3.21113e-07 -4.4554e-06 0 3.18605e-07 0 2.50846e-09)
(-8.05767e-08 -4.66845e-06 0 8.54944e-08 0 -4.91772e-09)
(2.12186e-07 -4.74707e-06 0 -2.17535e-07 0 5.34936e-09)
(-9.99578e-08 -3.04853e-06 0 1.09191e-07 0 -9.23316e-09)
(-3.20979e-07 -3.11466e-06 0 3.1627e-07 0 4.70913e-09)
(-8.44447e-08 -3.23398e-06 0 8.99462e-08 0 -5.50144e-09)
(2.08029e-07 -3.25703e-06 0 -2.10421e-07 0 2.39202e-09)
(-9.60318e-08 -2.05963e-06 0 9.98993e-08 0 -3.86744e-09)
(-3.26933e-07 -2.11942e-06 0 3.27125e-07 0 -1.91696e-10)
(-8.5576e-08 -2.19519e-06 0 9.06416e-08 0 -5.06558e-09)
(2.08902e-07 -2.20196e-06 0 -2.13705e-07 0 4.80277e-09)
(-9.91271e-08 -1.40512e-06 0 1.09376e-07 0 -1.02485e-08)
(-3.20442e-07 -1.42716e-06 0 3.13889e-07 0 6.55334e-09)
(-8.71294e-08 -1.43185e-06 0 9.24949e-08 0 -5.36555e-09)
(2.05715e-07 -1.47269e-06 0 -2.09305e-07 0 3.58921e-09)
(-8.89884e-08 -9.79359e-07 0 9.10877e-08 0 -2.09935e-09)
(-3.26638e-07 -9.04926e-07 0 3.28989e-07 0 -2.35182e-09)
(-8.92621e-08 -8.31386e-07 0 9.6453e-08 0 -7.19091e-09)
(2.03295e-07 -9.58698e-07 0 -2.09299e-07 0 6.00473e-09)
(-9.12077e-08 -7.82891e-07 0 1.03824e-07 0 -1.26167e-08)
(-3.19234e-07 -5.65189e-07 0 3.1989e-07 0 -6.5597e-10)
(-8.84108e-08 -3.4042e-07 0 9.32418e-08 0 -4.83104e-09)
(1.86538e-07 -6.09252e-07 0 -1.82757e-07 0 -3.78156e-09)
(-8.70047e-08 -7.39245e-07 0 1.01064e-07 0 -1.40593e-08)
(-2.84417e-07 -2.71946e-07 0 2.62934e-07 0 2.1483e-08)
(-8.07572e-08 1.187e-07 0 7.80036e-08 0 2.75354e-09)
(1.83293e-07 -3.14538e-07 0 -1.89222e-07 0 5.92906e-09)
(-7.01507e-08 -8.46339e-07 0 8.22371e-08 0 -1.20864e-08)
(-2.88026e-07 -6.76393e-08 0 2.89822e-07 0 -1.79594e-09)
(-9.51967e-08 6.04697e-07 0 1.0541e-07 0 -1.02136e-08)
(1.62222e-07 -5.67478e-08 0 -1.6368e-07 0 1.45724e-09)
(-5.08627e-08 -1.08226e-06 0 5.28967e-08 0 -2.03397e-09)
(-2.51291e-07 1.29898e-07 0 2.48914e-07 0 2.37725e-09)
(-8.67275e-08 1.14394e-06 0 9.03818e-08 0 -3.65426e-09)
(1.36801e-07 2.48519e-07 0 -1.39328e-07 0 2.52619e-09)
(-1.83865e-08 -1.14987e-06 0 6.75442e-09 0 1.1632e-08)
(-1.93481e-07 3.40717e-07 0 1.78938e-07 0 1.45435e-08)
(-8.19264e-08 1.77447e-06 0 8.29111e-08 0 -9.84698e-10)
(1.10301e-07 6.167e-07 0 -1.18426e-07 0 8.12493e-09)
(-4.21973e-09 -9.27607e-07 0 -4.08915e-09 0 8.30888e-09)
(-1.82715e-07 4.02196e-07 0 2.1331e-07 0 -3.0595e-08)
(-8.8031e-08 1.413e-06 0 1.02319e-07 0 -1.42879e-08)
(4.67007e-08 3.99182e-07 0 -3.77769e-08 0 -8.92387e-09)
(2.67133e-08 -6.78566e-07 0 -4.07213e-08 0 1.40081e-08)
(-1.18342e-07 2.28972e-07 0 1.10849e-07 0 7.493e-09)
(-6.99205e-08 5.4482e-07 0 5.89875e-08 0 1.0933e-08)
(2.68017e-08 -4.43433e-08 0 -1.83919e-08 0 -8.4098e-09)
(2.93108e-08 -4.7254e-07 0 -3.09753e-08 0 1.66455e-09)
(-1.02684e-07 1.42868e-08 0 9.8257e-08 0 4.4272e-09)
(-8.04018e-08 2.16811e-07 0 7.81656e-08 0 2.23617e-09)
(1.21553e-08 -1.95485e-07 0 -5.81263e-09 0 -6.34269e-09)
(4.84489e-08 -3.80291e-07 0 -5.04102e-08 0 1.96124e-09)
(-1.06428e-07 -1.86916e-07 0 1.14233e-07 0 -7.80466e-09)
(-8.86085e-08 -1.34382e-07 0 8.96345e-08 0 -1.02594e-09)
(-3.07101e-09 -3.85594e-07 0 1.38861e-08 0 -1.08151e-08)
(6.76045e-08 -4.75959e-07 0 -7.97436e-08 0 1.21391e-08)
(-8.49881e-08 -4.59292e-07 0 7.53398e-08 0 9.64827e-09)
(-8.15386e-08 -4.89482e-07 0 7.41102e-08 0 7.42832e-09)
(-5.15277e-09 -6.37169e-07 0 1.04939e-08 0 -5.34117e-09)
(7.00689e-08 -7.11571e-07 0 -7.30855e-08 0 3.01659e-09)
(-9.75719e-08 -7.60019e-07 0 1.00353e-07 0 -2.78091e-09)
(-9.64683e-08 -8.91518e-07 0 9.97784e-08 0 -3.31002e-09)
(-6.61123e-09 -9.68956e-07 0 8.49625e-09 0 -1.88503e-09)
(8.89033e-08 -1.15012e-06 0 -1.05336e-07 0 1.64325e-08)
(-1.08075e-07 -1.23852e-06 0 1.19824e-07 0 -1.1749e-08)
(-9.43763e-08 -1.38421e-06 0 9.32153e-08 0 1.16099e-09)
(-1.98103e-08 -1.41306e-06 0 3.15657e-08 0 -1.17554e-08)
(7.97264e-08 -1.80514e-06 0 -8.07249e-08 0 9.98471e-10)
(-9.16545e-08 -1.85309e-06 0 8.50563e-08 0 6.59829e-09)
(-9.84203e-08 -2.01671e-06 0 9.83283e-08 0 9.20583e-11)
(-1.11877e-08 -2.03535e-06 0 1.17331e-08 0 -5.45383e-10)
(9.66135e-08 -2.76989e-06 0 -1.10725e-07 0 1.41117e-08)
(-1.0827e-07 -2.77044e-06 0 1.17529e-07 0 -9.25927e-09)
(-9.86114e-08 -2.88241e-06 0 9.61265e-08 0 2.48489e-09)
(-2.59237e-08 -2.93273e-06 0 3.84977e-08 0 -1.2574e-08)
(9.00572e-08 -4.12872e-06 0 -9.41254e-08 0 4.0682e-09)
(-9.09529e-08 -4.02017e-06 0 8.4287e-08 0 6.66587e-09)
(-1.00324e-07 -4.0522e-06 0 9.73008e-08 0 3.02352e-09)
(-2.05615e-08 -4.20061e-06 0 2.44128e-08 0 -3.85128e-09)
(9.55848e-08 -6.03525e-06 0 -1.0206e-07 0 6.47501e-09)
(-9.90468e-08 -5.7814e-06 0 1.06058e-07 0 -7.01096e-09)
(-1.09527e-07 -5.64183e-06 0 1.12584e-07 0 -3.05709e-09)
(-3.08292e-08 -5.94159e-06 0 3.84606e-08 0 -7.63147e-09)
(1.06744e-07 -8.63623e-06 0 -1.22722e-07 0 1.59775e-08)
(-9.38587e-08 -8.15879e-06 0 1.07634e-07 0 -1.3775e-08)
(-1.07255e-07 -7.78378e-06 0 1.06507e-07 0 7.48166e-10)
(-3.55522e-08 -8.26964e-06 0 3.8737e-08 0 -3.18482e-09)
(8.61368e-08 -1.21508e-05 0 -7.94308e-08 0 -6.70597e-09)
(-4.25921e-08 -1.14102e-05 0 2.6041e-08 0 1.65511e-08)
(-1.04689e-07 -1.06638e-05 0 9.99889e-08 0 4.69976e-09)
(-5.10823e-08 -1.13729e-05 0 5.27382e-08 0 -1.6559e-09)
(1.14003e-07 -1.68381e-05 0 -1.37451e-07 0 2.34472e-08)
(-4.53691e-08 -1.57363e-05 0 6.47053e-08 0 -1.93362e-08)
(-1.09837e-07 -1.44659e-05 0 1.13731e-07 0 -3.89418e-09)
(-8.93197e-08 -1.54699e-05 0 1.04455e-07 0 -1.51355e-08)
(8.40925e-08 -2.2928e-05 0 -8.07985e-08 0 -3.29395e-09)
(5.04894e-08 -2.14515e-05 0 -7.65801e-08 0 2.60906e-08)
(-9.39753e-08 -1.96193e-05 0 8.83151e-08 0 5.66017e-09)
(-1.17015e-07 -2.07873e-05 0 1.1782e-07 0 -8.04303e-10)
(8.04789e-08 -2.99428e-05 0 -8.55846e-08 0 5.10566e-09)
(9.99677e-08 -2.84469e-05 0 -1.11191e-07 0 1.12228e-08)
(-8.27889e-08 -2.68451e-05 0 8.27409e-08 0 4.79681e-11)
(-1.79308e-07 -2.78218e-05 0 2.08721e-07 0 -2.94133e-08)
(8.32203e-08 -3.85193e-05 0 -7.98167e-08 0 -3.40356e-09)
(1.40784e-07 -3.7389e-05 0 -1.49543e-07 0 8.75874e-09)
(-8.96457e-08 -3.65152e-05 0 1.01451e-07 0 -1.18055e-08)
(-1.72885e-07 -3.72316e-05 0 1.6526e-07 0 7.62499e-09)
(1.0204e-07 -4.98893e-05 0 -1.12011e-07 0 9.9706e-09)
(1.62014e-07 -4.90632e-05 0 -1.64161e-07 0 2.14714e-09)
(-7.1967e-08 -4.85725e-05 0 6.73795e-08 0 4.5875e-09)
(-2.17351e-07 -4.91756e-05 0 2.34054e-07 0 -1.6703e-08)
(8.90845e-08 -6.42055e-05 0 -7.85047e-08 0 -1.05798e-08)
(1.90823e-07 -6.36087e-05 0 -2.01508e-07 0 1.06851e-08)
(-8.39577e-08 -6.33981e-05 0 8.73894e-08 0 -3.43165e-09)
(-2.15602e-07 -6.39028e-05 0 2.15351e-07 0 2.51212e-10)
(1.1953e-07 -8.19412e-05 0 -1.36182e-07 0 1.66522e-08)
(1.92824e-07 -8.157e-05 0 -1.94744e-07 0 1.92042e-09)
(-8.84485e-08 -8.15499e-05 0 9.16348e-08 0 -3.18635e-09)
(-2.27174e-07 -8.19545e-05 0 2.30052e-07 0 -2.87835e-09)
(9.66349e-08 -0.000103654 0 -8.66998e-08 0 -9.93508e-09)
(2.10589e-07 -0.000103427 0 -2.23978e-07 0 1.3389e-08)
(-9.0785e-08 -0.000103527 0 8.935e-08 0 1.435e-09)
(-2.42382e-07 -0.000103852 0 2.54948e-07 0 -1.25659e-08)
(1.21737e-07 -0.000129857 0 -1.35236e-07 0 1.34991e-08)
(2.0375e-07 -0.000129803 0 -2.08451e-07 0 4.70161e-09)
(-1.01525e-07 -0.000129991 0 1.04798e-07 0 -3.27293e-09)
(-2.33899e-07 -0.000130201 0 2.35583e-07 0 -1.68401e-09)
(9.36862e-08 -0.000161129 0 -7.90633e-08 0 -1.46229e-08)
(2.13967e-07 -0.000161187 0 -2.3143e-07 0 1.74636e-08)
(-1.02647e-07 -0.000161502 0 1.00984e-07 0 1.66245e-09)
(-2.47947e-07 -0.000161585 0 2.64591e-07 0 -1.66447e-08)
(1.30685e-07 -0.000198063 0 -1.5304e-07 0 2.23543e-08)
(1.80197e-07 -0.000198132 0 -1.70098e-07 0 -1.00994e-08)
(-1.18183e-07 -0.000198603 0 1.2616e-07 0 -7.97696e-09)
(-2.22632e-07 -0.000198661 0 2.18805e-07 0 3.82684e-09)
(8.73291e-08 -0.000241126 0 -6.3297e-08 0 -2.40321e-08)
(2.21604e-07 -0.000241183 0 -2.61195e-07 0 3.95911e-08)
(-1.07151e-07 -0.000241805 0 9.3609e-08 0 1.35419e-08)
(-2.43335e-07 -0.000242029 0 2.67182e-07 0 -2.38473e-08)
(1.44361e-07 -0.00029097 0 -1.73014e-07 0 2.86528e-08)
(1.47987e-07 -0.000290914 0 -1.24794e-07 0 -2.3193e-08)
(-1.53158e-07 -0.000291667 0 1.69302e-07 0 -1.61443e-08)
(-2.00243e-07 -0.000292126 0 1.8825e-07 0 1.1993e-08)
(1.22148e-07 -0.000347921 0 -1.1521e-07 0 -6.93881e-09)
(1.63202e-07 -0.000347838 0 -1.64367e-07 0 1.165e-09)
(-1.72655e-07 -0.00034857 0 1.85514e-07 0 -1.28587e-08)
(-2.31953e-07 -0.000349669 0 2.59904e-07 0 -2.7951e-08)
(1.59176e-07 -0.000412394 0 -1.76883e-07 0 1.77074e-08)
(1.97589e-07 -0.000412213 0 -2.42252e-07 0 4.46626e-08)
(-1.7025e-07 -0.000412819 0 1.44041e-07 0 2.6209e-08)
(-2.0292e-07 -0.000414747 0 2.02538e-07 0 3.81729e-10)
(2.16716e-07 -0.000485734 0 -2.57223e-07 0 4.0507e-08)
(1.35186e-07 -0.000485993 0 -1.1943e-07 0 -1.57554e-08)
(-2.65382e-07 -0.000485212 0 2.87979e-07 0 -2.25968e-08)
(-1.92188e-07 -0.000487583 0 1.65125e-07 0 2.70632e-08)
(3.04441e-08 -0.000779294 0 8.98778e-08 0 -1.20322e-07)
(2.43638e-07 -0.000781201 0 -3.13824e-07 0 7.01861e-08)
(-1.94442e-07 -0.000775306 0 1.4112e-07 0 5.3322e-08)
(-2.30834e-07 -0.000776205 0 2.38023e-07 0 -7.18838e-09)
(5.04035e-08 -0.000654843 0 -5.18454e-08 0 1.44193e-09)
(1.03815e-08 -0.000651955 0 -2.94418e-08 0 1.90604e-08)
(-9.48225e-08 -0.000656142 0 1.25832e-07 0 -3.10099e-08)
(4.98709e-08 -0.000657685 0 -6.34881e-08 0 1.36172e-08)
(1.00018e-07 -0.000561414 0 -9.46512e-08 0 -5.36638e-09)
(-1.25578e-08 -0.000560374 0 -9.49781e-09 0 2.20556e-08)
(-1.62937e-07 -0.000563082 0 1.98775e-07 0 -3.58373e-08)
(1.04443e-07 -0.000563327 0 -1.29147e-07 0 2.47039e-08)
(1.31096e-07 -0.000476619 0 -1.29716e-07 0 -1.38009e-09)
(-3.77206e-08 -0.000476629 0 1.11915e-08 0 2.6529e-08)
(-2.01264e-07 -0.000478338 0 2.40353e-07 0 -3.9089e-08)
(1.40003e-07 -0.000478226 0 -1.66934e-07 0 2.69315e-08)
(1.37465e-07 -0.000401329 0 -1.31789e-07 0 -5.67573e-09)
(-6.65052e-08 -0.000401704 0 4.11432e-08 0 2.5362e-08)
(-2.22569e-07 -0.000402765 0 2.65027e-07 0 -4.2458e-08)
(1.67948e-07 -0.000402572 0 -1.98046e-07 0 3.00973e-08)
(1.48222e-07 -0.000335037 0 -1.4927e-07 0 1.0478e-09)
(-8.6251e-08 -0.000335419 0 6.04835e-08 0 2.57675e-08)
(-2.31014e-07 -0.000336051 0 2.71138e-07 0 -4.01241e-08)
(1.77791e-07 -0.000335914 0 -2.05233e-07 0 2.74413e-08)
(1.41562e-07 -0.000277184 0 -1.34428e-07 0 -7.13324e-09)
(-1.00188e-07 -0.000277455 0 7.48765e-08 0 2.53119e-08)
(-2.38138e-07 -0.0002778 0 2.80071e-07 0 -4.19328e-08)
(1.85672e-07 -0.000277734 0 -2.15553e-07 0 2.98806e-08)
(1.52619e-07 -0.000227207 0 -1.55426e-07 0 2.80676e-09)
(-1.06953e-07 -0.00022736 0 8.16145e-08 0 2.53387e-08)
(-2.3973e-07 -0.000227506 0 2.79706e-07 0 -3.99752e-08)
(1.83708e-07 -0.000227507 0 -2.11967e-07 0 2.82589e-08)
(1.41888e-07 -0.000184485 0 -1.33855e-07 0 -8.03319e-09)
(-1.09182e-07 -0.000184527 0 8.32638e-08 0 2.59181e-08)
(-2.42732e-07 -0.000184481 0 2.84949e-07 0 -4.22162e-08)
(1.82982e-07 -0.000184522 0 -2.12592e-07 0 2.96096e-08)
(1.52699e-07 -0.00014836 0 -1.54849e-07 0 2.14979e-09)
(-1.06427e-07 -0.00014835 0 8.11428e-08 0 2.52841e-08)
(-2.39552e-07 -0.000148148 0 2.80118e-07 0 -4.05662e-08)
(1.7849e-07 -0.000148186 0 -2.0885e-07 0 3.03601e-08)
(1.45181e-07 -0.000118184 0 -1.40947e-07 0 -4.23371e-09)
(-1.00164e-07 -0.000118102 0 7.2821e-08 0 2.73429e-08)
(-2.35799e-07 -0.000117695 0 2.77351e-07 0 -4.15517e-08)
(1.70621e-07 -0.000117701 0 -1.97376e-07 0 2.67549e-08)
(1.45985e-07 -9.33002e-05 0 -1.41574e-07 0 -4.41143e-09)
(-9.07803e-08 -9.31361e-05 0 6.68012e-08 0 2.39792e-08)
(-2.27667e-07 -9.25101e-05 0 2.70534e-07 0 -4.28671e-08)
(1.707e-07 -9.25038e-05 0 -2.05362e-07 0 3.46613e-08)
(1.46455e-07 -7.29338e-05 0 -1.43451e-07 0 -3.0048e-09)
(-7.78432e-08 -7.27541e-05 0 5.52328e-08 0 2.26104e-08)
(-2.08378e-07 -7.18717e-05 0 2.44543e-07 0 -3.61647e-08)
(1.53947e-07 -7.17782e-05 0 -1.79971e-07 0 2.60233e-08)
(1.46468e-07 -5.64301e-05 0 -1.41529e-07 0 -4.93885e-09)
(-4.89548e-08 -5.63692e-05 0 1.93578e-08 0 2.9597e-08)
(-1.98537e-07 -5.52516e-05 0 2.45833e-07 0 -4.72963e-08)
(1.53223e-07 -5.50578e-05 0 -1.89385e-07 0 3.61621e-08)
(1.60812e-07 -4.3034e-05 0 -1.73695e-07 0 1.28831e-08)
(-3.9166e-08 -4.3382e-05 0 1.8037e-08 0 2.1129e-08)
(-1.62549e-07 -4.20699e-05 0 1.97713e-07 0 -3.51641e-08)
(1.3596e-07 -4.1568e-05 0 -1.64635e-07 0 2.86753e-08)
(1.35056e-07 -3.26505e-05 0 -1.25397e-07 0 -9.65892e-09)
(-2.43567e-08 -3.32369e-05 0 3.23551e-09 0 2.11212e-08)
(-1.23854e-07 -3.14023e-05 0 1.58141e-07 0 -3.42867e-08)
(1.24819e-07 -3.08078e-05 0 -1.47674e-07 0 2.28548e-08)
(1.47904e-07 -2.46044e-05 0 -1.66642e-07 0 1.87373e-08)
(5.81882e-09 -2.51322e-05 0 -2.93268e-08 0 2.3508e-08)
(-7.62499e-08 -2.34004e-05 0 1.07344e-07 0 -3.1094e-08)
(1.08169e-07 -2.27978e-05 0 -1.27111e-07 0 1.89414e-08)
(1.0217e-07 -1.81424e-05 0 -8.1086e-08 0 -2.10841e-08)
(6.04311e-09 -1.84429e-05 0 -1.63919e-08 0 1.03488e-08)
(-3.49132e-08 -1.74298e-05 0 5.93857e-08 0 -2.44725e-08)
(1.10658e-07 -1.69297e-05 0 -1.28635e-07 0 1.79773e-08)
(1.22071e-07 -1.32005e-05 0 -1.22391e-07 0 3.19679e-10)
(2.37653e-08 -1.32183e-05 0 -4.0384e-08 0 1.66188e-08)
(-1.88543e-08 -1.25059e-05 0 4.43483e-08 0 -2.5494e-08)
(1.10897e-07 -1.23061e-05 0 -1.30199e-07 0 1.93026e-08)
(1.20648e-07 -9.44104e-06 0 -1.14759e-07 0 -5.88899e-09)
(3.7394e-08 -9.4333e-06 0 -5.48135e-08 0 1.74195e-08)
(-4.85117e-09 -8.92857e-06 0 3.10154e-08 0 -2.61642e-08)
(1.09647e-07 -8.7731e-06 0 -1.31946e-07 0 2.22988e-08)
(1.18655e-07 -6.68806e-06 0 -1.10572e-07 0 -8.08249e-09)
(3.94466e-08 -6.68471e-06 0 -5.35065e-08 0 1.40599e-08)
(3.88871e-09 -6.35947e-06 0 2.22649e-08 0 -2.61537e-08)
(1.09301e-07 -6.24904e-06 0 -1.31428e-07 0 2.21266e-08)
(1.30699e-07 -4.67259e-06 0 -1.32048e-07 0 1.34899e-09)
(4.94475e-08 -4.6934e-06 0 -6.67753e-08 0 1.73277e-08)
(1.07048e-08 -4.49353e-06 0 1.5809e-08 0 -2.65138e-08)
(1.04653e-07 -4.36505e-06 0 -1.2464e-07 0 1.99872e-08)
(1.15061e-07 -3.247e-06 0 -1.02862e-07 0 -1.21989e-08)
(4.96092e-08 -3.26673e-06 0 -6.66387e-08 0 1.70295e-08)
(1.46388e-08 -3.18748e-06 0 1.313e-08 0 -2.77688e-08)
(1.08215e-07 -3.0779e-06 0 -1.28959e-07 0 2.0744e-08)
(1.31234e-07 -2.22809e-06 0 -1.3472e-07 0 3.48646e-09)
(4.98368e-08 -2.21369e-06 0 -6.4322e-08 0 1.44852e-08)
(1.93746e-08 -2.22822e-06 0 6.1781e-09 0 -2.55527e-08)
(1.08925e-07 -2.17516e-06 0 -1.3056e-07 0 2.16348e-08)
(1.13286e-07 -1.56135e-06 0 -1.01058e-07 0 -1.22284e-08)
(5.19429e-08 -1.4697e-06 0 -7.00321e-08 0 1.80891e-08)
(1.74533e-08 -1.55813e-06 0 1.0221e-08 0 -2.76743e-08)
(1.12416e-07 -1.58562e-06 0 -1.33818e-07 0 2.14011e-08)
(1.33303e-07 -1.10778e-06 0 -1.4015e-07 0 6.84724e-09)
(5.16237e-08 -9.39664e-07 0 -6.64818e-08 0 1.48581e-08)
(1.68808e-08 -1.09928e-06 0 8.74323e-09 0 -2.56241e-08)
(1.16031e-07 -1.21304e-06 0 -1.41832e-07 0 2.58007e-08)
(1.04445e-07 -8.57738e-07 0 -8.41824e-08 0 -2.02627e-08)
(4.84681e-08 -5.83117e-07 0 -6.14673e-08 0 1.29992e-08)
(7.9937e-09 -7.61472e-07 0 2.14756e-08 0 -2.94693e-08)
(1.07241e-07 -9.83298e-07 0 -1.21692e-07 0 1.44509e-08)
(1.26162e-07 -6.85114e-07 0 -1.26509e-07 0 3.47117e-10)
(6.26814e-08 -3.90534e-07 0 -8.40202e-08 0 2.13388e-08)
(1.07733e-08 -5.5998e-07 0 9.09482e-09 0 -1.98681e-08)
(1.03833e-07 -8.8654e-07 0 -1.20473e-07 0 1.66399e-08)
(1.20091e-07 -6.03111e-07 0 -1.19526e-07 0 -5.64986e-10)
(6.00599e-08 -3.34254e-07 0 -7.91019e-08 0 1.90421e-08)
(-3.67509e-09 -4.05258e-07 0 2.97413e-08 0 -2.60663e-08)
(1.05849e-07 -7.89885e-07 0 -1.2725e-07 0 2.14013e-08)
(9.99648e-08 -5.26549e-07 0 -8.49764e-08 0 -1.49885e-08)
(6.25292e-08 -4.56338e-07 0 -7.57188e-08 0 1.31896e-08)
(-1.1703e-08 -3.21898e-07 0 4.03549e-08 0 -2.86518e-08)
(8.32196e-08 -7.10128e-07 0 -9.63858e-08 0 1.31662e-08)
(1.275e-07 -4.96519e-07 0 -1.59472e-07 0 3.19714e-08)
(5.59543e-08 -3.27702e-07 0 -6.26587e-08 0 6.70438e-09)
(9.20233e-09 -2.42847e-07 0 -2.97363e-09 0 -6.2287e-09)
(8.96232e-08 -7.47479e-07 0 -1.22648e-07 0 3.30245e-08)
(7.44571e-08 -5.05837e-07 0 -6.71365e-08 0 -7.32065e-09)
(4.9233e-08 -1.77317e-07 0 -3.92484e-08 0 -9.98459e-09)
(-7.43788e-09 -2.32862e-07 0 1.93697e-08 0 -1.19318e-08)
(4.28734e-08 -8.78971e-07 0 -4.84691e-08 0 5.59576e-09)
(8.91155e-08 -4.78178e-07 0 -1.03681e-07 0 1.45656e-08)
(5.08884e-08 -6.82933e-08 0 -4.19774e-08 0 -8.91098e-09)
(-9.00297e-10 -2.4808e-07 0 -4.60094e-09 0 5.50124e-09)
(2.59733e-08 -9.76903e-07 0 -2.1122e-08 0 -4.85129e-09)
(8.50011e-08 -5.16369e-07 0 -9.07925e-08 0 5.79139e-09)
(6.10822e-08 1.25558e-07 0 -5.38478e-08 0 -7.23444e-09)
(-1.10394e-08 -2.822e-07 0 -2.13914e-09 0 1.31785e-08)
(1.01655e-08 -9.99875e-07 0 -3.42087e-11 0 -1.01313e-08)
(8.58906e-08 -5.92486e-07 0 -8.83687e-08 0 2.4781e-09)
(6.4356e-08 4.81854e-08 0 -5.96678e-08 0 -4.68819e-09)
(-3.762e-08 -4.37654e-07 0 3.29225e-08 0 4.69759e-09)
(1.14125e-09 -1.02317e-06 0 1.95528e-08 0 -2.06941e-08)
(1.06634e-07 -7.72598e-07 0 -1.21438e-07 0 1.48048e-08)
(7.15519e-08 -1.80964e-07 0 -6.82259e-08 0 -3.32605e-09)
(-4.78288e-08 -6.16035e-07 0 3.73302e-08 0 1.04986e-08)
(1.13911e-08 -1.07878e-06 0 -3.21227e-09 0 -8.17885e-09)
(1.02877e-07 -1.04789e-06 0 -1.09056e-07 0 6.17948e-09)
(6.76763e-08 -6.10583e-07 0 -5.9699e-08 0 -7.97726e-09)
(-6.68928e-08 -9.61829e-07 0 6.31945e-08 0 3.69823e-09)
(1.9702e-08 -1.27417e-06 0 -1.55403e-08 0 -4.16167e-09)
(1.12854e-07 -1.47044e-06 0 -1.23875e-07 0 1.10213e-08)
(7.1565e-08 -1.14918e-06 0 -6.40249e-08 0 -7.5401e-09)
(-7.10844e-08 -1.38984e-06 0 6.34027e-08 0 7.68167e-09)
(1.43202e-08 -1.59397e-06 0 -3.36483e-09 0 -1.09554e-08)
(1.08864e-07 -2.08472e-06 0 -1.14265e-07 0 5.40197e-09)
(7.18658e-08 -1.90586e-06 0 -6.40293e-08 0 -7.83651e-09)
(-7.92255e-08 -2.04953e-06 0 7.47738e-08 0 4.45166e-09)
(2.36125e-08 -2.16127e-06 0 -1.80321e-08 0 -5.58037e-09)
(1.15628e-07 -2.97322e-06 0 -1.27165e-07 0 1.1537e-08)
(7.53498e-08 -2.87823e-06 0 -6.91086e-08 0 -6.2412e-09)
(-7.75711e-08 -2.95242e-06 0 6.96453e-08 0 7.92576e-09)
(2.0231e-08 -2.99621e-06 0 -9.69314e-09 0 -1.05379e-08)
(1.04518e-07 -4.25713e-06 0 -1.05903e-07 0 1.38494e-09)
(7.25632e-08 -4.23285e-06 0 -6.33998e-08 0 -9.16338e-09)
(-7.80738e-08 -4.24425e-06 0 7.03729e-08 0 7.70089e-09)
(2.32265e-08 -4.22903e-06 0 -1.38506e-08 0 -9.37588e-09)
(1.14861e-07 -6.02059e-06 0 -1.28884e-07 0 1.40225e-08)
(7.59325e-08 -6.04274e-06 0 -6.85808e-08 0 -7.35162e-09)
(-7.79209e-08 -6.00188e-06 0 7.23629e-08 0 5.55801e-09)
(2.61246e-08 -5.93562e-06 0 -2.02998e-08 0 -5.82487e-09)
(1.10045e-07 -8.48047e-06 0 -1.22576e-07 0 1.25311e-08)
(7.64373e-08 -8.60384e-06 0 -6.92301e-08 0 -7.20719e-09)
(-7.89116e-08 -8.41417e-06 0 7.75461e-08 0 1.3655e-09)
(2.57994e-08 -8.28474e-06 0 -2.27923e-08 0 -3.00711e-09)
(8.7218e-08 -1.18276e-05 0 -8.70456e-08 0 -1.72409e-10)
(7.22853e-08 -1.20408e-05 0 -5.78558e-08 0 -1.44295e-08)
(-6.27666e-08 -1.15988e-05 0 5.46886e-08 0 8.07807e-09)
(1.85348e-08 -1.14186e-05 0 -1.52148e-08 0 -3.32005e-09)
(9.2431e-08 -1.63805e-05 0 -1.11984e-07 0 1.95529e-08)
(9.7773e-08 -1.66907e-05 0 -1.03022e-07 0 5.24909e-09)
(-5.38566e-08 -1.58032e-05 0 5.02216e-08 0 3.63493e-09)
(-5.0439e-09 -1.55889e-05 0 1.7781e-08 0 -1.27371e-08)
(5.21615e-08 -2.1802e-05 0 -6.00225e-08 0 7.86095e-09)
(1.04223e-07 -2.22781e-05 0 -1.01303e-07 0 -2.9205e-09)
(-2.53501e-08 -2.11897e-05 0 1.86486e-08 0 6.70144e-09)
(-2.29761e-08 -2.10148e-05 0 3.06209e-08 0 -7.64481e-09)
(1.18984e-08 -2.86887e-05 0 -3.10386e-09 0 -8.79456e-09)
(1.13006e-07 -2.91914e-05 0 -1.11925e-07 0 -1.08094e-09)
(8.42088e-09 -2.84394e-05 0 -3.00712e-08 0 2.16503e-08)
(-7.7768e-08 -2.84424e-05 0 1.02599e-07 0 -2.48308e-08)
(1.75844e-08 -3.79551e-05 0 -3.8982e-08 0 2.13977e-08)
(1.17469e-07 -3.82982e-05 0 -1.18396e-07 0 9.26945e-10)
(-4.80582e-09 -3.78612e-05 0 4.64132e-09 0 1.64501e-10)
(-6.8729e-08 -3.79104e-05 0 6.94005e-08 0 -6.71478e-10)
(-2.25128e-08 -4.95524e-05 0 2.76658e-08 0 -5.15307e-09)
(1.15921e-07 -4.97722e-05 0 -1.13634e-07 0 -2.28655e-09)
(1.31511e-08 -4.95115e-05 0 -2.44579e-08 0 1.13068e-08)
(-9.29356e-08 -4.94751e-05 0 1.08445e-07 0 -1.55095e-08)
(-2.36369e-08 -6.40313e-05 0 2.10484e-08 0 2.58855e-09)
(1.09926e-07 -6.41416e-05 0 -1.00989e-07 0 -8.93719e-09)
(1.47929e-08 -6.40324e-05 0 -2.24985e-08 0 7.70561e-09)
(-8.56649e-08 -6.39557e-05 0 8.81818e-08 0 -2.51697e-09)
(-1.64866e-08 -8.18945e-05 0 5.16531e-09 0 1.13213e-08)
(1.24696e-07 -8.18866e-05 0 -1.30398e-07 0 5.70168e-09)
(1.0715e-08 -8.19216e-05 0 -1.12374e-08 0 5.22413e-10)
(-9.65993e-08 -8.17995e-05 0 1.07596e-07 0 -1.0997e-08)
(-2.99107e-08 -0.000103695 0 3.33268e-08 0 -3.41616e-09)
(1.13096e-07 -0.00010358 0 -1.07413e-07 0 -5.68277e-09)
(2.71079e-08 -0.000103721 0 -4.20712e-08 0 1.49633e-08)
(-9.53476e-08 -0.000103614 0 1.04532e-07 0 -9.18472e-09)
(-1.83726e-08 -0.000129969 0 1.54964e-08 0 2.87623e-09)
(1.18985e-07 -0.000129778 0 -1.19187e-07 0 2.01053e-10)
(1.55534e-08 -0.000130027 0 -1.98433e-08 0 4.28993e-09)
(-1.0329e-07 -0.000129879 0 1.20963e-07 0 -1.76726e-08)
(-1.10761e-08 -0.000161267 0 7.25901e-09 0 3.81713e-09)
(1.13195e-07 -0.000161056 0 -1.08896e-07 0 -4.29884e-09)
(2.3854e-08 -0.000161343 0 -3.68146e-08 0 1.29606e-08)
(-8.55068e-08 -0.000161219 0 8.83186e-08 0 -2.81175e-09)
(-2.68417e-09 -0.00019819 0 -7.75445e-10 0 3.45962e-09)
(1.18601e-07 -0.00019798 0 -1.2049e-07 0 1.88837e-09)
(8.98638e-09 -0.000198361 0 -9.95437e-09 0 9.67986e-10)
(-1.00307e-07 -0.000198249 0 1.20063e-07 0 -1.97563e-08)
(4.7459e-09 -0.000241321 0 -4.20177e-09 0 -5.44136e-10)
(1.05187e-07 -0.000241046 0 -9.80834e-08 0 -7.10411e-09)
(2.17188e-08 -0.000241424 0 -3.9396e-08 0 1.76772e-08)
(-7.78729e-08 -0.000241437 0 8.09285e-08 0 -3.05561e-09)
(3.64331e-08 -0.000291151 0 -4.87901e-08 0 1.23569e-08)
(1.21848e-07 -0.000290755 0 -1.30095e-07 0 8.24731e-09)
(-2.9682e-09 -0.000291251 0 3.16499e-09 0 -1.96791e-10)
(-8.717e-08 -0.000291472 0 1.01796e-07 0 -1.46256e-08)
(6.99141e-08 -0.00034825 0 -9.13867e-08 0 2.14726e-08)
(1.01991e-07 -0.000347771 0 -9.46681e-08 0 -7.32303e-09)
(-1.64625e-08 -0.000348036 0 1.51927e-08 0 1.2698e-09)
(-7.8681e-08 -0.000348649 0 9.00126e-08 0 -1.13316e-08)
(6.45747e-08 -0.000413232 0 -4.44484e-08 0 -2.01263e-08)
(1.11962e-07 -0.000412167 0 -1.03049e-07 0 -8.91248e-09)
(1.25614e-08 -0.00041237 0 -5.48328e-08 0 4.22714e-08)
(-7.78269e-08 -0.000413656 0 8.51552e-08 0 -7.32833e-09)
(1.18334e-07 -0.000485777 0 -1.04875e-07 0 -1.34592e-08)
(1.46586e-07 -0.00048487 0 -1.54956e-07 0 8.37082e-09)
(-7.60551e-08 -0.000484734 0 8.68932e-08 0 -1.08382e-08)
(-4.74124e-08 -0.000486313 0 2.49202e-08 0 2.24922e-08)
(1.286e-07 -0.000776854 0 -8.47361e-08 0 -4.38636e-08)
(9.45216e-08 -0.000776266 0 -3.33628e-08 0 -6.11588e-08)
(-5.86833e-08 -0.000776117 0 4.19014e-08 0 1.6782e-08)
(-7.32714e-08 -0.000777291 0 4.10564e-08 0 3.2215e-08)
(1.58642e-07 -0.0031117 0 -2.72658e-07 0 1.14017e-07)
(1.85172e-07 -0.00311892 0 -8.35033e-08 0 -1.01669e-07)
(1.50119e-07 -0.00307647 0 -3.74736e-07 0 2.24617e-07)
(-2.94224e-07 -0.00303037 0 3.16294e-07 0 -2.20696e-08)
(-1.65838e-06 -0.00484184 0 1.93844e-06 0 -2.80057e-07)
(1.51401e-06 -0.00484522 0 -1.67744e-06 0 1.63436e-07)
(2.20434e-06 -0.00481433 0 -1.70306e-06 0 -5.01278e-07)
(-6.58881e-07 -0.00478926 0 7.86812e-07 0 -1.27931e-07)
(-4.20204e-07 -0.00415114 0 6.22502e-08 0 3.57954e-07)
(9.9383e-07 -0.00414825 0 -7.8147e-07 0 -2.1236e-07)
(1.93636e-06 -0.00416157 0 -2.08027e-06 0 1.43912e-07)
(-6.83445e-07 -0.00419628 0 5.51502e-07 0 1.31943e-07)
(-7.07112e-07 -0.00350454 0 9.67438e-07 0 -2.60325e-07)
(1.26624e-06 -0.00350348 0 -1.52796e-06 0 2.61723e-07)
(1.29334e-06 -0.00351714 0 -1.48171e-06 0 1.88376e-07)
(-8.95811e-07 -0.00353854 0 9.58718e-07 0 -6.29068e-08)
(-1.04084e-07 -0.00293388 0 4.84682e-08 0 5.56156e-08)
(6.76529e-07 -0.00293369 0 -5.64739e-07 0 -1.1179e-07)
(5.14585e-07 -0.00294513 0 -4.05492e-07 0 -1.09093e-07)
(-8.20143e-07 -0.00295641 0 8.31857e-07 0 -1.17145e-08)
(-9.25193e-08 -0.00243361 0 8.93037e-08 0 3.2156e-09)
(6.4675e-07 -0.002434 0 -6.63544e-07 0 1.67939e-08)
(3.72109e-07 -0.00244387 0 -3.98238e-07 0 2.6129e-08)
(-6.65294e-07 -0.00244725 0 6.42295e-07 0 2.29985e-08)
(-1.17021e-07 -0.00199987 0 2.20204e-07 0 -1.03183e-07)
(5.58703e-07 -0.00199976 0 -6.6957e-07 0 1.10867e-07)
(2.15887e-07 -0.00200863 0 -2.50525e-07 0 3.46384e-08)
(-6.06042e-07 -0.00200775 0 6.93527e-07 0 -8.74847e-08)
(1.2501e-07 -0.00162731 0 -2.47046e-07 0 1.22036e-07)
(2.4299e-07 -0.00162733 0 -1.48145e-07 0 -9.48448e-08)
(4.87509e-08 -0.00163472 0 -1.96886e-08 0 -2.90624e-08)
(-2.83121e-07 -0.00163188 0 1.96905e-07 0 8.62163e-08)
(-1.7901e-07 -0.00131075 0 3.58943e-07 0 -1.79933e-07)
(3.19986e-07 -0.00131133 0 -4.38073e-07 0 1.18088e-07)
(6.17268e-08 -0.00131784 0 -9.49634e-08 0 3.32365e-08)
(-2.98465e-07 -0.00131435 0 4.05107e-07 0 -1.06642e-07)
(1.22321e-07 -0.00104608 0 -2.68787e-07 0 1.46466e-07)
(6.00314e-08 -0.00104652 0 -1.87859e-08 0 -4.12455e-08)
(2.45871e-09 -0.00105217 0 -2.94443e-08 0 2.69856e-08)
(6.90574e-09 -0.0010493 0 -6.5972e-08 0 5.90662e-08)
(-2.0901e-07 -0.000827133 0 3.9057e-07 0 -1.8156e-07)
(8.15296e-08 -0.000825307 0 -1.63401e-07 0 8.18715e-08)