/*--------------------------------*- C++ -*----------------------------------*\
  =========                 |
  \\      /  F ield         | OpenFOAM: The Open Source CFD Toolbox
   \\    /   O peration     | Website:  https://openfoam.org
    \\  /    A nd           | Version:  dev
     \\/     M anipulation  |

   OpenFOAM for Windows 20.09 (v1)
   Built by CFD Support, www.cfdsupport.com (based on Symscape).
\*---------------------------------------------------------------------------*/
FoamFile
{
    version     2.0;
    format      ascii;
    class       volScalarField;
    location    "2";
    object      epsilon;
}
// * * * * * * * * * * * * * * * * * * * * * * * * * * * * * * * * * * * * * //

dimensions      [0 2 -3 0 0 0 0];

internalField   nonuniform List<scalar> 
960
(
1.73748e-12
1.73748e-12
1.73748e-12
1.73748e-12
2.997e-13
2.99699e-13
2.99699e-13
2.99699e-13
1.02038e-13
1.02037e-13
1.02037e-13
1.02037e-13
4.79752e-14
4.79739e-14
4.79743e-14
4.79744e-14
2.70651e-14
2.70643e-14
2.70646e-14
2.70647e-14
1.72085e-14
1.7208e-14
1.72083e-14
1.72084e-14
1.18546e-14
1.18543e-14
1.18545e-14
1.18546e-14
8.64373e-15
8.64355e-15
8.64377e-15
8.64386e-15
6.5742e-15
6.57407e-15
6.57429e-15
6.57438e-15
5.16538e-15
5.16527e-15
5.16548e-15
5.16558e-15
4.16438e-15
4.16429e-15
4.16449e-15
4.16458e-15
3.42828e-15
3.4282e-15
3.42839e-15
3.42849e-15
2.87157e-15
2.8715e-15
2.87168e-15
2.87177e-15
2.44062e-15
2.44056e-15
2.44073e-15
2.44082e-15
2.10047e-15
2.10043e-15
2.10058e-15
2.10067e-15
1.82737e-15
1.82734e-15
1.82748e-15
1.82756e-15
1.60508e-15
1.60504e-15
1.60518e-15
1.60526e-15
1.42198e-15
1.42194e-15
1.42208e-15
1.42215e-15
1.26961e-15
1.26957e-15
1.26969e-15
1.26977e-15
1.14168e-15
1.14164e-15
1.14176e-15
1.14183e-15
1.03346e-15
1.03343e-15
1.03353e-15
1.0336e-15
9.41338e-16
9.41298e-16
9.41396e-16
9.41458e-16
8.6249e-16
8.62448e-16
8.62538e-16
8.62596e-16
7.94711e-16
7.94667e-16
7.94749e-16
7.94803e-16
7.36246e-16
7.36199e-16
7.36273e-16
7.36322e-16
6.85682e-16
6.85632e-16
6.85698e-16
6.85744e-16
6.41874e-16
6.41821e-16
6.41879e-16
6.41922e-16
6.03885e-16
6.03828e-16
6.03878e-16
6.03917e-16
5.70937e-16
5.70876e-16
5.70919e-16
5.70954e-16
5.42384e-16
5.42318e-16
5.42353e-16
5.42385e-16
5.16387e-16
5.16316e-16
5.16346e-16
5.16377e-16
4.93191e-16
4.93114e-16
4.9314e-16
4.93171e-16
4.72995e-16
4.72911e-16
4.72933e-16
4.72965e-16
4.55463e-16
4.55374e-16
4.55391e-16
4.55425e-16
4.40313e-16
4.40217e-16
4.4023e-16
4.40265e-16
4.27299e-16
4.27198e-16
4.27206e-16
4.27243e-16
4.16216e-16
4.16108e-16
4.16113e-16
4.16151e-16
4.06885e-16
4.06771e-16
4.06771e-16
4.06811e-16
3.99157e-16
3.99036e-16
3.99032e-16
3.99074e-16
3.92902e-16
3.92776e-16
3.92767e-16
3.9281e-16
3.88015e-16
3.87883e-16
3.8787e-16
3.87915e-16
3.84407e-16
3.8427e-16
3.84252e-16
3.84299e-16
3.82009e-16
3.81867e-16
3.81843e-16
3.81893e-16
3.80767e-16
3.8062e-16
3.8059e-16
3.80642e-16
3.8064e-16
3.80488e-16
3.80451e-16
3.80507e-16
3.79508e-16
3.79354e-16
3.79306e-16
3.79368e-16
3.78371e-16
3.78215e-16
3.78155e-16
3.78223e-16
3.78338e-16
3.7818e-16
3.78107e-16
3.78181e-16
3.79437e-16
3.79278e-16
3.79188e-16
3.7927e-16
3.81713e-16
3.81552e-16
3.81443e-16
3.81533e-16
3.85227e-16
3.85066e-16
3.84934e-16
3.85033e-16
3.90063e-16
3.89901e-16
3.89742e-16
3.89851e-16
3.96324e-16
3.96161e-16
3.9597e-16
3.96089e-16
4.04134e-16
4.03971e-16
4.03743e-16
4.03873e-16
4.13647e-16
4.13484e-16
4.1321e-16
4.13351e-16
4.25043e-16
4.24881e-16
4.24553e-16
4.24703e-16
4.38537e-16
4.38377e-16
4.37985e-16
4.3814e-16
4.54381e-16
4.54225e-16
4.53756e-16
4.53911e-16
4.82829e-16
4.82809e-16
4.82122e-16
4.82001e-16
5.27734e-16
5.27736e-16
5.2687e-16
5.26658e-16
1.73748e-12
1.73748e-12
1.73748e-12
1.73748e-12
2.99699e-13
2.99699e-13
2.99699e-13
2.99699e-13
1.02037e-13
1.02037e-13
1.02037e-13
1.02037e-13
4.79744e-14
4.79745e-14
4.7974e-14
4.7974e-14
2.70647e-14
2.70647e-14
2.70643e-14
2.70644e-14
1.72083e-14
1.72083e-14
1.7208e-14
1.72082e-14
1.18546e-14
1.18545e-14
1.18543e-14
1.18545e-14
8.6438e-15
8.64372e-15
8.64354e-15
8.64382e-15
6.5743e-15
6.57422e-15
6.57407e-15
6.57436e-15
5.16548e-15
5.16541e-15
5.16528e-15
5.16556e-15
4.16448e-15
4.16441e-15
4.1643e-15
4.16457e-15
3.42838e-15
3.42831e-15
3.42822e-15
3.42847e-15
2.87166e-15
2.87159e-15
2.87152e-15
2.87175e-15
2.4407e-15
2.44064e-15
2.44059e-15
2.44079e-15
2.10055e-15
2.10049e-15
2.10046e-15
2.10064e-15
1.82745e-15
1.8274e-15
1.82737e-15
1.82753e-15
1.60515e-15
1.6051e-15
1.60508e-15
1.60523e-15
1.42205e-15
1.422e-15
1.42198e-15
1.42212e-15
1.26967e-15
1.26962e-15
1.2696e-15
1.26973e-15
1.14173e-15
1.14169e-15
1.14168e-15
1.14179e-15
1.03351e-15
1.03347e-15
1.03346e-15
1.03356e-15
9.41377e-16
9.41338e-16
9.4133e-16
9.41424e-16
8.62521e-16
8.62484e-16
8.62479e-16
8.62563e-16
7.94734e-16
7.947e-16
7.94696e-16
7.94771e-16
7.3626e-16
7.36227e-16
7.36226e-16
7.36292e-16
6.85687e-16
6.85657e-16
6.85657e-16
6.85714e-16
6.4187e-16
6.41842e-16
6.41844e-16
6.41893e-16
6.03871e-16
6.03845e-16
6.03848e-16
6.0389e-16
5.70912e-16
5.70888e-16
5.70893e-16
5.70929e-16
5.42348e-16
5.42326e-16
5.42332e-16
5.42362e-16
5.16342e-16
5.16321e-16
5.16328e-16
5.16355e-16
4.93139e-16
4.93119e-16
4.93126e-16
4.93151e-16
4.72934e-16
4.72915e-16
4.72922e-16
4.72947e-16
4.55394e-16
4.55377e-16
4.55384e-16
4.55407e-16
4.40235e-16
4.40219e-16
4.40226e-16
4.40249e-16
4.27213e-16
4.27198e-16
4.27206e-16
4.27228e-16
4.16122e-16
4.16108e-16
4.16116e-16
4.16137e-16
4.06783e-16
4.0677e-16
4.06779e-16
4.06799e-16
3.99046e-16
3.99034e-16
3.99044e-16
3.99063e-16
3.92783e-16
3.92773e-16
3.92782e-16
3.92802e-16
3.87888e-16
3.87879e-16
3.87889e-16
3.87908e-16
3.84273e-16
3.84265e-16
3.84275e-16
3.84294e-16
3.81867e-16
3.81861e-16
3.81871e-16
3.81889e-16
3.80617e-16
3.80613e-16
3.80622e-16
3.80641e-16
3.80483e-16
3.8048e-16
3.80489e-16
3.80508e-16
3.79347e-16
3.79345e-16
3.79353e-16
3.79372e-16
3.78205e-16
3.78206e-16
3.78212e-16
3.78232e-16
3.78168e-16
3.78172e-16
3.78175e-16
3.78196e-16
3.79263e-16
3.79269e-16
3.7927e-16
3.79291e-16
3.81533e-16
3.81543e-16
3.81542e-16
3.81562e-16
3.85043e-16
3.85056e-16
3.85053e-16
3.85073e-16
3.89873e-16
3.89892e-16
3.89885e-16
3.89904e-16
3.96127e-16
3.96153e-16
3.9614e-16
3.96158e-16
4.03931e-16
4.03965e-16
4.03945e-16
4.03962e-16
4.13437e-16
4.13481e-16
4.13451e-16
4.13466e-16
4.24825e-16
4.24881e-16
4.2484e-16
4.2485e-16
4.38308e-16
4.38381e-16
4.38324e-16
4.38326e-16
4.54139e-16
4.54235e-16
4.54159e-16
4.54147e-16
4.82474e-16
4.82812e-16
4.82757e-16
4.82485e-16
5.27308e-16
5.27753e-16
5.27668e-16
5.27297e-16
5.81961e-16
5.81997e-16
5.8092e-16
5.8053e-16
6.27427e-16
6.27426e-16
6.26524e-16
6.26403e-16
6.42005e-16
6.41905e-16
6.41606e-16
6.42178e-16
6.33991e-16
6.3384e-16
6.33979e-16
6.34772e-16
6.11372e-16
6.11192e-16
6.11599e-16
6.12356e-16
5.80517e-16
5.80313e-16
5.80866e-16
5.81484e-16
5.46099e-16
5.45866e-16
5.4648e-16
5.46947e-16
5.11304e-16
5.11042e-16
5.11655e-16
5.12e-16
4.78156e-16
4.77864e-16
4.78442e-16
4.78703e-16
4.48143e-16
4.47813e-16
4.48325e-16
4.48545e-16
4.34331e-16
4.34097e-16
4.34038e-16
4.34117e-16
4.24626e-16
4.24358e-16
4.24258e-16
4.24342e-16
4.16868e-16
4.16568e-16
4.16431e-16
4.16521e-16
4.10983e-16
4.10653e-16
4.10483e-16
4.1058e-16
4.06877e-16
4.06518e-16
4.06318e-16
4.06421e-16
4.02906e-16
4.02541e-16
4.02316e-16
4.02426e-16
3.99848e-16
3.99483e-16
3.99245e-16
3.99357e-16
3.98362e-16
3.97998e-16
3.97752e-16
3.97865e-16
3.98427e-16
3.98065e-16
3.97813e-16
3.97926e-16
4.00041e-16
3.99682e-16
3.99427e-16
3.9954e-16
4.03227e-16
4.02871e-16
4.02617e-16
4.02728e-16
4.0803e-16
4.07679e-16
4.07428e-16
4.07537e-16
4.14522e-16
4.14176e-16
4.1393e-16
4.14036e-16
4.22798e-16
4.22458e-16
4.22219e-16
4.22322e-16
4.32984e-16
4.3265e-16
4.32421e-16
4.3252e-16
4.45234e-16
4.44906e-16
4.44688e-16
4.44782e-16
4.59737e-16
4.59415e-16
4.5921e-16
4.59299e-16
4.76718e-16
4.76402e-16
4.76211e-16
4.76294e-16
4.96447e-16
4.96138e-16
4.95962e-16
4.96039e-16
5.19246e-16
5.18942e-16
5.18782e-16
5.18854e-16
5.44323e-16
5.44039e-16
5.43892e-16
5.4396e-16
5.72616e-16
5.72354e-16
5.72225e-16
5.72286e-16
6.05352e-16
6.0511e-16
6.05e-16
6.05053e-16
6.4317e-16
6.42949e-16
6.42857e-16
6.42903e-16
6.86844e-16
6.86643e-16
6.86568e-16
6.86608e-16
7.3731e-16
7.37128e-16
7.3707e-16
7.37105e-16
7.95712e-16
7.9555e-16
7.95507e-16
7.95537e-16
8.63461e-16
8.63318e-16
8.63289e-16
8.63315e-16
9.42315e-16
9.42191e-16
9.42174e-16
9.42197e-16
1.03449e-15
1.03438e-15
1.03437e-15
1.03439e-15
1.14279e-15
1.1427e-15
1.14271e-15
1.14272e-15
1.27086e-15
1.27079e-15
1.2708e-15
1.27082e-15
1.42343e-15
1.42338e-15
1.42339e-15
1.42341e-15
1.60681e-15
1.60677e-15
1.60679e-15
1.60681e-15
1.82947e-15
1.82945e-15
1.82946e-15
1.82949e-15
2.10306e-15
2.10306e-15
2.10308e-15
2.10311e-15
2.44393e-15
2.44395e-15
2.44398e-15
2.44401e-15
2.87575e-15
2.87578e-15
2.87581e-15
2.87585e-15
3.43348e-15
3.43352e-15
3.43356e-15
3.43359e-15
4.17069e-15
4.17074e-15
4.17078e-15
4.17083e-15
5.1728e-15
5.17287e-15
5.1729e-15
5.17296e-15
6.58251e-15
6.58261e-15
6.58264e-15
6.58272e-15
8.65241e-15
8.65258e-15
8.6526e-15
8.65269e-15
1.18628e-14
1.1863e-14
1.1863e-14
1.18631e-14
1.7215e-14
1.72154e-14
1.72154e-14
1.72155e-14
2.70691e-14
2.70698e-14
2.70697e-14
2.70697e-14
4.7977e-14
4.79777e-14
4.79776e-14
4.79775e-14
1.02039e-13
1.0204e-13
1.02039e-13
1.02039e-13
2.99701e-13
2.99701e-13
2.99701e-13
2.99701e-13
1.73748e-12
1.73748e-12
1.73748e-12
1.73748e-12
5.81445e-16
5.82047e-16
5.81926e-16
5.81385e-16
6.27102e-16
6.27585e-16
6.27461e-16
6.27087e-16
6.42071e-16
6.42151e-16
6.42103e-16
6.42227e-16
6.34171e-16
6.34065e-16
6.34121e-16
6.34442e-16
6.11517e-16
6.11344e-16
6.11491e-16
6.11837e-16
5.80561e-16
5.80395e-16
5.80599e-16
5.80894e-16
5.46035e-16
5.45896e-16
5.46127e-16
5.46364e-16
5.11142e-16
5.1104e-16
5.11262e-16
5.11449e-16
4.77915e-16
4.77839e-16
4.78039e-16
4.78196e-16
4.47839e-16
4.47776e-16
4.4794e-16
4.48096e-16
4.33939e-16
4.33844e-16
4.33921e-16
4.33928e-16
4.24188e-16
4.24094e-16
4.24158e-16
4.24166e-16
4.16388e-16
4.16295e-16
4.16345e-16
4.16358e-16
4.10463e-16
4.10372e-16
4.10411e-16
4.10428e-16
4.06317e-16
4.0623e-16
4.06259e-16
4.0628e-16
4.02332e-16
4.02244e-16
4.0227e-16
4.02288e-16
3.99266e-16
3.99182e-16
3.99204e-16
3.99224e-16
3.97776e-16
3.97695e-16
3.97716e-16
3.97736e-16
3.97839e-16
3.97762e-16
3.97781e-16
3.97801e-16
3.99453e-16
3.9938e-16
3.99399e-16
3.99419e-16
4.02641e-16
4.02573e-16
4.02592e-16
4.02612e-16
4.07449e-16
4.07385e-16
4.07405e-16
4.07425e-16
4.13947e-16
4.13888e-16
4.1391e-16
4.13929e-16
4.22233e-16
4.22179e-16
4.22201e-16
4.22221e-16
4.3243e-16
4.32381e-16
4.32404e-16
4.32425e-16
4.44692e-16
4.44648e-16
4.44673e-16
4.44695e-16
4.59209e-16
4.5917e-16
4.59196e-16
4.59218e-16
4.76206e-16
4.76172e-16
4.76198e-16
4.76222e-16
4.95952e-16
4.95923e-16
4.9595e-16
4.95975e-16
5.18769e-16
5.18744e-16
5.18772e-16
5.18798e-16
5.43879e-16
5.43853e-16
5.43886e-16
5.43909e-16
5.72209e-16
5.72185e-16
5.72219e-16
5.72244e-16
6.0498e-16
6.04958e-16
6.04993e-16
6.05019e-16
6.42835e-16
6.42814e-16
6.4285e-16
6.42877e-16
6.86546e-16
6.86525e-16
6.86562e-16
6.86589e-16
7.37049e-16
7.37026e-16
7.37065e-16
7.37093e-16
7.95488e-16
7.95461e-16
7.95503e-16
7.95531e-16
8.63273e-16
8.63243e-16
8.63287e-16
8.63315e-16
9.42163e-16
9.42127e-16
9.42174e-16
9.42202e-16
1.03437e-15
1.03433e-15
1.03438e-15
1.0344e-15
1.14271e-15
1.14266e-15
1.14271e-15
1.14274e-15
1.27081e-15
1.27075e-15
1.27081e-15
1.27083e-15
1.42341e-15
1.42334e-15
1.42341e-15
1.42343e-15
1.60682e-15
1.60674e-15
1.60681e-15
1.60683e-15
1.82951e-15
1.82942e-15
1.82949e-15
1.82951e-15
2.10313e-15
2.10303e-15
2.10311e-15
2.10313e-15
2.44402e-15
2.44391e-15
2.44401e-15
2.44402e-15
2.87586e-15
2.87574e-15
2.87585e-15
2.87586e-15
3.4336e-15
3.43347e-15
3.4336e-15
3.4336e-15
4.17082e-15
4.17069e-15
4.17083e-15
4.17082e-15
5.17293e-15
5.17281e-15
5.17295e-15
5.17294e-15
6.58267e-15
6.58256e-15
6.58271e-15
6.58267e-15
8.65262e-15
8.6525e-15
8.65267e-15
8.65263e-15
1.1863e-14
1.18629e-14
1.18631e-14
1.18631e-14
1.72154e-14
1.72152e-14
1.72155e-14
1.72155e-14
2.70697e-14
2.70694e-14
2.70697e-14
2.70697e-14
4.79775e-14
4.79773e-14
4.79775e-14
4.79777e-14
1.02039e-13
1.02039e-13
1.02039e-13
1.0204e-13
2.99701e-13
2.99701e-13
2.99701e-13
2.99701e-13
1.73748e-12
1.73748e-12
1.73748e-12
1.73748e-12
)
;

boundaryField
{
    topWall
    {
        type            epsilonWallFunction;
        value           uniform 1.73748e-12;
    }
    botWall
    {
        type            epsilonWallFunction;
        value           uniform 1.73748e-12;
    }
    inlet
    {
        type            cyclic;
    }
    outlet
    {
        type            cyclic;
    }
    fixWall
    {
        type            empty;
    }
}


// ************************************************************************* //
