/*--------------------------------*- C++ -*----------------------------------*\
  =========                 |
  \\      /  F ield         | OpenFOAM: The Open Source CFD Toolbox
   \\    /   O peration     | Website:  https://openfoam.org
    \\  /    A nd           | Version:  dev
     \\/     M anipulation  |

   OpenFOAM for Windows 20.09 (v1)
   Built by CFD Support, www.cfdsupport.com (based on Symscape).
\*---------------------------------------------------------------------------*/
FoamFile
{
    version     2.0;
    format      ascii;
    class       volVectorField;
    location    "2";
    object      gradp;
}
// * * * * * * * * * * * * * * * * * * * * * * * * * * * * * * * * * * * * * //

dimensions      [1 -2 -2 0 0 0 0];

internalField   nonuniform List<vector> 
960
(
(3.75817 -99.7546 0)
(-1.27279 -98.196 0)
(-1.25124 -98.1065 0)
(-1.25849 -98.1204 0)
(3.75658 -99.7564 0)
(-1.24537 -98.1955 0)
(-1.24999 -98.1063 0)
(-1.25846 -98.1181 0)
(3.75667 -98.0931 0)
(-1.24529 -98.0985 0)
(-1.24996 -98.0997 0)
(-1.25846 -98.102 0)
(3.75667 -98.0671 0)
(-1.24548 -98.0977 0)
(-1.25005 -98.0999 0)
(-1.25846 -98.1104 0)
(3.75664 -98.0585 0)
(-1.24583 -98.1009 0)
(-1.25017 -98.1 0)
(-1.25847 -98.1059 0)
(3.75666 -98.0602 0)
(-1.24617 -98.1005 0)
(-1.25013 -98.1001 0)
(-1.25848 -98.0994 0)
(3.75666 -98.0609 0)
(-1.2465 -98.0965 0)
(-1.25015 -98.1001 0)
(-1.25849 -98.0993 0)
(3.75668 -98.0623 0)
(-1.24682 -98.0972 0)
(-1.25017 -98.1001 0)
(-1.25851 -98.0991 0)
(3.75667 -98.0635 0)
(-1.24713 -98.0963 0)
(-1.25018 -98.1001 0)
(-1.25852 -98.099 0)
(3.75669 -98.0644 0)
(-1.24743 -98.0947 0)
(-1.25022 -98.0981 0)
(-1.25855 -98.0945 0)
(3.75666 -98.0641 0)
(-1.24769 -98.0948 0)
(-1.25018 -98.0935 0)
(-1.2586 -98.093 0)
(3.75663 -98.0653 0)
(-1.24792 -98.0944 0)
(-1.25019 -98.0836 0)
(-1.25871 -98.0666 0)
(3.7565 -98.0676 0)
(-1.248 -98.0942 0)
(-1.24971 -98.0716 0)
(-1.25894 -98.0382 0)
(3.75635 -97.7113 0)
(-1.24799 -97.9657 0)
(-1.24926 -97.3163 0)
(-1.25925 -97.1582 0)
(3.7585 -98.2112 0)
(-1.24141 -97.9903 0)
(-1.23625 -97.7281 0)
(-1.25606 -97.923 0)
(3.75403 -98.7095 0)
(-1.23994 -98.1232 0)
(-1.24813 -98.4959 0)
(-1.25563 -98.8342 0)
(3.76082 -98.2133 0)
(-1.23785 -98.1016 0)
(-1.24811 -98.1094 0)
(-1.2557 -98.1173 0)
(3.76078 -98.0751 0)
(-1.23821 -98.1009 0)
(-1.2484 -98.1075 0)
(-1.25559 -98.1134 0)
(3.76073 -98.0754 0)
(-1.23839 -98.0983 0)
(-1.24831 -98.0994 0)
(-1.25564 -98.0956 0)
(3.76077 -98.0762 0)
(-1.2386 -98.0947 0)
(-1.24835 -98.1004 0)
(-1.25567 -98.0991 0)
(3.76081 -98.077 0)
(-1.2388 -98.0944 0)
(-1.24839 -98.1018 0)
(-1.25573 -98.1004 0)
(3.76083 -98.0777 0)
(-1.23902 -98.0943 0)
(-1.24845 -98.1026 0)
(-1.25574 -98.101 0)
(3.76084 -98.0782 0)
(-1.23921 -98.0939 0)
(-1.2485 -98.1012 0)
(-1.25578 -98.0999 0)
(3.76086 -98.0785 0)
(-1.2394 -98.0932 0)
(-1.24855 -98.101 0)
(-1.25582 -98.0997 0)
(3.76088 -98.081 0)
(-1.23959 -98.0927 0)
(-1.24861 -98.1007 0)
(-1.25587 -98.0991 0)
(3.76087 -98.0824 0)
(-1.23973 -98.0892 0)
(-1.24866 -98.095 0)
(-1.25591 -98.0937 0)
(3.76097 -98.0821 0)
(-1.2398 -98.088 0)
(-1.24868 -98.0954 0)
(-1.25606 -98.1085 0)
(3.76093 -98.0822 0)
(-1.23995 -98.0827 0)
(-1.249 -98.0885 0)
(-1.25611 -98.114 0)
(3.76098 -98.075 0)
(-1.2399 -98.0839 0)
(-1.24921 -98.0925 0)
(-1.25637 -97.422 0)
(3.74794 -98.0434 0)
(-1.24024 -97.449 0)
(-1.23797 -97.4817 0)
(-1.24467 -97.591 0)
(3.76355 -98.5425 0)
(-1.23054 -98.3253 0)
(-1.25157 -98.1413 0)
(-1.26154 -98.2689 0)
(3.74889 -98.568 0)
(-1.23356 -98.9704 0)
(-1.23703 -98.7742 0)
(-1.25055 -98.0975 0)
(3.74885 -98.0664 0)
(-1.23397 -98.1028 0)
(-1.23702 -98.1106 0)
(-1.2505 -98.0952 0)
(3.7487 -98.07 0)
(-1.2343 -98.1044 0)
(-1.2369 -98.1016 0)
(-1.25055 -98.0945 0)
(3.74857 -98.0747 0)
(-1.2345 -98.0992 0)
(-1.23686 -98.1014 0)
(-1.25066 -98.0951 0)
(3.74845 -98.0726 0)
(-1.23474 -98.0997 0)
(-1.23683 -98.101 0)
(-1.25072 -98.0967 0)
(3.74832 -98.0731 0)
(-1.23497 -98.0996 0)
(-1.23681 -98.1008 0)
(-1.25075 -98.0962 0)
(3.74818 -98.0737 0)
(-1.2352 -98.099 0)
(-1.23678 -98.1007 0)
(-1.25082 -98.0952 0)
(3.74806 -98.0728 0)
(-1.23542 -98.0988 0)
(-1.23674 -98.1004 0)
(-1.25088 -98.0952 0)
(3.74793 -98.0735 0)
(-1.23566 -98.0986 0)
(-1.23671 -98.0989 0)
(-1.25094 -98.0951 0)
(3.7478 -98.0758 0)
(-1.23585 -98.0976 0)
(-1.23669 -98.0958 0)
(-1.25102 -98.0948 0)
(3.74769 -98.0682 0)
(-1.236 -98.0983 0)
(-1.23667 -98.0998 0)
(-1.25113 -98.0945 0)
(3.74755 -98.0674 0)
(-1.23637 -98.083 0)
(-1.23662 -98.1032 0)
(-1.25116 -98.0944 0)
(3.74769 -98.0783 0)
(-1.23659 -98.0813 0)
(-1.23686 -98.1008 0)
(-1.25101 -97.5337 0)
(3.74171 -98.0032 0)
(-1.23675 -97.922 0)
(-1.2275 -97.7614 0)
(-1.23732 -97.7501 0)
(3.74693 -98.0715 0)
(-1.23256 -98.6444 0)
(-1.23399 -98.222 0)
(-1.24895 -98.3128 0)
(3.73485 -98.1602 0)
(-1.23926 -98.8203 0)
(-1.22197 -98.5614 0)
(-1.24131 -98.11 0)
(3.7349 -98.1075 0)
(-1.23925 -98.1118 0)
(-1.22215 -98.0945 0)
(-1.24155 -98.1181 0)
(3.73464 -98.0944 0)
(-1.23904 -98.1114 0)
(-1.22208 -98.0996 0)
(-1.24167 -98.1062 0)
(3.73458 -98.0744 0)
(-1.23933 -98.0991 0)
(-1.22207 -98.1063 0)
(-1.24181 -98.0955 0)
(3.73453 -98.0732 0)
(-1.23957 -98.0956 0)
(-1.22202 -98.1012 0)
(-1.24181 -98.0965 0)
(3.73454 -98.0785 0)
(-1.2398 -98.0989 0)
(-1.22208 -98.1014 0)
(-1.24182 -98.0984 0)
(3.73442 -98.0807 0)
(-1.23995 -98.103 0)
(-1.22201 -98.1016 0)
(-1.24175 -98.0969 0)
(3.73435 -98.0774 0)
(-1.24015 -98.1002 0)
(-1.22198 -98.1018 0)
(-1.24184 -98.0963 0)
(3.73424 -98.0778 0)
(-1.24036 -98.0998 0)
(-1.22194 -98.1018 0)
(-1.24183 -98.0961 0)
(3.73425 -98.0519 0)
(-1.24055 -98.0756 0)
(-1.22192 -98.1012 0)
(-1.24183 -98.0956 0)
(3.73458 -98.0891 0)
(-1.24118 -98.1088 0)
(-1.22228 -98.1004 0)
(-1.24182 -98.0801 0)
(3.73348 -98.1167 0)
(-1.24074 -98.1318 0)
(-1.22144 -98.0991 0)
(-1.24184 -98.0837 0)
(3.7341 -97.8643 0)
(-1.24089 -97.7943 0)
(-1.22148 -97.9913 0)
(-1.24188 -98.079 0)
(3.73793 -75.5911 0)
(-1.24285 -75.3285 0)
(-1.22619 -75.9559 0)
(-1.24303 -76.3663 0)
(-1.25766 -98.1048 0)
(-1.22105 -98.1109 0)
(-1.24927 -98.1158 0)
(3.75232 -98.1004 0)
(-1.2575 -98.1048 0)
(-1.22123 -98.1109 0)
(-1.24909 -98.1034 0)
(3.72506 -98.1052 0)
(-1.25754 -98.0999 0)
(-1.22102 -98.0999 0)
(-1.24917 -98.0952 0)
(3.72477 -98.104 0)
(-1.25747 -98.1003 0)
(-1.22115 -98.0999 0)
(-1.24916 -98.1072 0)
(3.72509 -98.0959 0)
(-1.25736 -98.1008 0)
(-1.22114 -98.0999 0)
(-1.24911 -98.099 0)
(3.72544 -98.1 0)
(-1.25737 -98.1014 0)
(-1.22112 -98.0999 0)
(-1.24916 -98.0985 0)
(3.72577 -98.1022 0)
(-1.25737 -98.1019 0)
(-1.22109 -98.0998 0)
(-1.24915 -98.0981 0)
(3.72608 -98.0976 0)
(-1.25738 -98.1017 0)
(-1.22106 -98.0984 0)
(-1.24913 -98.0978 0)
(3.72639 -98.0973 0)
(-1.25736 -98.1026 0)
(-1.22102 -98.0993 0)
(-1.24913 -98.0974 0)
(3.72667 -98.097 0)
(-1.25738 -98.1032 0)
(-1.22097 -98.1009 0)
(-1.24909 -98.0965 0)
(3.72695 -98.0944 0)
(-1.25747 -98.1032 0)
(-1.22091 -98.1004 0)
(-1.24902 -98.0958 0)
(3.72721 -98.0915 0)
(-1.2575 -98.1037 0)
(-1.22085 -98.1005 0)
(-1.24894 -98.0903 0)
(3.72748 -98.0849 0)
(-1.25803 -98.1039 0)
(-1.22069 -98.1006 0)
(-1.24876 -98.0942 0)
(3.72762 -98.0776 0)
(-1.25854 -97.1439 0)
(-1.22068 -97.6173 0)
(-1.24856 -98.0994 0)
(3.72792 -98.0856 0)
(-1.26568 -97.5109 0)
(-1.23661 -97.658 0)
(-1.25656 -97.7832 0)
(3.73409 -97.8509 0)
(-1.25413 -98.4738 0)
(-1.22522 -98.1439 0)
(-1.25177 -98.6299 0)
(3.72079 -98.2621 0)
(-1.25418 -98.107 0)
(-1.23922 -98.1035 0)
(-1.25853 -98.9421 0)
(3.73276 -98.5067 0)
(-1.2539 -98.1043 0)
(-1.23914 -98.1011 0)
(-1.25849 -98.095 0)
(3.73293 -98.0955 0)
(-1.25397 -98.1046 0)
(-1.23906 -98.1009 0)
(-1.25844 -98.0963 0)
(3.7331 -98.0976 0)
(-1.25398 -98.1056 0)
(-1.23901 -98.1007 0)
(-1.25844 -98.0963 0)
(3.73328 -98.0998 0)
(-1.254 -98.106 0)
(-1.23891 -98.1041 0)
(-1.25842 -98.0943 0)
(3.73343 -98.0975 0)
(-1.25405 -98.1058 0)
(-1.23881 -98.1047 0)
(-1.25833 -98.094 0)
(3.73357 -98.096 0)
(-1.25406 -98.1059 0)
(-1.23871 -98.1019 0)
(-1.25828 -98.0939 0)
(3.7337 -98.0959 0)
(-1.25408 -98.106 0)
(-1.23861 -98.1018 0)
(-1.25823 -98.0938 0)
(3.73383 -98.0958 0)
(-1.2541 -98.1062 0)
(-1.23851 -98.1016 0)
(-1.25818 -98.0935 0)
(3.73396 -98.0935 0)
(-1.25412 -98.1066 0)
(-1.2384 -98.0991 0)
(-1.25809 -98.0931 0)
(3.73404 -98.0945 0)
(-1.25419 -98.1072 0)
(-1.23828 -98.0989 0)
(-1.2581 -98.0926 0)
(3.73413 -98.0914 0)
(-1.25396 -98.1068 0)
(-1.23816 -98.0916 0)
(-1.25797 -98.0926 0)
(3.73422 -98.0832 0)
(-1.25381 -97.4059 0)
(-1.23804 -97.438 0)
(-1.25796 -98.0919 0)
(3.73431 -97.3043 0)
(-1.25423 -97.7919 0)
(-1.24959 -97.5341 0)
(-1.25574 -98.0031 0)
(3.7345 -97.6033 0)
(-1.25287 -98.4939 0)
(-1.24156 -98.1935 0)
(-1.25911 -98.8086 0)
(3.73363 -98.3828 0)
(-1.25297 -98.112 0)
(-1.25483 -98.1135 0)
(-1.2589 -98.9006 0)
(3.73894 -98.0886 0)
(-1.25313 -98.1107 0)
(-1.2547 -98.1123 0)
(-1.2587 -98.0988 0)
(3.73918 -98.091 0)
(-1.25326 -98.1115 0)
(-1.25463 -98.1093 0)
(-1.25854 -98.098 0)
(3.73948 -98.0873 0)
(-1.25338 -98.1117 0)
(-1.25448 -98.1086 0)
(-1.25833 -98.1003 0)
(3.73964 -98.0845 0)
(-1.25348 -98.1061 0)
(-1.25444 -98.1092 0)
(-1.25814 -98.1008 0)
(3.7399 -98.0846 0)
(-1.25359 -98.1068 0)
(-1.25439 -98.1093 0)
(-1.25792 -98.0982 0)
(3.74012 -98.0835 0)
(-1.2537 -98.1084 0)
(-1.2543 -98.1092 0)
(-1.25771 -98.0978 0)
(3.74032 -98.0834 0)
(-1.25382 -98.1078 0)
(-1.25422 -98.1092 0)
(-1.25749 -98.0941 0)
(3.74052 -98.0834 0)
(-1.25394 -98.1075 0)
(-1.25407 -98.1091 0)
(-1.25728 -98.095 0)
(3.74068 -98.0835 0)
(-1.25405 -98.1072 0)
(-1.25401 -98.1092 0)
(-1.25707 -98.0985 0)
(3.74088 -98.0832 0)
(-1.25418 -98.1083 0)
(-1.25393 -98.1092 0)
(-1.25685 -98.0971 0)
(3.74106 -98.0829 0)
(-1.2543 -98.0959 0)
(-1.25382 -98.1074 0)
(-1.25663 -98.07 0)
(3.74136 -98.0831 0)
(-1.25439 -97.2701 0)
(-1.2535 -98.0513 0)
(-1.25644 -98.1317 0)
(3.7411 -97.7312 0)
(-1.26292 -97.6377 0)
(-1.26818 -98.142 0)
(-1.25129 -97.9097 0)
(3.74225 -97.8764 0)
(-1.26092 -98.4615 0)
(-1.25803 -98.2319 0)
(-1.25201 -98.131 0)
(3.73954 -98.2324 0)
(-1.26158 -98.1174 0)
(-1.26267 -98.1411 0)
(-1.2513 -98.3888 0)
(3.74324 -98.0985 0)
(-1.26144 -98.1163 0)
(-1.26256 -98.1037 0)
(-1.2513 -98.1095 0)
(3.74335 -98.0992 0)
(-1.26134 -98.1156 0)
(-1.26256 -98.102 0)
(-1.25122 -98.0981 0)
(3.74327 -98.0924 0)
(-1.26137 -98.1147 0)
(-1.26226 -98.102 0)
(-1.25114 -98.095 0)
(3.74341 -98.093 0)
(-1.26144 -98.1015 0)
(-1.26223 -98.1018 0)
(-1.25107 -98.0955 0)
(3.74362 -98.0927 0)
(-1.26146 -98.0973 0)
(-1.26216 -98.1018 0)
(-1.25099 -98.0931 0)
(3.74378 -98.092 0)
(-1.2615 -98.1026 0)
(-1.26216 -98.0998 0)
(-1.25091 -98.0927 0)
(3.74386 -98.0917 0)
(-1.26151 -98.1068 0)
(-1.262 -98.1003 0)
(-1.25086 -98.0884 0)
(3.74398 -98.0891 0)
(-1.26157 -98.1016 0)
(-1.26185 -98.1031 0)
(-1.25072 -98.0903 0)
(3.74404 -98.0939 0)
(-1.26163 -98.101 0)
(-1.26181 -98.1031 0)
(-1.2507 -98.0944 0)
(3.74419 -98.0963 0)
(-1.26169 -98.1007 0)
(-1.26174 -98.1029 0)
(-1.25061 -98.0585 0)
(3.74475 -98.0623 0)
(-1.26201 -98.1024 0)
(-1.26111 -98.1034 0)
(-1.25003 -98.0905 0)
(3.74368 -98.1033 0)
(-1.26202 -98.0627 0)
(-1.26155 -98.0426 0)
(-1.25061 -98.0319 0)
(3.74432 -98.0616 0)
(-1.2614 -76.1048 0)
(-1.2606 -75.9172 0)
(-1.25034 -75.9066 0)
(3.74648 -76.1073 0)
(3.74708 -31.7304 0)
(-1.24697 -31.5305 0)
(-1.23877 -32.0446 0)
(-1.24436 -32.5069 0)
(3.74903 -9.86798 0)
(-1.24809 -9.85054 0)
(-1.24246 -9.93548 0)
(-1.24446 -10.0728 0)
(3.74903 -9.80891 0)
(-1.24809 -9.80728 0)
(-1.24248 -9.81039 0)
(-1.24448 -9.8085 0)
(3.74903 -9.80886 0)
(-1.24812 -9.8076 0)
(-1.24248 -9.8105 0)
(-1.24448 -9.80861 0)
(3.74904 -9.80946 0)
(-1.24812 -9.80743 0)
(-1.24249 -9.81027 0)
(-1.2445 -9.80875 0)
(3.74905 -9.80951 0)
(-1.24813 -9.80771 0)
(-1.2425 -9.8104 0)
(-1.24451 -9.80875 0)
(3.74905 -9.80978 0)
(-1.24814 -9.80752 0)
(-1.24251 -9.81024 0)
(-1.24452 -9.80888 0)
(3.74907 -9.80979 0)
(-1.24814 -9.80751 0)
(-1.24252 -9.81014 0)
(-1.24454 -9.80884 0)
(3.74908 -9.80992 0)
(-1.24814 -9.80753 0)
(-1.24253 -9.81008 0)
(-1.24455 -9.80881 0)
(3.74909 -9.81 0)
(-1.24814 -9.80749 0)
(-1.24255 -9.80999 0)
(-1.24456 -9.80883 0)
(3.74911 -9.81002 0)
(-1.24814 -9.80767 0)
(-1.24255 -9.81022 0)
(-1.24458 -9.80873 0)
(3.74912 -9.80996 0)
(-1.24814 -9.80813 0)
(-1.24256 -9.81061 0)
(-1.24458 -9.80864 0)
(3.74912 -9.81006 0)
(-1.24815 -9.80821 0)
(-1.24256 -9.8107 0)
(-1.24458 -9.8085 0)
(3.74913 -9.8105 0)
(-1.24815 -9.80829 0)
(-1.24257 -9.81056 0)
(-1.24458 -9.80888 0)
(3.74914 -9.81115 0)
(-1.24815 -9.80818 0)
(-1.24257 -9.81004 0)
(-1.24457 -9.80955 0)
(3.74916 -9.81219 0)
(-1.24813 -9.80771 0)
(-1.24259 -9.80922 0)
(-1.24458 -9.81069 0)
(3.74919 -9.81302 0)
(-1.2481 -9.80784 0)
(-1.24262 -9.80893 0)
(-1.2446 -9.81174 0)
(3.74922 -9.81347 0)
(-1.24807 -9.80825 0)
(-1.24266 -9.80909 0)
(-1.24462 -9.81218 0)
(3.74925 -9.81357 0)
(-1.24803 -9.80875 0)
(-1.24269 -9.80939 0)
(-1.24463 -9.81233 0)
(3.74927 -9.81362 0)
(-1.248 -9.80914 0)
(-1.24272 -9.80985 0)
(-1.24464 -9.8121 0)
(3.74928 -9.81355 0)
(-1.24797 -9.80952 0)
(-1.24274 -9.81005 0)
(-1.24464 -9.81197 0)
(3.7493 -9.8137 0)
(-1.24794 -9.80954 0)
(-1.24276 -9.81004 0)
(-1.24464 -9.81191 0)
(3.74932 -9.81378 0)
(-1.24791 -9.80958 0)
(-1.24278 -9.81004 0)
(-1.24464 -9.81188 0)
(3.74933 -9.81388 0)
(-1.24788 -9.80965 0)
(-1.2428 -9.81004 0)
(-1.24464 -9.81184 0)
(3.74935 -9.81397 0)
(-1.24784 -9.8097 0)
(-1.24281 -9.81004 0)
(-1.24463 -9.81181 0)
(3.74937 -9.81409 0)
(-1.24781 -9.8098 0)
(-1.24283 -9.80992 0)
(-1.24463 -9.812 0)
(3.74939 -9.81437 0)
(-1.24777 -9.80932 0)
(-1.24285 -9.80949 0)
(-1.24464 -9.81211 0)
(3.74941 -9.81435 0)
(-1.24773 -9.80883 0)
(-1.24288 -9.80907 0)
(-1.24465 -9.81203 0)
(3.74944 -9.81405 0)
(-1.24769 -9.80841 0)
(-1.2429 -9.80873 0)
(-1.24466 -9.81192 0)
(3.74947 -9.8133 0)
(-1.24764 -9.80779 0)
(-1.24294 -9.80851 0)
(-1.24468 -9.81152 0)
(3.7495 -9.81238 0)
(-1.24761 -9.80809 0)
(-1.24297 -9.80894 0)
(-1.2447 -9.81117 0)
(3.74951 -9.81169 0)
(-1.24758 -9.80858 0)
(-1.24299 -9.80928 0)
(-1.24472 -9.81121 0)
(3.74953 -9.81143 0)
(-1.24757 -9.80844 0)
(-1.24301 -9.80922 0)
(-1.24474 -9.81123 0)
(3.74954 -9.81151 0)
(-1.24755 -9.80849 0)
(-1.24303 -9.80915 0)
(-1.24477 -9.81134 0)
(3.74956 -9.81164 0)
(-1.24753 -9.80816 0)
(-1.24306 -9.80877 0)
(-1.2448 -9.81141 0)
(3.74958 -9.81176 0)
(-1.2475 -9.80772 0)
(-1.24309 -9.80849 0)
(-1.24483 -9.81128 0)
(3.74961 -9.81174 0)
(-1.24747 -9.80782 0)
(-1.24312 -9.80855 0)
(-1.24487 -9.81114 0)
(3.74963 -9.81172 0)
(-1.24745 -9.80796 0)
(-1.24314 -9.80862 0)
(-1.2449 -9.81101 0)
(3.74966 -9.81172 0)
(-1.24742 -9.80807 0)
(-1.24317 -9.80868 0)
(-1.24493 -9.81086 0)
(3.74968 -9.8117 0)
(-1.2474 -9.80821 0)
(-1.24319 -9.80875 0)
(-1.24496 -9.81073 0)
(3.7497 -9.81174 0)
(-1.24737 -9.80829 0)
(-1.24321 -9.80879 0)
(-1.24498 -9.81059 0)
(3.74972 -9.81174 0)
(-1.24735 -9.80838 0)
(-1.24323 -9.80881 0)
(-1.24501 -9.81045 0)
(3.74974 -9.81165 0)
(-1.24732 -9.80856 0)
(-1.24324 -9.80883 0)
(-1.24503 -9.81034 0)
(3.74976 -9.8113 0)
(-1.2473 -9.80879 0)
(-1.24326 -9.80882 0)
(-1.24505 -9.81035 0)
(3.74978 -9.81088 0)
(-1.24728 -9.80892 0)
(-1.24327 -9.80889 0)
(-1.24507 -9.81052 0)
(3.74979 -9.81049 0)
(-1.24727 -9.80892 0)
(-1.24328 -9.809 0)
(-1.2451 -9.81078 0)
(3.7498 -9.81019 0)
(-1.24726 -9.8088 0)
(-1.2433 -9.80907 0)
(-1.24512 -9.81102 0)
(3.74981 -9.81014 0)
(-1.24725 -9.80864 0)
(-1.24332 -9.80918 0)
(-1.24514 -9.81114 0)
(3.74982 -9.81015 0)
(-1.24724 -9.80862 0)
(-1.24334 -9.80923 0)
(-1.24516 -9.81109 0)
(3.74983 -9.81014 0)
(-1.24723 -9.80871 0)
(-1.24336 -9.80927 0)
(-1.24518 -9.81098 0)
(3.74983 -9.81011 0)
(-1.24722 -9.80885 0)
(-1.24338 -9.80932 0)
(-1.2452 -9.81089 0)
(3.74984 -9.81009 0)
(-1.24722 -9.80897 0)
(-1.2434 -9.80939 0)
(-1.24522 -9.81081 0)
(3.74985 -9.81006 0)
(-1.24721 -9.80909 0)
(-1.24341 -9.80947 0)
(-1.24524 -9.81072 0)
(3.74985 -9.81003 0)
(-1.24721 -9.80921 0)
(-1.24342 -9.80956 0)
(-1.24525 -9.81064 0)
(3.74986 -9.81 0)
(-1.24721 -9.80932 0)
(-1.24343 -9.80963 0)
(-1.24526 -9.81056 0)
(3.74986 -9.80998 0)
(-1.2472 -9.80944 0)
(-1.24344 -9.80971 0)
(-1.24527 -9.81047 0)
(3.74986 -9.80997 0)
(-1.2472 -9.80957 0)
(-1.24345 -9.80977 0)
(-1.24528 -9.81037 0)
(3.74987 -9.80996 0)
(-1.2472 -9.80969 0)
(-1.24346 -9.80984 0)
(-1.24528 -9.81026 0)
(3.74987 -9.80996 0)
(-1.2472 -9.80981 0)
(-1.24346 -9.8099 0)
(-1.24529 -9.81017 0)
(3.74987 -9.80998 0)
(-1.2472 -9.80993 0)
(-1.24346 -9.80996 0)
(-1.24529 -9.81006 0)
(-1.25454 -32.1306 0)
(-1.25824 -31.8926 0)
(-1.25377 -31.9241 0)
(3.74957 -32.1962 0)
(-1.25116 -9.94221 0)
(-1.25715 -9.87042 0)
(-1.2554 -9.87624 0)
(3.7497 -9.9674 0)
(-1.25116 -9.81155 0)
(-1.25714 -9.8085 0)
(-1.25539 -9.81091 0)
(3.74971 -9.80766 0)
(-1.25116 -9.81172 0)
(-1.25714 -9.80858 0)
(-1.25539 -9.81101 0)
(3.74974 -9.80819 0)
(-1.25116 -9.81185 0)
(-1.25713 -9.80894 0)
(-1.25538 -9.81078 0)
(3.74975 -9.80829 0)
(-1.25117 -9.81185 0)
(-1.25713 -9.80908 0)
(-1.25538 -9.81089 0)
(3.74976 -9.80852 0)
(-1.25117 -9.81195 0)
(-1.25712 -9.80918 0)
(-1.25537 -9.81069 0)
(3.74977 -9.80869 0)
(-1.25117 -9.81186 0)
(-1.2571 -9.80918 0)
(-1.25537 -9.81054 0)
(3.74978 -9.8089 0)
(-1.25117 -9.81175 0)
(-1.25709 -9.80919 0)
(-1.25537 -9.81037 0)
(3.74978 -9.80903 0)
(-1.25118 -9.81165 0)
(-1.25708 -9.80917 0)
(-1.25537 -9.81022 0)
(3.74978 -9.80922 0)
(-1.25118 -9.81133 0)
(-1.25707 -9.8091 0)
(-1.25537 -9.81031 0)
(3.74979 -9.80925 0)
(-1.25118 -9.81082 0)
(-1.25706 -9.80893 0)
(-1.25537 -9.81049 0)
(3.74979 -9.80918 0)
(-1.25119 -9.81046 0)
(-1.25706 -9.80872 0)
(-1.25537 -9.81022 0)
(3.7498 -9.80916 0)
(-1.25119 -9.81024 0)
(-1.25706 -9.8086 0)
(-1.25538 -9.8091 0)
(3.74979 -9.80932 0)
(-1.25118 -9.81032 0)
(-1.25705 -9.80853 0)
(-1.25539 -9.80696 0)
(3.74977 -9.80983 0)
(-1.25117 -9.81088 0)
(-1.257 -9.80866 0)
(-1.2554 -9.80438 0)
(3.74972 -9.81065 0)
(-1.25115 -9.81111 0)
(-1.25694 -9.80879 0)
(-1.25542 -9.80247 0)
(3.74964 -9.81131 0)
(-1.25112 -9.811 0)
(-1.25686 -9.80878 0)
(-1.25544 -9.80154 0)
(3.74954 -9.81161 0)
(-1.25109 -9.81078 0)
(-1.25678 -9.80871 0)
(-1.25547 -9.80146 0)
(3.74944 -9.81171 0)
(-1.25106 -9.8103 0)
(-1.2567 -9.80858 0)
(-1.25549 -9.8017 0)
(3.74934 -9.81151 0)
(-1.25103 -9.81 0)
(-1.25664 -9.80844 0)
(-1.25552 -9.80179 0)
(3.74925 -9.81146 0)
(-1.251 -9.80991 0)
(-1.25657 -9.80841 0)
(-1.25554 -9.80176 0)
(3.74915 -9.81149 0)
(-1.25097 -9.80984 0)
(-1.2565 -9.80838 0)
(-1.25557 -9.80174 0)
(3.74905 -9.81155 0)
(-1.25094 -9.80975 0)
(-1.25643 -9.80834 0)
(-1.25559 -9.80173 0)
(3.74895 -9.8116 0)
(-1.25091 -9.80966 0)
(-1.25637 -9.80834 0)
(-1.25562 -9.80173 0)
(3.74884 -9.81164 0)
(-1.25089 -9.81 0)
(-1.2563 -9.80846 0)
(-1.25565 -9.80175 0)
(3.74874 -9.81194 0)
(-1.25086 -9.81032 0)
(-1.25623 -9.80858 0)
(-1.25568 -9.80158 0)
(3.74864 -9.81218 0)
(-1.25083 -9.81038 0)
(-1.25615 -9.80864 0)
(-1.25571 -9.80153 0)
(3.74853 -9.81211 0)
(-1.2508 -9.81087 0)
(-1.25608 -9.80873 0)
(-1.25574 -9.80206 0)
(3.74842 -9.81191 0)
(-1.25077 -9.81095 0)
(-1.25601 -9.80868 0)
(-1.25576 -9.80302 0)
(3.74833 -9.81117 0)
(-1.25075 -9.81106 0)
(-1.25595 -9.80865 0)
(-1.25578 -9.80453 0)
(3.74825 -9.81046 0)
(-1.25073 -9.81185 0)
(-1.2559 -9.80883 0)
(-1.25579 -9.80597 0)
(3.7482 -9.81032 0)
(-1.25071 -9.81222 0)
(-1.25585 -9.809 0)
(-1.2558 -9.80666 0)
(3.74816 -9.81025 0)
(-1.25069 -9.81257 0)
(-1.25581 -9.80917 0)
(-1.25581 -9.80694 0)
(3.74812 -9.81049 0)
(-1.25068 -9.81284 0)
(-1.25576 -9.80934 0)
(-1.25583 -9.80689 0)
(3.74808 -9.81074 0)
(-1.25066 -9.81269 0)
(-1.25571 -9.80937 0)
(-1.25584 -9.8068 0)
(3.74804 -9.81075 0)
(-1.25064 -9.81249 0)
(-1.25566 -9.80935 0)
(-1.25585 -9.80692 0)
(3.748 -9.81076 0)
(-1.25063 -9.8123 0)
(-1.25561 -9.80936 0)
(-1.25586 -9.80704 0)
(3.74796 -9.81077 0)
(-1.25062 -9.8121 0)
(-1.25557 -9.80935 0)
(-1.25587 -9.80716 0)
(3.74792 -9.81079 0)
(-1.2506 -9.81191 0)
(-1.25553 -9.80934 0)
(-1.25588 -9.80726 0)
(3.74788 -9.81082 0)
(-1.25059 -9.81173 0)
(-1.25549 -9.80931 0)
(-1.2559 -9.80733 0)
(3.74785 -9.81087 0)
(-1.25058 -9.81159 0)
(-1.25546 -9.80928 0)
(-1.25591 -9.80743 0)
(3.74781 -9.81093 0)
(-1.25057 -9.81151 0)
(-1.25542 -9.80929 0)
(-1.25592 -9.80754 0)
(3.74777 -9.81099 0)
(-1.25057 -9.81152 0)
(-1.25539 -9.8094 0)
(-1.25594 -9.80773 0)
(3.74774 -9.81094 0)
(-1.25056 -9.81163 0)
(-1.25536 -9.80965 0)
(-1.25595 -9.80806 0)
(3.74772 -9.81071 0)
(-1.25055 -9.81172 0)
(-1.25533 -9.80994 0)
(-1.25596 -9.80838 0)
(3.74769 -9.81034 0)
(-1.25054 -9.81181 0)
(-1.25531 -9.81023 0)
(-1.25596 -9.80867 0)
(3.74768 -9.80994 0)
(-1.25054 -9.81186 0)
(-1.25528 -9.8104 0)
(-1.25595 -9.80892 0)
(3.74767 -9.80969 0)
(-1.25053 -9.81175 0)
(-1.25526 -9.81043 0)
(-1.25594 -9.80905 0)
(3.74766 -9.80962 0)
(-1.25053 -9.81163 0)
(-1.25524 -9.81042 0)
(-1.25594 -9.80915 0)
(3.74765 -9.80965 0)
(-1.25052 -9.8115 0)
(-1.25522 -9.81038 0)
(-1.25593 -9.80926 0)
(3.74764 -9.8097 0)
(-1.25052 -9.81134 0)
(-1.2552 -9.81033 0)
(-1.25593 -9.80935 0)
(3.74764 -9.80973 0)
(-1.25051 -9.81118 0)
(-1.25518 -9.81028 0)
(-1.25592 -9.80944 0)
(3.74763 -9.80976 0)
(-1.25051 -9.81102 0)
(-1.25517 -9.81023 0)
(-1.25592 -9.80953 0)
(3.74763 -9.8098 0)
(-1.25051 -9.81087 0)
(-1.25516 -9.81019 0)
(-1.25591 -9.80961 0)
(3.74762 -9.80983 0)
(-1.25051 -9.81071 0)
(-1.25515 -9.81015 0)
(-1.25591 -9.8097 0)
(3.74762 -9.80986 0)
(-1.2505 -9.81055 0)
(-1.25514 -9.81011 0)
(-1.25591 -9.80977 0)
(3.74762 -9.8099 0)
(-1.2505 -9.8104 0)
(-1.25514 -9.81007 0)
(-1.25591 -9.80985 0)
(3.74762 -9.80993 0)
(-1.2505 -9.81026 0)
(-1.25513 -9.81003 0)
(-1.25591 -9.80992 0)
(3.74762 -9.80996 0)
(-1.2505 -9.8101 0)
(-1.25513 -9.81001 0)
(-1.25591 -9.80997 0)
(3.74762 -9.80999 0)
)
;

boundaryField
{
    topWall
    {
        type            extrapolatedCalculated;
        value           nonuniform List<vector> 8((3.74987 -9.80998 0) (-1.2472 -9.80993 0) (-1.24346 -9.80996 0) (-1.24529 -9.81006 0) (-1.2505 -9.8101 0) (-1.25513 -9.81001 0) (-1.25591 -9.80997 0) (3.74762 -9.80999 0));
    }
    botWall
    {
        type            extrapolatedCalculated;
        value           nonuniform List<vector> 8((3.75817 -99.7546 0) (-1.27279 -98.196 0) (-1.25124 -98.1065 0) (-1.25849 -98.1204 0) (-1.25766 -98.1048 0) (-1.22105 -98.1109 0) (-1.24927 -98.1158 0) (3.75232 -98.1004 0));
    }
    inlet
    {
        type            cyclic;
    }
    outlet
    {
        type            cyclic;
    }
    fixWall
    {
        type            empty;
    }
}


// ************************************************************************* //
