/*--------------------------------*- C++ -*----------------------------------*\
  =========                 |
  \\      /  F ield         | OpenFOAM: The Open Source CFD Toolbox
   \\    /   O peration     | Website:  https://openfoam.org
    \\  /    A nd           | Version:  dev
     \\/     M anipulation  |

   OpenFOAM for Windows 20.09 (v1)
   Built by CFD Support, www.cfdsupport.com (based on Symscape).
\*---------------------------------------------------------------------------*/
FoamFile
{
    version     2.0;
    format      ascii;
    class       volVectorField;
    location    "2";
    object      gradp_rgh;
}
// * * * * * * * * * * * * * * * * * * * * * * * * * * * * * * * * * * * * * //

dimensions      [1 -2 -2 0 0 0 0];

internalField   nonuniform List<vector> 
960
(
(-1.24183 -1.65325 0)
(-1.27281 -0.0958668 0)
(-1.25125 -0.00643068 0)
(-1.25849 -0.0203996 0)
(-1.24342 -1.65791 0)
(-1.24537 -0.0955613 0)
(-1.24999 -0.00627276 0)
(-1.25846 -0.0180444 0)
(-1.24333 0.0069266 0)
(-1.24529 0.00148142 0)
(-1.24995 0.000248407 0)
(-1.25846 -0.00190064 0)
(-1.24333 0.0329274 0)
(-1.24548 0.00227065 0)
(-1.25004 0.000108612 0)
(-1.25846 -0.0104128 0)
(-1.24336 0.0415685 0)
(-1.24583 -0.000904745 0)
(-1.25017 -4.48339e-05 0)
(-1.25847 -0.00586804 0)
(-1.24334 0.0398929 0)
(-1.24617 -0.000521074 0)
(-1.25013 -0.000157902 0)
(-1.25848 0.000568854 0)
(-1.24334 0.0391475 0)
(-1.2465 0.00347871 0)
(-1.25015 -0.000181509 0)
(-1.25849 0.00062051 0)
(-1.24332 0.0377124 0)
(-1.24683 0.00286288 0)
(-1.25017 -0.000175172 0)
(-1.25851 0.000684643 0)
(-1.24333 0.0365236 0)
(-1.24713 0.00370951 0)
(-1.25018 -0.000171315 0)
(-1.25852 0.000804557 0)
(-1.24331 0.035676 0)
(-1.24744 0.0052093 0)
(-1.25022 0.00179733 0)
(-1.25855 0.00536913 0)
(-1.24334 0.0359147 0)
(-1.2477 0.00513119 0)
(-1.25018 0.00640419 0)
(-1.2586 0.00683859 0)
(-1.24337 0.0346302 0)
(-1.24793 0.00547156 0)
(-1.25019 0.0164223 0)
(-1.2587 0.0336383 0)
(-1.2435 0.0321931 0)
(-1.248 0.00559117 0)
(-1.24971 0.0287044 0)
(-1.25893 0.0624491 0)
(-1.24365 0.384073 0)
(-1.24799 0.132503 0)
(-1.24925 0.774103 0)
(-1.25925 0.930612 0)
(-1.24157 -0.109302 0)
(-1.2415 0.10823 0)
(-1.23641 0.366851 0)
(-1.2557 0.174651 0)
(-1.24609 -0.604952 0)
(-1.24005 -0.021199 0)
(-1.24814 -0.386283 0)
(-1.25541 -0.722972 0)
(-1.23918 -0.115259 0)
(-1.23785 0.000123406 0)
(-1.24811 -0.00461192 0)
(-1.25569 -0.0155224 0)
(-1.23922 0.0248594 0)
(-1.23821 -0.000963332 0)
(-1.2484 -0.00757413 0)
(-1.25558 -0.0136541 0)
(-1.23927 0.0244996 0)
(-1.23839 0.00163799 0)
(-1.24832 0.000580222 0)
(-1.25564 0.00432437 0)
(-1.23923 0.0237005 0)
(-1.23861 0.00529545 0)
(-1.24836 -0.00044354 0)
(-1.25567 0.000780932 0)
(-1.23919 0.0229312 0)
(-1.2388 0.00557994 0)
(-1.24839 -0.00178961 0)
(-1.25573 -0.000451305 0)
(-1.23918 0.0221529 0)
(-1.23902 0.00578205 0)
(-1.24846 -0.00256303 0)
(-1.25574 -0.000940729 0)
(-1.23916 0.021724 0)
(-1.23921 0.00624717 0)
(-1.2485 -0.00105601 0)
(-1.25578 0.000332479 0)
(-1.23914 0.021468 0)
(-1.2394 0.00691333 0)
(-1.24855 -0.000833216 0)
(-1.25582 0.000535575 0)
(-1.23912 0.0190429 0)
(-1.23958 0.00744389 0)
(-1.24861 -0.000520259 0)
(-1.25586 0.00117423 0)
(-1.23913 0.0176763 0)
(-1.23972 0.0109641 0)
(-1.24866 0.0052144 0)
(-1.25591 0.00661094 0)
(-1.23903 0.0181654 0)
(-1.23979 0.0119654 0)
(-1.24868 0.00446828 0)
(-1.25606 -0.00876016 0)
(-1.23907 0.0182116 0)
(-1.23995 0.0170399 0)
(-1.249 0.0109852 0)
(-1.2561 -0.0148365 0)
(-1.23902 0.0374782 0)
(-1.23991 0.0218799 0)
(-1.24921 0.00817185 0)
(-1.25636 0.66011 0)
(-1.2523 0.0699079 0)
(-1.24044 0.674377 0)
(-1.23837 0.635942 0)
(-1.24437 0.495474 0)
(-1.23628 -0.454734 0)
(-1.23048 -0.231227 0)
(-1.2522 -0.0423304 0)
(-1.26168 -0.151379 0)
(-1.25111 -0.481917 0)
(-1.23357 -0.893757 0)
(-1.23704 -0.691737 0)
(-1.25054 0.0168189 0)
(-1.25115 0.033088 0)
(-1.23397 -0.00270036 0)
(-1.23702 -0.0104296 0)
(-1.2505 0.00559667 0)
(-1.25131 0.0299831 0)
(-1.23429 -0.00425748 0)
(-1.2369 -0.00150563 0)
(-1.25054 0.00560311 0)
(-1.25143 0.0254612 0)
(-1.2345 0.000825683 0)
(-1.23686 -0.00134678 0)
(-1.25066 0.00498215 0)
(-1.25155 0.0276943 0)
(-1.23474 0.000197047 0)
(-1.23683 -0.000932165 0)
(-1.25072 0.00326737 0)
(-1.25169 0.0272163 0)
(-1.23497 0.000289249 0)
(-1.2368 -0.000757283 0)
(-1.25075 0.00376405 0)
(-1.25182 0.0266638 0)
(-1.23521 0.000812691 0)
(-1.23677 -0.000530186 0)
(-1.25082 0.00471181 0)
(-1.25195 0.0274534 0)
(-1.23543 0.0010052 0)
(-1.23674 -0.000223793 0)
(-1.25088 0.00481671 0)
(-1.25207 0.0265512 0)
(-1.23567 0.00120134 0)
(-1.23671 0.00125754 0)
(-1.25094 0.00484475 0)
(-1.2522 0.0240631 0)
(-1.23585 0.00220344 0)
(-1.23668 0.00438471 0)
(-1.25103 0.00518337 0)
(-1.25231 0.0313716 0)
(-1.23599 0.00170987 0)
(-1.23666 1.85462e-05 0)
(-1.25113 0.00541377 0)
(-1.25245 0.0329418 0)
(-1.23637 0.0176578 0)
(-1.23662 -0.00476436 0)
(-1.25116 0.0050087 0)
(-1.2523 0.0222008 0)
(-1.23662 -0.00239262 0)
(-1.23687 -0.00619743 0)
(-1.25098 0.543843 0)
(-1.25841 0.0936017 0)
(-1.23684 0.148874 0)
(-1.22751 0.320866 0)
(-1.23776 0.336066 0)
(-1.2534 0.0283887 0)
(-1.23284 -0.522972 0)
(-1.23375 -0.117255 0)
(-1.24893 -0.190601 0)
(-1.26516 -0.0578809 0)
(-1.23927 -0.691502 0)
(-1.22197 -0.442203 0)
(-1.24129 0.00356642 0)
(-1.2651 -0.00888796 0)
(-1.23924 -0.0123975 0)
(-1.22216 0.00651051 0)
(-1.24155 -0.0189791 0)
(-1.26537 0.00446719 0)
(-1.23902 -0.0122749 0)
(-1.22208 0.000508166 0)
(-1.24168 -0.00688446 0)
(-1.26543 0.0252024 0)
(-1.23931 0.000254123 0)
(-1.22207 -0.0066375 0)
(-1.24181 0.00405092 0)
(-1.26548 0.0265225 0)
(-1.23955 0.0038524 0)
(-1.22202 -0.00137458 0)
(-1.2418 0.00340893 0)
(-1.26549 0.0216077 0)
(-1.23977 0.00104205 0)
(-1.22208 -0.00144548 0)
(-1.2418 0.0018415 0)
(-1.2656 0.020092 0)
(-1.23993 -0.0024727 0)
(-1.22201 -0.00152911 0)
(-1.24172 0.00371908 0)
(-1.26566 0.0238649 0)
(-1.24013 0.000920615 0)
(-1.22198 -0.00182637 0)
(-1.24182 0.00417803 0)
(-1.26576 0.0236695 0)
(-1.24036 0.00165383 0)
(-1.22195 -0.00187769 0)
(-1.24181 0.00422092 0)
(-1.26574 0.0500994 0)
(-1.24056 0.0262509 0)
(-1.22194 -0.00158521 0)
(-1.24183 0.00457009 0)
(-1.26539 0.0104112 0)
(-1.24122 -0.00923169 0)
(-1.22231 -0.00018026 0)
(-1.24183 0.0206574 0)
(-1.26655 -0.0204778 0)
(-1.24073 -0.0371617 0)
(-1.22144 -0.00626999 0)
(-1.24187 0.0169014 0)
(-1.26595 -25.7934 0)
(-1.24098 -35.6654 0)
(-1.22141 -12.6349 0)
(-1.24178 -2.20282 0)
(-1.72185 -2641.1 0)
(-1.02143 -2642.67 0)
(-0.663729 -2633.17 0)
(-1.11691 -2617.09 0)
(-1.25766 -0.00484765 0)
(-1.22105 -0.0108909 0)
(-1.24927 -0.0157587 0)
(-1.24765 -0.000402726 0)
(-1.2575 -0.00475451 0)
(-1.22123 -0.0108728 0)
(-1.24909 -0.00350338 0)
(-1.27495 -0.00519704 0)
(-1.25754 7.25223e-05 0)
(-1.22102 5.27107e-05 0)
(-1.24917 0.00471832 0)
(-1.27523 -0.00400648 0)
(-1.25747 -0.000274453 0)
(-1.22115 4.92147e-05 0)
(-1.24916 -0.00717144 0)
(-1.27491 0.00401183 0)
(-1.25736 -0.000746852 0)
(-1.22114 2.26908e-05 0)
(-1.24911 0.00103228 0)
(-1.27456 -2.67808e-05 0)
(-1.25737 -0.00142993 0)
(-1.22112 6.23957e-05 0)
(-1.24916 0.00150778 0)
(-1.27423 -0.00212009 0)
(-1.25737 -0.00192771 0)
(-1.22109 0.000141662 0)
(-1.24914 0.00189473 0)
(-1.27392 0.00244339 0)
(-1.25738 -0.00175994 0)
(-1.22106 0.00151391 0)
(-1.24912 0.00227056 0)
(-1.27361 0.00280305 0)
(-1.25736 -0.00256976 0)
(-1.22102 0.000705339 0)
(-1.24912 0.00266521 0)
(-1.27333 0.00313645 0)
(-1.25738 -0.00320785 0)
(-1.22097 -0.00089995 0)
(-1.24908 0.00351434 0)
(-1.27305 0.00572044 0)
(-1.25746 -0.00312653 0)
(-1.22091 -0.000288877 0)
(-1.24901 0.00425194 0)
(-1.27279 0.00856923 0)
(-1.2575 -0.00365989 0)
(-1.22085 -0.000360607 0)
(-1.24894 0.0096432 0)
(-1.27252 0.0150135 0)
(-1.25803 -0.00391229 0)
(-1.22069 -0.00047942 0)
(-1.24876 0.0058063 0)
(-1.27238 0.022224 0)
(-1.25855 0.96833 0)
(-1.22068 0.488902 0)
(-1.24856 0.00741614 0)
(-1.27208 0.0164115 0)
(-1.26539 0.597204 0)
(-1.2367 0.448071 0)
(-1.25663 0.328239 0)
(-1.2661 0.254751 0)
(-1.25399 -0.386054 0)
(-1.22517 -0.050187 0)
(-1.25178 -0.536683 0)
(-1.27937 -0.164183 0)
(-1.25418 -0.0151317 0)
(-1.23922 -0.00971467 0)
(-1.25853 -0.853672 0)
(-1.26724 -0.412368 0)
(-1.25389 -0.00438449 0)
(-1.23914 -0.00129693 0)
(-1.25849 0.00485435 0)
(-1.26707 0.00435741 0)
(-1.25397 -0.00463448 0)
(-1.23906 -0.00109103 0)
(-1.25844 0.00359487 0)
(-1.2669 0.00224447 0)
(-1.25398 -0.00560606 0)
(-1.23901 -0.000774117 0)
(-1.25844 0.00370105 0)
(-1.26672 0.000245091 0)
(-1.254 -0.00598557 0)
(-1.23891 -0.00408217 0)
(-1.25842 0.00571185 0)
(-1.26657 0.00259551 0)
(-1.25404 -0.0057511 0)
(-1.23881 -0.00454563 0)
(-1.25832 0.00602745 0)
(-1.26643 0.00420767 0)
(-1.25406 -0.00576908 0)
(-1.23871 -0.00163165 0)
(-1.25827 0.00613763 0)
(-1.2663 0.00431379 0)
(-1.25408 -0.00586807 0)
(-1.23861 -0.00148977 0)
(-1.25822 0.00618535 0)
(-1.26617 0.00440658 0)
(-1.25409 -0.00605046 0)
(-1.23851 -0.00129856 0)
(-1.25818 0.00653325 0)
(-1.26605 0.00661787 0)
(-1.25412 -0.0064947 0)
(-1.2384 0.00113373 0)
(-1.25809 0.0070871 0)
(-1.26596 0.00558848 0)
(-1.25418 -0.00710465 0)
(-1.23828 0.000982265 0)
(-1.2581 0.00749723 0)
(-1.26587 0.0084536 0)
(-1.25395 -0.00685551 0)
(-1.23816 0.00795999 0)
(-1.25797 0.00745551 0)
(-1.26578 0.0165181 0)
(-1.2538 0.712093 0)
(-1.23804 0.678797 0)
(-1.25796 0.0264684 0)
(-1.26569 0.815819 0)
(-1.25364 0.316535 0)
(-1.24959 0.581189 0)
(-1.25568 0.118405 0)
(-1.2656 0.509817 0)
(-1.25238 -0.412436 0)
(-1.24135 -0.11046 0)
(-1.25915 -0.72704 0)
(-1.2665 -0.303117 0)
(-1.25296 -0.0207646 0)
(-1.25483 -0.0286486 0)
(-1.2589 -0.822258 0)
(-1.26106 -0.00162598 0)
(-1.25313 -0.0105655 0)
(-1.2547 -0.0121958 0)
(-1.2587 0.000960338 0)
(-1.26083 0.00924329 0)
(-1.25326 -0.0115581 0)
(-1.25464 -0.00923928 0)
(-1.25854 0.00184725 0)
(-1.26053 0.0128924 0)
(-1.25338 -0.011902 0)
(-1.25448 -0.00861361 0)
(-1.25833 -0.000288495 0)
(-1.26036 0.0154991 0)
(-1.25348 -0.00626697 0)
(-1.25444 -0.00927825 0)
(-1.25814 -0.000646666 0)
(-1.2601 0.0152807 0)
(-1.25359 -0.0068581 0)
(-1.25439 -0.00941051 0)
(-1.25792 0.00209639 0)
(-1.25989 0.0163474 0)
(-1.2537 -0.00826985 0)
(-1.25429 -0.00925666 0)
(-1.25771 0.00256182 0)
(-1.25968 0.0164081 0)
(-1.25382 -0.00759481 0)
(-1.25421 -0.00928182 0)
(-1.25749 0.00620191 0)
(-1.25948 0.0164 0)
(-1.25394 -0.00731932 0)
(-1.25406 -0.00916341 0)
(-1.25728 0.00511545 0)
(-1.25933 0.0163402 0)
(-1.25406 -0.00704205 0)
(-1.254 -0.00923344 0)
(-1.25707 0.001267 0)
(-1.25913 0.0165314 0)
(-1.25418 -0.00831495 0)
(-1.25393 -0.00915629 0)
(-1.25685 0.00204665 0)
(-1.25895 0.0169037 0)
(-1.2543 0.00454244 0)
(-1.25383 -0.00691999 0)
(-1.25663 0.028258 0)
(-1.25864 0.016826 0)
(-1.25438 0.798309 0)
(-1.25353 0.0513827 0)
(-1.25645 -0.0303023 0)
(-1.25887 0.354948 0)
(-1.26251 0.443696 0)
(-1.26764 -0.0439778 0)
(-1.25157 0.202671 0)
(-1.25776 0.215202 0)
(-1.26071 -0.329302 0)
(-1.25755 -0.134637 0)
(-1.25213 -0.0324707 0)
(-1.26068 -0.117952 0)
(-1.26157 0.000771745 0)
(-1.26269 -0.0395775 0)
(-1.2513 -0.299737 0)
(-1.25675 0.0101705 0)
(-1.26143 -0.0170572 0)
(-1.26256 -0.0036782 0)
(-1.2513 -0.00878358 0)
(-1.25665 0.000525324 0)
(-1.26132 -0.0152374 0)
(-1.26255 -0.00189578 0)
(-1.25123 0.00218417 0)
(-1.25675 0.00768677 0)
(-1.26135 -0.0136369 0)
(-1.26227 -0.00168985 0)
(-1.25115 0.00492453 0)
(-1.25662 0.00697162 0)
(-1.26141 -0.000615709 0)
(-1.26224 -0.00137455 0)
(-1.25108 0.00422552 0)
(-1.25641 0.00715473 0)
(-1.26143 0.00328151 0)
(-1.26219 -0.00135658 0)
(-1.251 0.00637629 0)
(-1.25624 0.00782917 0)
(-1.26147 -0.00259516 0)
(-1.26219 0.000506667 0)
(-1.25093 0.00663465 0)
(-1.25616 0.00801127 0)
(-1.26148 -0.00729805 0)
(-1.26203 -0.000155566 0)
(-1.25088 0.0110387 0)
(-1.25602 0.0106024 0)
(-1.26154 -0.00267383 0)
(-1.26189 -0.00342154 0)
(-1.25075 0.00962043 0)
(-1.25594 0.00618005 0)
(-1.26161 -0.00269133 0)
(-1.26183 -0.00380053 0)
(-1.25072 0.00610862 0)
(-1.25579 0.00437251 0)
(-1.26168 -0.0025557 0)
(-1.26174 -0.00428842 0)
(-1.25061 0.0436304 0)
(-1.25521 0.0395313 0)
(-1.26202 -0.00325306 0)
(-1.26106 -0.00644992 0)
(-1.24999 0.00951868 0)
(-1.25634 -0.00391831 0)
(-1.26207 -5.13725 0)
(-1.26153 -7.1886 0)
(-1.25057 -11.045 0)
(-1.25571 -8.34756 0)
(-1.34512 -2633.23 0)
(-1.35952 -2641.16 0)
(-1.2693 -2640.43 0)
(-1.50215 -2629.44 0)
(-1.48644 -2622.51 0)
(-1.1088 -2612.37 0)
(-0.794972 -2636.12 0)
(-1.24283 -2647.1 0)
(-1.25094 -7.21783 0)
(-1.24818 -5.36404 0)
(-1.24248 -15.5757 0)
(-1.24429 -32.2143 0)
(-1.25097 -0.00452388 0)
(-1.24809 0.000403033 0)
(-1.24248 -0.000625083 0)
(-1.24448 0.000538585 0)
(-1.25097 0.00113131 0)
(-1.24812 0.00239756 0)
(-1.24248 -0.000503556 0)
(-1.24448 0.00138461 0)
(-1.25096 0.000542009 0)
(-1.24812 0.0025735 0)
(-1.24249 -0.000267608 0)
(-1.2445 0.00124752 0)
(-1.25095 0.000491686 0)
(-1.24813 0.0022898 0)
(-1.2425 -0.000399647 0)
(-1.24451 0.0012456 0)
(-1.25095 0.000221578 0)
(-1.24814 0.00248054 0)
(-1.24251 -0.000235032 0)
(-1.24452 0.00111739 0)
(-1.25093 0.000213828 0)
(-1.24814 0.00248961 0)
(-1.24252 -0.000139946 0)
(-1.24454 0.00115551 0)
(-1.25092 8.16231e-05 0)
(-1.24814 0.00246784 0)
(-1.24253 -7.59781e-05 0)
(-1.24455 0.00118609 0)
(-1.25091 3.59467e-06 0)
(-1.24814 0.00251478 0)
(-1.24255 1.24118e-05 0)
(-1.24456 0.0011714 0)
(-1.25089 -1.53868e-05 0)
(-1.24814 0.00232976 0)
(-1.24255 -0.000220936 0)
(-1.24458 0.00126583 0)
(-1.25088 4.4904e-05 0)
(-1.24814 0.00187452 0)
(-1.24256 -0.000610308 0)
(-1.24458 0.00135793 0)
(-1.25088 -5.55445e-05 0)
(-1.24815 0.00179083 0)
(-1.24256 -0.000704159 0)
(-1.24458 0.00149868 0)
(-1.25087 -0.000504048 0)
(-1.24815 0.00171376 0)
(-1.24257 -0.000559234 0)
(-1.24458 0.00112425 0)
(-1.25086 -0.00115415 0)
(-1.24815 0.00181956 0)
(-1.24257 -4.28212e-05 0)
(-1.24457 0.00045053 0)
(-1.25084 -0.00219079 0)
(-1.24813 0.00228513 0)
(-1.24259 0.00078223 0)
(-1.24458 -0.000693772 0)
(-1.25081 -0.0030237 0)
(-1.2481 0.00215613 0)
(-1.24262 0.00106583 0)
(-1.2446 -0.00174393 0)
(-1.25078 -0.00346965 0)
(-1.24807 0.00174726 0)
(-1.24266 0.000909574 0)
(-1.24462 -0.00218015 0)
(-1.25075 -0.00356997 0)
(-1.24803 0.00125345 0)
(-1.24269 0.000605517 0)
(-1.24463 -0.00232879 0)
(-1.25073 -0.00362257 0)
(-1.248 0.00085989 0)
(-1.24272 0.000152356 0)
(-1.24464 -0.00210462 0)
(-1.25072 -0.00354623 0)
(-1.24797 0.000476851 0)
(-1.24274 -5.00678e-05 0)
(-1.24464 -0.00196707 0)
(-1.2507 -0.00369574 0)
(-1.24794 0.000461242 0)
(-1.24276 -4.27715e-05 0)
(-1.24464 -0.00190711 0)
(-1.25068 -0.00378034 0)
(-1.24791 0.000415168 0)
(-1.24278 -3.60778e-05 0)
(-1.24464 -0.00188412 0)
(-1.25067 -0.00388025 0)
(-1.24788 0.000347877 0)
(-1.2428 -3.77206e-05 0)
(-1.24464 -0.00184173 0)
(-1.25065 -0.00396995 0)
(-1.24784 0.00029502 0)
(-1.24281 -4.04639e-05 0)
(-1.24463 -0.00180768 0)
(-1.25063 -0.00409395 0)
(-1.24781 0.000197661 0)
(-1.24283 7.58149e-05 0)
(-1.24463 -0.00199954 0)
(-1.25061 -0.00437279 0)
(-1.24777 0.000680195 0)
(-1.24285 0.000511179 0)
(-1.24464 -0.00210956 0)
(-1.25059 -0.00434948 0)
(-1.24773 0.00116703 0)
(-1.24288 0.000926619 0)
(-1.24465 -0.00202848 0)
(-1.25056 -0.00404829 0)
(-1.24769 0.00159095 0)
(-1.2429 0.00127222 0)
(-1.24466 -0.00191789 0)
(-1.25053 -0.003303 0)
(-1.24764 0.00221392 0)
(-1.24294 0.0014874 0)
(-1.24468 -0.0015166 0)
(-1.2505 -0.00237949 0)
(-1.24761 0.00191399 0)
(-1.24297 0.00106255 0)
(-1.2447 -0.0011743 0)
(-1.25049 -0.00168671 0)
(-1.24758 0.00142295 0)
(-1.24299 0.000721366 0)
(-1.24472 -0.00120886 0)
(-1.25047 -0.00142682 0)
(-1.24757 0.00156057 0)
(-1.24301 0.000779698 0)
(-1.24474 -0.00123229 0)
(-1.25046 -0.00151449 0)
(-1.24755 0.00150925 0)
(-1.24303 0.000854307 0)
(-1.24477 -0.00134215 0)
(-1.25044 -0.00163822 0)
(-1.24753 0.001838 0)
(-1.24306 0.00122505 0)
(-1.2448 -0.00141208 0)
(-1.25042 -0.00175938 0)
(-1.2475 0.00227882 0)
(-1.24309 0.00150589 0)
(-1.24483 -0.00128374 0)
(-1.25039 -0.00173636 0)
(-1.24747 0.00217599 0)
(-1.24312 0.00144718 0)
(-1.24487 -0.00113535 0)
(-1.25037 -0.00171765 0)
(-1.24745 0.0020393 0)
(-1.24314 0.0013788 0)
(-1.2449 -0.001005 0)
(-1.25034 -0.00171668 0)
(-1.24742 0.00192536 0)
(-1.24317 0.00131954 0)
(-1.24493 -0.000864415 0)
(-1.25032 -0.00170187 0)
(-1.2474 0.00179136 0)
(-1.24319 0.00125081 0)
(-1.24496 -0.000727815 0)
(-1.2503 -0.00173922 0)
(-1.24737 0.00170963 0)
(-1.24321 0.0012145 0)
(-1.24498 -0.000587877 0)
(-1.25028 -0.00174494 0)
(-1.24735 0.00162058 0)
(-1.24323 0.00119189 0)
(-1.24501 -0.000448312 0)
(-1.25026 -0.00165455 0)
(-1.24732 0.0014396 0)
(-1.24324 0.00116636 0)
(-1.24503 -0.000339493 0)
(-1.25024 -0.00129734 0)
(-1.2473 0.00121134 0)
(-1.24326 0.00118256 0)
(-1.24505 -0.000348032 0)
(-1.25022 -0.000884446 0)
(-1.24728 0.00108144 0)
(-1.24327 0.00111416 0)
(-1.24507 -0.000520165 0)
(-1.25021 -0.000485416 0)
(-1.24727 0.00107897 0)
(-1.24328 0.00100169 0)
(-1.2451 -0.00077947 0)
(-1.2502 -0.000185944 0)
(-1.24726 0.00120024 0)
(-1.2433 0.000925888 0)
(-1.24512 -0.00101585 0)
(-1.25019 -0.000140911 0)
(-1.24725 0.00135617 0)
(-1.24332 0.000823926 0)
(-1.24514 -0.00113537 0)
(-1.25018 -0.000146477 0)
(-1.24724 0.00138132 0)
(-1.24334 0.000765857 0)
(-1.24516 -0.0010913 0)
(-1.25017 -0.000138687 0)
(-1.24723 0.00128539 0)
(-1.24336 0.000731273 0)
(-1.24518 -0.000980129 0)
(-1.25017 -0.000114374 0)
(-1.24722 0.00115333 0)
(-1.24338 0.000677152 0)
(-1.2452 -0.000894681 0)
(-1.25016 -9.15641e-05 0)
(-1.24722 0.00102533 0)
(-1.2434 0.000611219 0)
(-1.24522 -0.000811542 0)
(-1.25015 -6.27889e-05 0)
(-1.24721 0.000905859 0)
(-1.24341 0.000529545 0)
(-1.24524 -0.000723102 0)
(-1.25015 -2.77609e-05 0)
(-1.24721 0.000788729 0)
(-1.24342 0.000444651 0)
(-1.24525 -0.000641214 0)
(-1.25014 -6.07299e-07 0)
(-1.24721 0.000676977 0)
(-1.24343 0.000366066 0)
(-1.24526 -0.000560569 0)
(-1.25014 1.89341e-05 0)
(-1.2472 0.000555324 0)
(-1.24344 0.000294452 0)
(-1.24527 -0.0004665 0)
(-1.25014 2.7002e-05 0)
(-1.2472 0.000430332 0)
(-1.24345 0.000226839 0)
(-1.24528 -0.000366119 0)
(-1.25013 3.89382e-05 0)
(-1.2472 0.00030533 0)
(-1.24346 0.000160919 0)
(-1.24528 -0.00026424 0)
(-1.25013 4.44773e-05 0)
(-1.2472 0.000194848 0)
(-1.24346 0.000102685 0)
(-1.24529 -0.000169287 0)
(-1.25013 2.27121e-05 0)
(-1.2472 7.2659e-05 0)
(-1.24346 3.91408e-05 0)
(-1.24529 -6.16168e-05 0)
(-1.66321 -2643.76 0)
(-1.38152 -2641.46 0)
(-1.05539 -2637.63 0)
(-1.26685 -2640.63 0)
(-1.25107 -15.6742 0)
(-1.2573 -7.49178 0)
(-1.25551 -8.2117 0)
(-1.25022 -19.492 0)
(-1.25116 -0.011911 0)
(-1.25714 -0.00499451 0)
(-1.25539 -0.00230734 0)
(-1.25029 0.00208126 0)
(-1.25116 -0.00173249 0)
(-1.25714 0.00140403 0)
(-1.25539 -0.00101458 0)
(-1.25026 0.00181181 0)
(-1.25116 -0.00185355 0)
(-1.25713 0.00105611 0)
(-1.25538 -0.000784128 0)
(-1.25025 0.00171283 0)
(-1.25117 -0.00184615 0)
(-1.25713 0.000915333 0)
(-1.25538 -0.000892979 0)
(-1.25024 0.00148004 0)
(-1.25117 -0.0019512 0)
(-1.25712 0.000822306 0)
(-1.25537 -0.000693206 0)
(-1.25023 0.00130729 0)
(-1.25117 -0.00185938 0)
(-1.2571 0.000818632 0)
(-1.25537 -0.000544379 0)
(-1.25022 0.00110266 0)
(-1.25117 -0.00175217 0)
(-1.25709 0.000808099 0)
(-1.25537 -0.000367496 0)
(-1.25022 0.000967588 0)
(-1.25118 -0.00164547 0)
(-1.25708 0.000834389 0)
(-1.25537 -0.000220859 0)
(-1.25022 0.000784447 0)
(-1.25118 -0.00133429 0)
(-1.25707 0.000901885 0)
(-1.25537 -0.00031304 0)
(-1.25021 0.000748103 0)
(-1.25118 -0.000819447 0)
(-1.25706 0.00106878 0)
(-1.25537 -0.000490403 0)
(-1.25021 0.000820055 0)
(-1.25119 -0.00045857 0)
(-1.25706 0.0012752 0)
(-1.25537 -0.00021889 0)
(-1.2502 0.000835256 0)
(-1.25119 -0.000239678 0)
(-1.25706 0.00140166 0)
(-1.25538 0.00090026 0)
(-1.25021 0.000680561 0)
(-1.25118 -0.00031918 0)
(-1.25705 0.0014668 0)
(-1.25539 0.00304234 0)
(-1.25023 0.000170371 0)
(-1.25117 -0.000875471 0)
(-1.257 0.00133913 0)
(-1.2554 0.00562094 0)
(-1.25028 -0.000649286 0)
(-1.25115 -0.00110983 0)
(-1.25694 0.00121104 0)
(-1.25542 0.00753184 0)
(-1.25036 -0.00130866 0)
(-1.25112 -0.000997645 0)
(-1.25686 0.00122454 0)
(-1.25544 0.00846145 0)
(-1.25046 -0.00160564 0)
(-1.25109 -0.000781766 0)
(-1.25678 0.00129108 0)
(-1.25547 0.00854193 0)
(-1.25056 -0.00171299 0)
(-1.25106 -0.000295383 0)
(-1.2567 0.00141847 0)
(-1.25549 0.00829721 0)
(-1.25066 -0.00150755 0)
(-1.25103 3.20635e-06 0)
(-1.25664 0.00156042 0)
(-1.25552 0.00821473 0)
(-1.25075 -0.00145765 0)
(-1.251 8.79484e-05 0)
(-1.25657 0.00158861 0)
(-1.25554 0.00824262 0)
(-1.25085 -0.00149401 0)
(-1.25097 0.000159569 0)
(-1.2565 0.0016161 0)
(-1.25557 0.00826317 0)
(-1.25095 -0.00155105 0)
(-1.25094 0.000254356 0)
(-1.25643 0.00165508 0)
(-1.25559 0.00826932 0)
(-1.25105 -0.00159536 0)
(-1.25091 0.000337573 0)
(-1.25637 0.00166462 0)
(-1.25562 0.008266 0)
(-1.25116 -0.00163768 0)
(-1.25089 -1.60394e-06 0)
(-1.2563 0.00154268 0)
(-1.25565 0.00825482 0)
(-1.25126 -0.0019421 0)
(-1.25086 -0.000324321 0)
(-1.25623 0.00142237 0)
(-1.25568 0.00842397 0)
(-1.25136 -0.00218286 0)
(-1.25083 -0.000380348 0)
(-1.25615 0.00135545 0)
(-1.25571 0.00846851 0)
(-1.25147 -0.00211355 0)
(-1.2508 -0.000872446 0)
(-1.25608 0.00126808 0)
(-1.25574 0.00793866 0)
(-1.25158 -0.00191347 0)
(-1.25077 -0.000945763 0)
(-1.25601 0.00132198 0)
(-1.25576 0.00698424 0)
(-1.25167 -0.0011685 0)
(-1.25075 -0.00106181 0)
(-1.25595 0.00135377 0)
(-1.25578 0.00547124 0)
(-1.25175 -0.00045688 0)
(-1.25073 -0.00185235 0)
(-1.2559 0.00117063 0)
(-1.25579 0.00402785 0)
(-1.2518 -0.000315121 0)
(-1.25071 -0.00221804 0)
(-1.25585 0.000996622 0)
(-1.2558 0.00334125 0)
(-1.25184 -0.000245563 0)
(-1.25069 -0.0025716 0)
(-1.25581 0.00083235 0)
(-1.25581 0.00305567 0)
(-1.25188 -0.000488297 0)
(-1.25068 -0.00284434 0)
(-1.25576 0.000659499 0)
(-1.25583 0.00311185 0)
(-1.25192 -0.000742469 0)
(-1.25066 -0.00269099 0)
(-1.25571 0.000634389 0)
(-1.25584 0.00320032 0)
(-1.25196 -0.000749704 0)
(-1.25064 -0.00249281 0)
(-1.25566 0.000646677 0)
(-1.25585 0.00308095 0)
(-1.252 -0.000758138 0)
(-1.25063 -0.00230225 0)
(-1.25561 0.000641065 0)
(-1.25586 0.00295667 0)
(-1.25204 -0.000768403 0)
(-1.25062 -0.00210471 0)
(-1.25557 0.000649454 0)
(-1.25587 0.00284154 0)
(-1.25208 -0.000786004 0)
(-1.2506 -0.00190688 0)
(-1.25553 0.00066463 0)
(-1.25588 0.0027435 0)
(-1.25212 -0.000817045 0)
(-1.25059 -0.00172849 0)
(-1.25549 0.000694147 0)
(-1.2559 0.00266571 0)
(-1.25215 -0.000866761 0)
(-1.25058 -0.00159144 0)
(-1.25546 0.00071638 0)
(-1.25591 0.00257483 0)
(-1.25219 -0.000928348 0)
(-1.25057 -0.00150905 0)
(-1.25542 0.000713165 0)
(-1.25592 0.0024589 0)
(-1.25223 -0.000990704 0)
(-1.25057 -0.00151683 0)
(-1.25539 0.000601915 0)
(-1.25594 0.00226542 0)
(-1.25226 -0.000941932 0)
(-1.25056 -0.00162985 0)
(-1.25536 0.000352603 0)
(-1.25595 0.00194072 0)
(-1.25228 -0.0007123 0)
(-1.25055 -0.00172171 0)
(-1.25533 5.62613e-05 0)
(-1.25596 0.00162342 0)
(-1.25231 -0.000337909 0)
(-1.25054 -0.00181307 0)
(-1.25531 -0.000228929 0)
(-1.25596 0.00133479 0)
(-1.25232 5.85669e-05 0)
(-1.25054 -0.00185817 0)
(-1.25528 -0.000396799 0)
(-1.25595 0.00108174 0)
(-1.25233 0.000309422 0)
(-1.25053 -0.0017535 0)
(-1.25526 -0.000433971 0)
(-1.25594 0.000949894 0)
(-1.25234 0.000383272 0)
(-1.25053 -0.00163296 0)
(-1.25524 -0.000420561 0)
(-1.25594 0.000847589 0)
(-1.25235 0.000349152 0)
(-1.25052 -0.00150128 0)
(-1.25522 -0.000381487 0)
(-1.25593 0.000739803 0)
(-1.25236 0.000303089 0)
(-1.25052 -0.0013428 0)
(-1.2552 -0.000331024 0)
(-1.25593 0.000646657 0)
(-1.25236 0.000270242 0)
(-1.25051 -0.00118381 0)
(-1.25518 -0.000280715 0)
(-1.25592 0.000556369 0)
(-1.25237 0.000236012 0)
(-1.25051 -0.00102203 0)
(-1.25517 -0.00023474 0)
(-1.25592 0.000469403 0)
(-1.25237 0.000203003 0)
(-1.25051 -0.000866506 0)
(-1.25516 -0.000189335 0)
(-1.25591 0.000385022 0)
(-1.25238 0.000169066 0)
(-1.25051 -0.000707703 0)
(-1.25515 -0.00014676 0)
(-1.25591 0.000304168 0)
(-1.25238 0.000136018 0)
(-1.2505 -0.000552212 0)
(-1.25514 -0.000106221 0)
(-1.25591 0.000225805 0)
(-1.25238 0.000101707 0)
(-1.2505 -0.000398689 0)
(-1.25514 -6.75469e-05 0)
(-1.25591 0.00014993 0)
(-1.25238 6.83665e-05 0)
(-1.2505 -0.000262673 0)
(-1.25513 -3.38186e-05 0)
(-1.25591 8.14045e-05 0)
(-1.25238 3.67327e-05 0)
(-1.2505 -0.000100239 0)
(-1.25513 -9.40013e-06 0)
(-1.25591 2.52934e-05 0)
(-1.25238 1.04831e-05 0)
)
;

boundaryField
{
    topWall
    {
        type            extrapolatedCalculated;
        value           nonuniform List<vector> 8((-1.25013 2.27121e-05 0) (-1.2472 7.2659e-05 0) (-1.24346 3.91408e-05 0) (-1.24529 -6.16168e-05 0) (-1.2505 -0.000100239 0) (-1.25513 -9.40013e-06 0) (-1.25591 2.52934e-05 0) (-1.25238 1.04831e-05 0));
    }
    botWall
    {
        type            extrapolatedCalculated;
        value           nonuniform List<vector> 8((-1.24183 -1.65325 0) (-1.27281 -0.0958668 0) (-1.25125 -0.00643068 0) (-1.25849 -0.0203996 0) (-1.25766 -0.00484765 0) (-1.22105 -0.0108909 0) (-1.24927 -0.0157587 0) (-1.24765 -0.000402726 0));
    }
    inlet
    {
        type            cyclic;
    }
    outlet
    {
        type            cyclic;
    }
    fixWall
    {
        type            empty;
    }
}


// ************************************************************************* //
