/*--------------------------------*- C++ -*----------------------------------*\
  =========                 |
  \\      /  F ield         | OpenFOAM: The Open Source CFD Toolbox
   \\    /   O peration     | Website:  https://openfoam.org
    \\  /    A nd           | Version:  dev
     \\/     M anipulation  |

   OpenFOAM for Windows 20.09 (v1)
   Built by CFD Support, www.cfdsupport.com (based on Symscape).
\*---------------------------------------------------------------------------*/
FoamFile
{
    version     2.0;
    format      ascii;
    class       volScalarField;
    location    "2";
    object      nut;
}
// * * * * * * * * * * * * * * * * * * * * * * * * * * * * * * * * * * * * * //

dimensions      [0 2 -1 0 0 0 0];

internalField   nonuniform List<scalar> 
960
(
2.5539e-21
2.5539e-21
2.5539e-21
2.5539e-21
1.48059e-20
1.4806e-20
1.4806e-20
1.4806e-20
4.34871e-20
4.34878e-20
4.34876e-20
4.34875e-20
9.24925e-20
9.24948e-20
9.24942e-20
9.24939e-20
1.63951e-19
1.63956e-19
1.63954e-19
1.63953e-19
2.57858e-19
2.57865e-19
2.57861e-19
2.57859e-19
3.74314e-19
3.74324e-19
3.74316e-19
3.74313e-19
5.1336e-19
5.1337e-19
5.13357e-19
5.13352e-19
6.74963e-19
6.74976e-19
6.74954e-19
6.74945e-19
8.59055e-19
8.59072e-19
8.59038e-19
8.59022e-19
1.06555e-18
1.06557e-18
1.06552e-18
1.06549e-18
1.29433e-18
1.29437e-18
1.29429e-18
1.29426e-18
1.54527e-18
1.54531e-18
1.54521e-18
1.54516e-18
1.81812e-18
1.81816e-18
1.81804e-18
1.81797e-18
2.11255e-18
2.11259e-18
2.11243e-18
2.11235e-18
2.42826e-18
2.42831e-18
2.42812e-18
2.42801e-18
2.76456e-18
2.76462e-18
2.76439e-18
2.76425e-18
3.12054e-18
3.12062e-18
3.12033e-18
3.12016e-18
3.49505e-18
3.49515e-18
3.49481e-18
3.49462e-18
3.88668e-18
3.88681e-18
3.88642e-18
3.88618e-18
4.29366e-18
4.29382e-18
4.29338e-18
4.29311e-18
4.71387e-18
4.71407e-18
4.71357e-18
4.71327e-18
5.1448e-18
5.14505e-18
5.14452e-18
5.14417e-18
5.58359e-18
5.5839e-18
5.58333e-18
5.58295e-18
6.02699e-18
6.02737e-18
6.02677e-18
6.02636e-18
6.47143e-18
6.4719e-18
6.47128e-18
6.47084e-18
6.9131e-18
6.91367e-18
6.91305e-18
6.91259e-18
7.348e-18
7.34868e-18
7.34807e-18
7.3476e-18
7.77203e-18
7.77287e-18
7.77228e-18
7.7718e-18
8.18119e-18
8.18218e-18
8.18165e-18
8.18117e-18
8.59306e-18
8.59425e-18
8.59375e-18
8.59323e-18
8.9972e-18
8.99862e-18
8.99814e-18
8.99757e-18
9.38138e-18
9.38304e-18
9.3826e-18
9.38196e-18
9.74248e-18
9.7444e-18
9.74402e-18
9.74331e-18
1.00777e-17
1.00799e-17
1.00796e-17
1.00788e-17
1.03846e-17
1.03871e-17
1.03869e-17
1.0386e-17
1.06612e-17
1.06639e-17
1.06638e-17
1.06628e-17
1.09056e-17
1.09087e-17
1.09087e-17
1.09076e-17
1.11168e-17
1.11201e-17
1.11203e-17
1.11191e-17
1.12938e-17
1.12974e-17
1.12976e-17
1.12964e-17
1.1436e-17
1.14399e-17
1.14403e-17
1.1439e-17
1.15433e-17
1.15475e-17
1.1548e-17
1.15466e-17
1.16158e-17
1.16201e-17
1.16208e-17
1.16193e-17
1.16537e-17
1.16582e-17
1.16591e-17
1.16575e-17
1.16576e-17
1.16622e-17
1.16634e-17
1.16617e-17
1.16924e-17
1.16971e-17
1.16986e-17
1.16967e-17
1.17275e-17
1.17323e-17
1.17342e-17
1.17321e-17
1.17285e-17
1.17334e-17
1.17357e-17
1.17334e-17
1.16945e-17
1.16994e-17
1.17022e-17
1.16997e-17
1.16248e-17
1.16297e-17
1.1633e-17
1.16303e-17
1.15188e-17
1.15236e-17
1.15275e-17
1.15246e-17
1.1376e-17
1.13807e-17
1.13853e-17
1.13821e-17
1.11963e-17
1.12009e-17
1.12063e-17
1.12029e-17
1.09799e-17
1.09843e-17
1.09905e-17
1.0987e-17
1.07274e-17
1.07316e-17
1.07387e-17
1.0735e-17
1.04397e-17
1.04437e-17
1.04518e-17
1.04481e-17
1.01185e-17
1.01222e-17
1.01313e-17
1.01277e-17
9.76569e-18
9.76905e-18
9.77913e-18
9.7758e-18
9.58119e-18
9.58685e-18
9.59585e-18
9.58772e-18
9.58077e-18
9.58615e-18
9.5961e-18
9.58808e-18
2.5539e-21
2.5539e-21
2.5539e-21
2.5539e-21
1.4806e-20
1.4806e-20
1.4806e-20
1.4806e-20
4.34875e-20
4.34875e-20
4.34878e-20
4.34878e-20
9.24939e-20
9.24938e-20
9.24948e-20
9.24948e-20
1.63953e-19
1.63953e-19
1.63955e-19
1.63955e-19
2.5786e-19
2.57861e-19
2.57865e-19
2.57862e-19
3.74315e-19
3.74317e-19
3.74324e-19
3.74316e-19
5.13356e-19
5.1336e-19
5.13371e-19
5.13354e-19
6.74953e-19
6.74961e-19
6.74976e-19
6.74947e-19
8.59037e-19
8.5905e-19
8.59071e-19
8.59024e-19
1.06552e-18
1.06554e-18
1.06557e-18
1.0655e-18
1.2943e-18
1.29432e-18
1.29436e-18
1.29426e-18
1.54522e-18
1.54526e-18
1.54529e-18
1.54517e-18
1.81806e-18
1.8181e-18
1.81814e-18
1.81799e-18
2.11247e-18
2.11252e-18
2.11256e-18
2.11238e-18
2.42816e-18
2.42823e-18
2.42827e-18
2.42805e-18
2.76444e-18
2.76453e-18
2.76457e-18
2.76431e-18
3.12039e-18
3.1205e-18
3.12054e-18
3.12024e-18
3.49489e-18
3.49501e-18
3.49506e-18
3.49471e-18
3.8865e-18
3.88665e-18
3.88669e-18
3.8863e-18
4.29346e-18
4.29364e-18
4.29368e-18
4.29325e-18
4.71367e-18
4.71387e-18
4.71391e-18
4.71344e-18
5.14462e-18
5.14484e-18
5.14487e-18
5.14437e-18
5.58343e-18
5.58367e-18
5.5837e-18
5.58317e-18
6.02687e-18
6.02714e-18
6.02715e-18
6.02661e-18
6.47138e-18
6.47167e-18
6.47167e-18
6.47112e-18
6.91315e-18
6.91345e-18
6.91343e-18
6.9129e-18
7.34817e-18
7.34848e-18
7.34844e-18
7.34793e-18
7.77237e-18
7.7727e-18
7.77263e-18
7.77215e-18
8.18173e-18
8.18206e-18
8.18197e-18
8.18152e-18
8.5938e-18
8.59415e-18
8.59403e-18
8.59359e-18
8.99816e-18
8.99853e-18
8.9984e-18
8.99793e-18
9.38258e-18
9.38296e-18
9.38282e-18
9.38233e-18
9.74396e-18
9.74433e-18
9.74418e-18
9.74368e-18
1.00795e-17
1.00799e-17
1.00797e-17
1.00792e-17
1.03867e-17
1.03871e-17
1.03869e-17
1.03864e-17
1.06636e-17
1.06639e-17
1.06637e-17
1.06632e-17
1.09084e-17
1.09087e-17
1.09085e-17
1.09079e-17
1.11199e-17
1.11202e-17
1.11199e-17
1.11194e-17
1.12972e-17
1.12975e-17
1.12972e-17
1.12967e-17
1.14398e-17
1.144e-17
1.14397e-17
1.14392e-17
1.15474e-17
1.15476e-17
1.15473e-17
1.15468e-17
1.16201e-17
1.16203e-17
1.162e-17
1.16194e-17
1.16583e-17
1.16584e-17
1.16581e-17
1.16576e-17
1.16624e-17
1.16625e-17
1.16622e-17
1.16616e-17
1.16973e-17
1.16974e-17
1.16971e-17
1.16965e-17
1.17326e-17
1.17326e-17
1.17324e-17
1.17318e-17
1.17338e-17
1.17337e-17
1.17336e-17
1.17329e-17
1.16999e-17
1.16997e-17
1.16997e-17
1.16991e-17
1.16303e-17
1.163e-17
1.163e-17
1.16294e-17
1.15243e-17
1.15239e-17
1.1524e-17
1.15234e-17
1.13815e-17
1.1381e-17
1.13812e-17
1.13806e-17
1.12018e-17
1.12011e-17
1.12015e-17
1.12009e-17
1.09854e-17
1.09845e-17
1.0985e-17
1.09846e-17
1.07328e-17
1.07317e-17
1.07324e-17
1.07321e-17
1.04451e-17
1.04437e-17
1.04447e-17
1.04445e-17
1.01238e-17
1.01221e-17
1.01234e-17
1.01234e-17
9.77088e-18
9.76884e-18
9.77046e-18
9.77072e-18
9.58466e-18
9.58632e-18
9.58915e-18
9.58521e-18
9.58411e-18
9.58575e-18
9.58885e-18
9.58506e-18
4.7961e-18
4.78598e-18
4.84883e-18
4.91955e-18
3.19943e-18
3.19761e-18
3.21676e-18
3.23272e-18
3.76929e-18
3.77201e-18
3.76027e-18
3.7303e-18
4.43109e-18
4.43226e-18
4.41705e-18
4.39265e-18
5.19806e-18
5.19795e-18
5.18135e-18
5.16455e-18
6.11393e-18
6.11218e-18
6.09275e-18
6.08766e-18
7.22584e-18
7.22502e-18
7.2003e-18
7.20694e-18
8.59648e-18
8.59465e-18
8.56516e-18
8.58359e-18
1.00448e-17
1.00462e-17
1.00575e-17
1.00589e-17
9.99656e-18
9.99819e-18
1.00105e-17
1.00118e-17
1.02165e-17
1.0222e-17
1.02234e-17
1.02215e-17
1.045e-17
1.04566e-17
1.04591e-17
1.0457e-17
1.06445e-17
1.06521e-17
1.06557e-17
1.06533e-17
1.07969e-17
1.08056e-17
1.08101e-17
1.08075e-17
1.09059e-17
1.09155e-17
1.09209e-17
1.09181e-17
1.10133e-17
1.10233e-17
1.10295e-17
1.10265e-17
1.10976e-17
1.11077e-17
1.11143e-17
1.11112e-17
1.1139e-17
1.11492e-17
1.11561e-17
1.11529e-17
1.11372e-17
1.11473e-17
1.11544e-17
1.11512e-17
1.10922e-17
1.11022e-17
1.11093e-17
1.11061e-17
1.10046e-17
1.10143e-17
1.10213e-17
1.10182e-17
1.0875e-17
1.08844e-17
1.08911e-17
1.08882e-17
1.07047e-17
1.07137e-17
1.072e-17
1.07173e-17
1.04952e-17
1.05036e-17
1.05096e-17
1.0507e-17
1.02483e-17
1.02562e-17
1.02616e-17
1.02593e-17
9.96631e-18
9.97366e-18
9.97854e-18
9.97644e-18
9.65192e-18
9.65868e-18
9.663e-18
9.66113e-18
9.30811e-18
9.31428e-18
9.31802e-18
9.31639e-18
8.9382e-18
8.94377e-18
8.94695e-18
8.94555e-18
8.54575e-18
8.55075e-18
8.55339e-18
8.5522e-18
8.15204e-18
8.1563e-18
8.1585e-18
8.15749e-18
7.74924e-18
7.7528e-18
7.75454e-18
7.75372e-18
7.33019e-18
7.33312e-18
7.33445e-18
7.33381e-18
6.89918e-18
6.90155e-18
6.90254e-18
6.90204e-18
6.46048e-18
6.46237e-18
6.46308e-18
6.4627e-18
6.01829e-18
6.01977e-18
6.02024e-18
6.01996e-18
5.57657e-18
5.57771e-18
5.57801e-18
5.5778e-18
5.13902e-18
5.13987e-18
5.14004e-18
5.13989e-18
4.70898e-18
4.7096e-18
4.70968e-18
4.70957e-18
4.28942e-18
4.28986e-18
4.28988e-18
4.2898e-18
3.8829e-18
3.8832e-18
3.88319e-18
3.88313e-18
3.49162e-18
3.4918e-18
3.49178e-18
3.49173e-18
3.11736e-18
3.11747e-18
3.11744e-18
3.1174e-18
2.76159e-18
2.76165e-18
2.76163e-18
2.76159e-18
2.42548e-18
2.42551e-18
2.42549e-18
2.42545e-18
2.10995e-18
2.10995e-18
2.10993e-18
2.1099e-18
1.81566e-18
1.81564e-18
1.81562e-18
1.8156e-18
1.54302e-18
1.543e-18
1.54299e-18
1.54297e-18
1.29237e-18
1.29236e-18
1.29235e-18
1.29233e-18
1.06393e-18
1.06392e-18
1.06391e-18
1.0639e-18
8.57822e-19
8.57811e-19
8.57805e-19
8.57795e-19
6.74111e-19
6.741e-19
6.74098e-19
6.74089e-19
5.12845e-19
5.12835e-19
5.12834e-19
5.12828e-19
3.74057e-19
3.74048e-19
3.74048e-19
3.74045e-19
2.5776e-19
2.57754e-19
2.57754e-19
2.57753e-19
1.63926e-19
1.63923e-19
1.63923e-19
1.63923e-19
9.2489e-20
9.24875e-20
9.24878e-20
9.24879e-20
4.34868e-20
4.34864e-20
4.34866e-20
4.34866e-20
1.48059e-20
1.48059e-20
1.48059e-20
1.48059e-20
2.5539e-21
2.5539e-21
2.5539e-21
2.5539e-21
4.83477e-18
4.79565e-18
4.8042e-18
4.85459e-18
3.20639e-18
3.1963e-18
3.20102e-18
3.21326e-18
3.7524e-18
3.76637e-18
3.76759e-18
3.74814e-18
4.41695e-18
4.42932e-18
4.42745e-18
4.41181e-18
5.18759e-18
5.19933e-18
5.19457e-18
5.1836e-18
6.11186e-18
6.11813e-18
6.10992e-18
6.10644e-18
7.23044e-18
7.23375e-18
7.21986e-18
7.2211e-18
8.61071e-18
8.60204e-18
8.5888e-18
8.60021e-18
1.00527e-17
1.00554e-17
1.00551e-17
1.00579e-17
1.00052e-17
1.00082e-17
1.00078e-17
1.00109e-17
1.02257e-17
1.0228e-17
1.02261e-17
1.0226e-17
1.04608e-17
1.04631e-17
1.04615e-17
1.04613e-17
1.06568e-17
1.06591e-17
1.06578e-17
1.06575e-17
1.08106e-17
1.0813e-17
1.08119e-17
1.08115e-17
1.09209e-17
1.09232e-17
1.09224e-17
1.09219e-17
1.10291e-17
1.10315e-17
1.10307e-17
1.10303e-17
1.11137e-17
1.11161e-17
1.11155e-17
1.11149e-17
1.11554e-17
1.11576e-17
1.11571e-17
1.11565e-17
1.11536e-17
1.11558e-17
1.11552e-17
1.11547e-17
1.11086e-17
1.11106e-17
1.111e-17
1.11095e-17
1.10206e-17
1.10225e-17
1.10219e-17
1.10214e-17
1.08906e-17
1.08923e-17
1.08917e-17
1.08912e-17
1.07196e-17
1.07211e-17
1.07206e-17
1.072e-17
1.05092e-17
1.05106e-17
1.051e-17
1.05095e-17
1.02614e-17
1.02626e-17
1.0262e-17
1.02615e-17
9.97845e-18
9.97944e-18
9.97889e-18
9.97841e-18
9.66301e-18
9.66383e-18
9.66329e-18
9.66282e-18
9.31812e-18
9.31879e-18
9.31826e-18
9.31781e-18
8.94712e-18
8.94765e-18
8.94715e-18
8.94671e-18
8.5536e-18
8.55401e-18
8.55355e-18
8.55313e-18
8.15869e-18
8.15908e-18
8.15859e-18
8.15824e-18
7.75477e-18
7.75508e-18
7.75462e-18
7.75429e-18
7.3347e-18
7.33496e-18
7.33453e-18
7.33422e-18
6.90277e-18
6.903e-18
6.90261e-18
6.90232e-18
6.46329e-18
6.46349e-18
6.46313e-18
6.46288e-18
6.02042e-18
6.02061e-18
6.02029e-18
6.02006e-18
5.57814e-18
5.57833e-18
5.57803e-18
5.57784e-18
5.14014e-18
5.14032e-18
5.14006e-18
5.13989e-18
4.70974e-18
4.70992e-18
4.70969e-18
4.70955e-18
4.2899e-18
4.29008e-18
4.28987e-18
4.28976e-18
3.88318e-18
3.88336e-18
3.88317e-18
3.88308e-18
3.49175e-18
3.49191e-18
3.49175e-18
3.49168e-18
3.1174e-18
3.11755e-18
3.1174e-18
3.11736e-18
2.76157e-18
2.76171e-18
2.76159e-18
2.76155e-18
2.42543e-18
2.42555e-18
2.42545e-18
2.42543e-18
2.10988e-18
2.10998e-18
2.10989e-18
2.10988e-18
1.81559e-18
1.81567e-18
1.8156e-18
1.81559e-18
1.54296e-18
1.54303e-18
1.54296e-18
1.54296e-18
1.29233e-18
1.29238e-18
1.29233e-18
1.29233e-18
1.0639e-18
1.06393e-18
1.0639e-18
1.0639e-18
8.578e-19
8.5782e-19
8.57797e-19
8.57799e-19
6.74094e-19
6.74106e-19
6.74091e-19
6.74095e-19
5.12832e-19
5.12839e-19
5.12829e-19
5.12832e-19
3.74048e-19
3.74053e-19
3.74045e-19
3.74047e-19
2.57754e-19
2.57757e-19
2.57753e-19
2.57753e-19
1.63923e-19
1.63924e-19
1.63923e-19
1.63923e-19
9.24879e-20
9.24884e-20
9.24879e-20
9.24876e-20
4.34866e-20
4.34867e-20
4.34866e-20
4.34865e-20
1.48059e-20
1.48059e-20
1.48059e-20
1.48059e-20
2.5539e-21
2.5539e-21
2.5539e-21
2.5539e-21
)
;

boundaryField
{
    topWall
    {
        type            nutkWallFunction;
        Cmu             0.09;
        kappa           0.41;
        E               9.8;
        value           uniform 0;
    }
    botWall
    {
        type            nutkWallFunction;
        Cmu             0.09;
        kappa           0.41;
        E               9.8;
        value           uniform 0;
    }
    inlet
    {
        type            cyclic;
    }
    outlet
    {
        type            cyclic;
    }
    fixWall
    {
        type            empty;
    }
}


// ************************************************************************* //
