/*--------------------------------*- C++ -*----------------------------------*\
  =========                 |
  \\      /  F ield         | OpenFOAM: The Open Source CFD Toolbox
   \\    /   O peration     | Website:  https://openfoam.org
    \\  /    A nd           | Version:  dev
     \\/     M anipulation  |

   OpenFOAM for Windows 20.09 (v1)
   Built by CFD Support, www.cfdsupport.com (based on Symscape).
\*---------------------------------------------------------------------------*/
FoamFile
{
    version     2.0;
    format      ascii;
    class       volScalarField;
    location    "2";
    object      omega;
}
// * * * * * * * * * * * * * * * * * * * * * * * * * * * * * * * * * * * * * //

dimensions      [0 0 -1 0 0 0 0];

internalField   nonuniform List<scalar> 
960
(
86943.4
86943.4
86943.4
86943.4
14997
14996.9
14996.9
14996.9
5105.99
5105.91
5105.93
5105.94
2400.68
2400.62
2400.63
2400.64
1354.34
1354.3
1354.31
1354.32
861.113
861.088
861.101
861.107
593.203
593.189
593.201
593.205
432.532
432.523
432.534
432.539
328.973
328.967
328.977
328.982
258.475
258.47
258.481
258.485
208.385
208.381
208.391
208.396
171.551
171.547
171.557
171.561
143.693
143.69
143.699
143.703
122.129
122.126
122.134
122.139
105.107
105.105
105.113
105.117
91.4418
91.44
91.4472
91.4513
80.3181
80.3164
80.3233
80.3272
71.1559
71.1541
71.1606
71.1644
63.5311
63.5293
63.5355
63.5391
57.1296
57.1278
57.1335
57.1369
51.7145
51.7126
51.718
51.7212
47.1046
47.1026
47.1075
47.1105
43.159
43.1569
43.1614
43.1643
39.7674
39.7651
39.7692
39.7719
36.8417
36.8394
36.8431
36.8456
34.3115
34.309
34.3123
34.3146
32.1194
32.1167
32.1196
32.1218
30.2184
30.2156
30.2181
30.22
28.5697
28.5666
28.5688
28.5705
27.1409
27.1376
27.1393
27.1409
25.84
25.8364
25.8379
25.8395
24.6793
24.6754
24.6767
24.6783
23.6687
23.6645
23.6656
23.6672
22.7914
22.7869
22.7878
22.7895
22.0332
22.0284
22.0291
22.0308
21.3821
21.377
21.3774
21.3792
20.8275
20.8221
20.8223
20.8242
20.3605
20.3548
20.3548
20.3568
19.9738
19.9678
19.9676
19.9696
19.6608
19.6545
19.6541
19.6562
19.4163
19.4097
19.409
19.4113
19.2357
19.2289
19.228
19.2303
19.1157
19.1086
19.1074
19.1099
19.0536
19.0462
19.0447
19.0473
19.0472
19.0396
19.0378
19.0406
18.9906
18.9829
18.9805
18.9836
18.9337
18.9259
18.9229
18.9263
18.932
18.9241
18.9205
18.9242
18.987
18.9791
18.9746
18.9787
19.1009
19.0929
19.0874
19.0919
19.2768
19.2687
19.2621
19.2671
19.5188
19.5107
19.5027
19.5081
19.832
19.8239
19.8143
19.8203
20.2229
20.2147
20.2033
20.2098
20.6989
20.6908
20.677
20.6841
21.2692
21.2611
21.2447
21.2522
21.9444
21.9364
21.9167
21.9245
22.7372
22.7294
22.706
22.7137
23.6628
23.6553
23.6274
23.6344
24.7392
24.7323
24.6992
24.7046
86943.4
86943.4
86943.4
86943.4
14997
14997
14996.9
14996.9
5105.94
5105.94
5105.91
5105.91
2400.64
2400.64
2400.62
2400.62
1354.32
1354.32
1354.3
1354.3
861.105
861.103
861.088
861.098
593.203
593.2
593.188
593.201
432.536
432.532
432.523
432.537
328.978
328.974
328.967
328.981
258.481
258.477
258.471
258.485
208.391
208.387
208.382
208.395
171.556
171.552
171.548
171.561
143.698
143.694
143.691
143.702
122.133
122.13
122.127
122.137
105.111
105.109
105.107
105.116
91.4454
91.4428
91.4416
91.4497
80.3217
80.3191
80.318
80.3255
71.1592
71.1567
71.1557
71.1627
63.5341
63.5318
63.5309
63.5374
57.1323
57.1301
57.1294
57.1352
51.7169
51.7148
51.7142
51.7195
47.1065
47.1045
47.1041
47.1089
43.1606
43.1587
43.1584
43.1626
39.7685
39.7668
39.7666
39.7703
36.8424
36.8408
36.8407
36.844
34.3118
34.3103
34.3103
34.3131
32.1192
32.1178
32.1179
32.1203
30.2177
30.2164
30.2165
30.2186
28.5685
28.5673
28.5675
28.5693
27.1391
27.138
27.1383
27.1398
25.8378
25.8367
25.8371
25.8384
24.6767
24.6757
24.676
24.6773
23.6656
23.6647
23.665
23.6663
22.7879
22.787
22.7874
22.7886
22.0294
22.0285
22.0289
22.0301
21.3778
21.377
21.3774
21.3785
20.8227
20.822
20.8224
20.8235
20.3554
20.3548
20.3552
20.3562
19.9682
19.9677
19.9681
19.9691
19.6549
19.6543
19.6548
19.6558
19.4099
19.4095
19.41
19.4109
19.229
19.2286
19.2291
19.2301
19.1086
19.1083
19.1088
19.1097
19.0461
19.0458
19.0463
19.0473
19.0394
19.0392
19.0397
19.0406
18.9825
18.9824
18.9828
18.9838
18.9254
18.9254
18.9257
18.9267
18.9235
18.9237
18.9239
18.9249
18.9783
18.9786
18.9787
18.9797
19.0919
19.0924
19.0923
19.0934
19.2675
19.2682
19.268
19.269
19.5092
19.5102
19.5098
19.5108
19.8222
19.8235
19.8228
19.8238
20.2127
20.2144
20.2134
20.2142
20.6884
20.6906
20.6891
20.6898
21.2582
21.2611
21.259
21.2595
21.9329
21.9366
21.9337
21.9339
22.7251
22.7299
22.7261
22.7255
23.6498
23.656
23.6512
23.6494
24.7249
24.7332
24.7273
24.7234
25.9884
25.9829
25.9435
25.9439
27.0073
27.0022
26.9671
26.9719
27.203
27.1969
27.1788
27.1983
26.869
26.8629
26.856
26.8776
26.2268
26.2209
26.2203
26.2386
25.4313
25.4253
25.4277
25.4412
24.5871
24.5806
24.5838
24.593
23.7622
23.7548
23.7573
23.7636
22.9981
22.9895
22.9905
22.9952
22.3183
22.3083
22.3073
22.3113
21.7339
21.7222
21.7192
21.7232
21.2483
21.2349
21.2299
21.2341
20.8601
20.8451
20.8382
20.8427
20.5656
20.5491
20.5405
20.5454
20.3601
20.3421
20.3322
20.3373
20.1614
20.1431
20.1319
20.1374
20.0084
19.9901
19.9782
19.9838
19.9341
19.9158
19.9035
19.9092
19.9373
19.9192
19.9065
19.9122
20.0181
20.0001
19.9873
19.993
20.1775
20.1597
20.1469
20.1525
20.4178
20.4002
20.3877
20.3931
20.7427
20.7253
20.713
20.7184
21.1568
21.1398
21.1279
21.133
21.6665
21.6498
21.6383
21.6433
22.2795
22.2631
22.2522
22.2569
23.0052
22.9891
22.9789
22.9833
23.855
23.8392
23.8296
23.8338
24.8422
24.8267
24.8179
24.8218
25.9831
25.9679
25.9598
25.9634
27.2379
27.2237
27.2163
27.2197
28.6537
28.6406
28.6342
28.6372
30.2918
30.2797
30.2742
30.2768
32.1842
32.1731
32.1686
32.1709
34.3697
34.3596
34.3559
34.3579
36.895
36.8859
36.883
36.8847
39.8174
39.8093
39.8072
39.8086
43.2076
43.2004
43.199
43.2003
47.1534
47.1472
47.1464
47.1475
51.7657
51.7604
51.7601
51.7611
57.1852
57.1808
57.181
57.1819
63.5937
63.5902
63.5907
63.5916
71.2285
71.2259
71.2266
71.2276
80.4045
80.4028
80.4036
80.4047
91.5465
91.5456
91.5464
91.5476
105.237
105.237
105.238
105.239
122.294
122.295
122.297
122.298
143.903
143.904
143.906
143.907
171.811
171.813
171.815
171.817
208.701
208.704
208.706
208.708
258.847
258.85
258.852
258.855
329.389
329.394
329.395
329.399
432.967
432.975
432.976
432.981
593.612
593.626
593.626
593.631
861.44
861.461
861.46
861.464
1354.54
1354.57
1354.57
1354.57
2400.77
2400.81
2400.8
2400.8
5106.02
5106.06
5106.05
5106.05
14997
14997.1
14997
14997
86943.4
86943.4
86943.4
86943.4
25.9722
25.9839
25.9767
25.9686
26.9949
27.0043
26.9977
26.9922
27.1993
27.1989
27.1959
27.2013
26.8671
26.8623
26.863
26.8712
26.2235
26.2172
26.2206
26.2278
25.4251
25.4188
25.4239
25.4288
24.5779
24.572
24.5778
24.5807
23.7501
23.7447
23.7504
23.7518
22.9833
22.9784
22.9836
22.9842
22.3011
22.2962
22.3008
22.3011
21.7143
21.7095
21.7134
21.7137
21.2264
21.2217
21.2249
21.2252
20.836
20.8314
20.8339
20.8346
20.5395
20.535
20.537
20.5378
20.3321
20.3278
20.3292
20.3302
20.1327
20.1283
20.1296
20.1305
19.9793
19.9751
19.9762
19.9772
19.9047
19.9007
19.9017
19.9027
19.9078
19.904
19.905
19.906
19.9886
19.985
19.9859
19.9869
20.1481
20.1447
20.1457
20.1467
20.3887
20.3856
20.3866
20.3876
20.7139
20.711
20.712
20.713
21.1285
21.1258
21.1269
21.128
21.6388
21.6363
21.6375
21.6385
22.2524
22.2502
22.2514
22.2525
22.9788
22.9769
22.9782
22.9793
23.8293
23.8276
23.829
23.8301
24.8175
24.816
24.8174
24.8186
25.9592
25.958
25.9593
25.9606
27.2157
27.2144
27.2161
27.2172
28.6333
28.6321
28.6338
28.6351
30.2732
30.2721
30.2739
30.2751
32.1675
32.1664
32.1682
32.1696
34.3547
34.3537
34.3556
34.3569
36.8819
36.8808
36.8827
36.8841
39.8062
39.8049
39.807
39.8084
43.1982
43.1967
43.1989
43.2003
47.1459
47.144
47.1464
47.1478
51.7598
51.7577
51.7602
51.7616
57.1811
57.1785
57.1813
57.1826
63.5912
63.5882
63.5912
63.5924
71.2276
71.2241
71.2274
71.2285
80.4051
80.4011
80.4047
80.4057
91.5485
91.544
91.5479
91.5487
105.24
105.235
105.24
105.24
122.299
122.293
122.299
122.299
143.908
143.902
143.908
143.908
171.817
171.811
171.817
171.817
208.708
208.701
208.708
208.708
258.854
258.848
258.855
258.854
329.397
329.391
329.399
329.397
432.977
432.971
432.98
432.977
593.627
593.619
593.631
593.628
861.46
861.45
861.464
861.462
1354.57
1354.55
1354.57
1354.57
2400.8
2400.78
2400.8
2400.8
5106.05
5106.03
5106.05
5106.06
14997
14997
14997
14997.1
86943.4
86943.4
86943.4
86943.4
)
;

boundaryField
{
    topWall
    {
        type            omegaWallFunction;
        beta1           0.075;
        blended         0;
        value           uniform 86943.4;
    }
    botWall
    {
        type            omegaWallFunction;
        beta1           0.075;
        blended         0;
        value           uniform 86943.4;
    }
    inlet
    {
        type            cyclic;
    }
    outlet
    {
        type            cyclic;
    }
    fixWall
    {
        type            empty;
    }
}


// ************************************************************************* //
