/*--------------------------------*- C++ -*----------------------------------*\
  =========                 |
  \\      /  F ield         | OpenFOAM: The Open Source CFD Toolbox
   \\    /   O peration     | Website:  https://openfoam.org
    \\  /    A nd           | Version:  dev
     \\/     M anipulation  |

   OpenFOAM for Windows 20.09 (v1)
   Built by CFD Support, www.cfdsupport.com (based on Symscape).
\*---------------------------------------------------------------------------*/
FoamFile
{
    version     2.0;
    format      ascii;
    class       volScalarField;
    location    "2";
    object      p;
}
// * * * * * * * * * * * * * * * * * * * * * * * * * * * * * * * * * * * * * //

dimensions      [1 -1 -2 0 0 0 0];

internalField   nonuniform List<scalar> 
960
(
0
-0.0647656
-0.127279
-0.18989
-0.0845029
-0.146675
-0.20904
-0.271674
-0.166261
-0.228425
-0.290789
-0.35342
-0.247991
-0.310173
-0.372539
-0.435177
-0.329706
-0.391921
-0.454289
-0.516938
-0.411422
-0.473674
-0.536039
-0.598687
-0.493139
-0.555422
-0.617789
-0.680437
-0.574857
-0.637168
-0.699539
-0.762186
-0.656577
-0.718917
-0.78129
-0.843935
-0.738296
-0.800662
-0.86304
-0.925684
-0.820017
-0.882408
-0.944786
-1.00743
-0.901736
-0.964154
-1.02653
-1.08917
-0.983459
-1.0459
-1.10826
-1.17087
-1.06518
-1.12764
-1.18998
-1.25257
-1.14631
-1.20918
-1.27045
-1.3328
-1.22887
-1.29096
-1.35286
-1.41577
-1.31083
-1.37271
-1.43461
-1.49752
-1.39256
-1.45446
-1.51638
-1.5793
-1.47429
-1.53622
-1.59813
-1.66105
-1.55602
-1.61796
-1.67988
-1.7428
-1.63775
-1.69971
-1.76163
-1.82455
-1.71948
-1.78145
-1.84338
-1.9063
-1.80121
-1.8632
-1.92513
-1.98805
-1.88294
-1.94494
-2.00688
-2.0698
-1.96467
-2.02669
-2.08863
-2.15155
-2.04641
-2.10843
-2.17038
-2.2333
-2.12814
-2.19017
-2.25212
-2.31504
-2.20988
-2.27191
-2.33387
-2.39681
-2.29161
-2.35364
-2.4156
-2.47856
-2.37334
-2.43538
-2.49736
-2.55918
-2.45502
-2.51605
-2.57807
-2.64121
-2.53758
-2.59926
-2.66093
-2.72296
-2.6193
-2.681
-2.7427
-2.80471
-2.70102
-2.76276
-2.82445
-2.88645
-2.78275
-2.84451
-2.9062
-2.9682
-2.86448
-2.92626
-2.98795
-3.04994
-2.9462
-3.00801
-3.0697
-3.13169
-3.02793
-3.08976
-3.15145
-3.21344
-3.10966
-3.17151
-3.2332
-3.29518
-3.19139
-3.25326
-3.31495
-3.37693
-3.27312
-3.33501
-3.3967
-3.45868
-3.35485
-3.41675
-3.47845
-3.54042
-3.43656
-3.4985
-3.5602
-3.62217
-3.51829
-3.58023
-3.64195
-3.70391
-3.60003
-3.66197
-3.7237
-3.78472
-3.68163
-3.74343
-3.80489
-3.86683
-3.76348
-3.82638
-3.88741
-3.94858
-3.84523
-3.90813
-3.96916
-4.03035
-3.92699
-3.9899
-4.0509
-4.11211
-4.00872
-4.07165
-4.13266
-4.19386
-4.09045
-4.1534
-4.21441
-4.2756
-4.17218
-4.23514
-4.29616
-4.35735
-4.25391
-4.3169
-4.37791
-4.4391
-4.33565
-4.39865
-4.45966
-4.52084
-4.41738
-4.4804
-4.54141
-4.60259
-4.49911
-4.56215
-4.62316
-4.68434
-4.5808
-4.64386
-4.70491
-4.76608
-4.66259
-4.72566
-4.78666
-4.84781
-4.74432
-4.80741
-4.86841
-4.92956
-4.8257
-4.88865
-4.94998
-5.01127
-0.253128
-0.315656
-0.375232
-0.440583
-0.334886
-0.397424
-0.457008
-0.522333
-0.416636
-0.479174
-0.538738
-0.604091
-0.498386
-0.560924
-0.620501
-0.68584
-0.580136
-0.642674
-0.70225
-0.767585
-0.661887
-0.724424
-0.783999
-0.84934
-0.743638
-0.806174
-0.865747
-0.931088
-0.82539
-0.887923
-0.947496
-1.01284
-0.907141
-0.969671
-1.02924
-1.09458
-0.988894
-1.05142
-1.11099
-1.17633
-1.07065
-1.13317
-1.19274
-1.25807
-1.1524
-1.21492
-1.27448
-1.33982
-1.23415
-1.29667
-1.35622
-1.42155
-1.31591
-1.37842
-1.43797
-1.50328
-1.39606
-1.45937
-1.51972
-1.58503
-1.47842
-1.54119
-1.60095
-1.66636
-1.56018
-1.62294
-1.6841
-1.7488
-1.64194
-1.70469
-1.76585
-1.83054
-1.72369
-1.78644
-1.8476
-1.91229
-1.80544
-1.86819
-1.92934
-1.99404
-1.8872
-1.94995
-2.01109
-2.07579
-1.96895
-2.0317
-2.09283
-2.15753
-2.05071
-2.11345
-2.17458
-2.23928
-2.13246
-2.1952
-2.25632
-2.32103
-2.21422
-2.27696
-2.33807
-2.40277
-2.29597
-2.35871
-2.41981
-2.48452
-2.37773
-2.44045
-2.50156
-2.56626
-2.45949
-2.52221
-2.5833
-2.648
-2.54124
-2.60394
-2.66505
-2.72974
-2.62183
-2.6846
-2.74679
-2.81018
-2.70423
-2.7665
-2.82838
-2.89241
-2.78599
-2.84826
-2.91147
-2.97415
-2.86775
-2.93002
-2.99322
-3.05589
-2.9495
-3.01178
-3.07497
-3.13763
-3.03127
-3.09354
-3.15671
-3.21937
-3.11302
-3.17529
-3.23847
-3.30111
-3.19478
-3.25705
-3.32022
-3.38284
-3.27653
-3.33881
-3.40196
-3.46458
-3.35829
-3.42057
-3.48371
-3.54632
-3.44005
-3.50232
-3.56545
-3.62805
-3.5218
-3.58408
-3.6472
-3.70979
-3.60356
-3.66584
-3.72895
-3.79152
-3.68532
-3.7476
-3.8107
-3.87326
-3.76705
-3.82935
-3.8924
-3.955
-3.84743
-3.91102
-3.97425
-4.03614
-3.92978
-3.99292
-4.05559
-4.11812
-4.01154
-4.07474
-4.1378
-4.19987
-4.09331
-4.15649
-4.21957
-4.28162
-4.17506
-4.23824
-4.30132
-4.36336
-4.25684
-4.31999
-4.38306
-4.44511
-4.33859
-4.40174
-4.46481
-4.52685
-4.42034
-4.4835
-4.54656
-4.6086
-4.50208
-4.56525
-4.6283
-4.69034
-4.58384
-4.647
-4.71004
-4.77208
-4.6656
-4.72875
-4.79178
-4.85382
-4.74735
-4.8105
-4.87353
-4.93557
-4.8291
-4.89225
-4.95527
-5.01731
-4.91085
-4.97401
-5.03696
-5.09901
-4.9926
-5.05576
-5.11876
-5.18082
-5.07429
-5.13741
-5.20034
-5.26244
-4.87031
-4.93296
-4.99501
-5.05683
-4.87858
-4.9412
-5.00339
-5.06545
-4.88676
-4.94937
-5.01157
-5.07362
-4.89493
-4.95755
-5.01974
-5.0818
-4.9031
-4.96572
-5.02792
-5.08997
-4.91128
-4.97389
-5.03609
-5.09814
-4.91945
-4.98207
-5.04427
-5.10632
-4.92763
-4.99024
-5.05244
-5.11449
-4.9358
-4.99841
-5.06062
-5.12267
-4.94398
-5.00659
-5.06879
-5.13084
-4.95215
-5.01476
-5.07697
-5.13901
-4.96033
-5.02293
-5.08514
-5.14719
-4.9685
-5.03111
-5.09332
-5.15536
-4.97668
-5.03928
-5.10149
-5.16354
-4.98485
-5.04745
-5.10967
-5.17171
-4.99303
-5.05563
-5.11784
-5.17988
-5.00121
-5.0638
-5.12602
-5.18806
-5.00938
-5.07197
-5.13419
-5.19624
-5.01756
-5.08015
-5.14237
-5.20441
-5.02574
-5.08832
-5.15054
-5.21259
-5.03392
-5.09649
-5.15872
-5.22077
-5.0421
-5.10467
-5.16689
-5.22894
-5.05028
-5.11284
-5.17507
-5.23712
-5.05845
-5.12102
-5.18324
-5.2453
-5.06663
-5.12919
-5.19142
-5.25347
-5.07481
-5.13737
-5.19959
-5.26165
-5.08299
-5.14554
-5.20777
-5.26983
-5.09117
-5.15372
-5.21594
-5.278
-5.09935
-5.16189
-5.22411
-5.28618
-5.10752
-5.17006
-5.23229
-5.29436
-5.1157
-5.17824
-5.24046
-5.30253
-5.12388
-5.18641
-5.24864
-5.31071
-5.13205
-5.19458
-5.25681
-5.31889
-5.14023
-5.20276
-5.26498
-5.32706
-5.14841
-5.21093
-5.27316
-5.33524
-5.15658
-5.21911
-5.28133
-5.34341
-5.16476
-5.22728
-5.28951
-5.35159
-5.17294
-5.23545
-5.29768
-5.35977
-5.18111
-5.24362
-5.30585
-5.36794
-5.18929
-5.2518
-5.31403
-5.37612
-5.19747
-5.25997
-5.3222
-5.38429
-5.20564
-5.26815
-5.33038
-5.39247
-5.21382
-5.27632
-5.33855
-5.40064
-5.22199
-5.28449
-5.34672
-5.40882
-5.23017
-5.29267
-5.3549
-5.41699
-5.23835
-5.30084
-5.36307
-5.42517
-5.24652
-5.30902
-5.37125
-5.43335
-5.2547
-5.31719
-5.37942
-5.44152
-5.26287
-5.32536
-5.3876
-5.4497
-5.27105
-5.33354
-5.39577
-5.45787
-5.27922
-5.34171
-5.40394
-5.46605
-5.2874
-5.34988
-5.41212
-5.47422
-5.29557
-5.35806
-5.42029
-5.4824
-5.30375
-5.36623
-5.42847
-5.49058
-5.31192
-5.37441
-5.43664
-5.49875
-5.3201
-5.38258
-5.44482
-5.50693
-5.32827
-5.39076
-5.45299
-5.5151
-5.33645
-5.39893
-5.46117
-5.52328
-5.34462
-5.40711
-5.46934
-5.53145
-5.3528
-5.41528
-5.47752
-5.53963
-5.11944
-5.18229
-5.24527
-5.30767
-5.12784
-5.19056
-5.25355
-5.3161
-5.13601
-5.19874
-5.26173
-5.32428
-5.14419
-5.20691
-5.2699
-5.33245
-5.15237
-5.21509
-5.27808
-5.34062
-5.16054
-5.22326
-5.28625
-5.3488
-5.16872
-5.23143
-5.29443
-5.35697
-5.1769
-5.23961
-5.30261
-5.36515
-5.18507
-5.24778
-5.31078
-5.37332
-5.19325
-5.25596
-5.31896
-5.38149
-5.20142
-5.26413
-5.32713
-5.38967
-5.2096
-5.27231
-5.33531
-5.39784
-5.21778
-5.28048
-5.34348
-5.40602
-5.22595
-5.28865
-5.35166
-5.41419
-5.23413
-5.29683
-5.35983
-5.42237
-5.2423
-5.305
-5.368
-5.43054
-5.25048
-5.31318
-5.37617
-5.43872
-5.25865
-5.32135
-5.38434
-5.44689
-5.26683
-5.32952
-5.39251
-5.45507
-5.275
-5.3377
-5.40068
-5.46325
-5.28318
-5.34587
-5.40884
-5.47142
-5.29135
-5.35404
-5.41701
-5.4796
-5.29953
-5.36222
-5.42518
-5.48778
-5.3077
-5.37039
-5.43335
-5.49595
-5.31588
-5.37857
-5.44152
-5.50413
-5.32405
-5.38674
-5.44968
-5.5123
-5.33223
-5.39491
-5.45785
-5.52048
-5.3404
-5.40309
-5.46602
-5.52866
-5.34858
-5.41126
-5.47419
-5.53683
-5.35676
-5.41943
-5.48236
-5.54501
-5.36493
-5.42761
-5.49053
-5.55319
-5.37311
-5.43578
-5.4987
-5.56136
-5.38128
-5.44396
-5.50687
-5.56954
-5.38946
-5.45213
-5.51504
-5.57771
-5.39764
-5.46031
-5.52321
-5.58589
-5.40582
-5.46848
-5.53139
-5.59406
-5.41399
-5.47665
-5.53956
-5.60224
-5.42217
-5.48483
-5.54773
-5.61041
-5.43035
-5.493
-5.5559
-5.61859
-5.43852
-5.50118
-5.56408
-5.62677
-5.4467
-5.50935
-5.57225
-5.63494
-5.45488
-5.51753
-5.58042
-5.64312
-5.46305
-5.5257
-5.5886
-5.65129
-5.47123
-5.53388
-5.59677
-5.65947
-5.47941
-5.54205
-5.60494
-5.66764
-5.48758
-5.55022
-5.61312
-5.67582
-5.49576
-5.5584
-5.62129
-5.684
-5.50393
-5.56658
-5.62946
-5.69217
-5.51211
-5.57475
-5.63764
-5.70034
-5.52029
-5.58293
-5.64581
-5.70852
-5.52846
-5.5911
-5.65399
-5.71669
-5.53664
-5.59928
-5.66216
-5.72487
-5.54482
-5.60745
-5.67033
-5.73304
-5.55299
-5.61563
-5.67851
-5.74122
-5.56117
-5.6238
-5.68668
-5.74939
-5.56934
-5.63198
-5.69486
-5.75757
-5.57752
-5.64015
-5.70303
-5.76574
-5.58569
-5.64833
-5.71121
-5.77392
-5.59387
-5.6565
-5.71938
-5.78209
-5.60205
-5.66468
-5.72756
-5.79027
)
;

boundaryField
{
    topWall
    {
        type            calculated;
        value           nonuniform List<scalar> 8(-5.35688 -5.41937 -5.4816 -5.54372 -5.60613 -5.66876 -5.73165 -5.79436);
    }
    botWall
    {
        type            calculated;
        value           nonuniform List<scalar> 8(0.0408774 -0.0238905 -0.0864039 -0.149015 -0.212253 -0.274781 -0.334357 -0.399708);
    }
    inlet
    {
        type            cyclic;
    }
    outlet
    {
        type            cyclic;
    }
    fixWall
    {
        type            empty;
    }
}


// ************************************************************************* //
