/*--------------------------------*- C++ -*----------------------------------*\
  =========                 |
  \\      /  F ield         | OpenFOAM: The Open Source CFD Toolbox
   \\    /   O peration     | Website:  https://openfoam.org
    \\  /    A nd           | Version:  dev
     \\/     M anipulation  |

   OpenFOAM for Windows 20.09 (v1)
   Built by CFD Support, www.cfdsupport.com (based on Symscape).
\*---------------------------------------------------------------------------*/
FoamFile
{
    version     2.0;
    format      ascii;
    class       volScalarField;
    location    "2";
    object      p_rgh;
}
// * * * * * * * * * * * * * * * * * * * * * * * * * * * * * * * * * * * * * //

dimensions      [1 -1 -2 0 0 0 0];

internalField   nonuniform List<scalar> 
960
(
0.0408774
-0.0238905
-0.0864039
-0.149015
0.038122
-0.0240502
-0.0864146
-0.149049
0.0381142
-0.0240497
-0.0864143
-0.149045
0.0381335
-0.0240478
-0.0864142
-0.149052
0.0381691
-0.0240459
-0.0864141
-0.149062
0.0382028
-0.0240493
-0.0864142
-0.149062
0.0382356
-0.0240468
-0.0864144
-0.149061
0.0382681
-0.0240435
-0.0864145
-0.149061
0.0382984
-0.024042
-0.0864147
-0.14906
0.0383289
-0.0240373
-0.0864148
-0.14906
0.0383579
-0.0240334
-0.0864117
-0.149051
0.0383888
-0.0240287
-0.0864042
-0.149048
0.0384156
-0.0240242
-0.0863843
-0.148995
0.0384424
-0.0240194
-0.0863563
-0.148944
0.0390557
-0.0238034
-0.0850942
-0.147444
0.0382603
-0.023839
-0.0857449
-0.148653
0.0380475
-0.0238387
-0.085738
-0.148649
0.0380682
-0.0238388
-0.0857526
-0.148679
0.0380889
-0.0238403
-0.0857506
-0.148672
0.038109
-0.0238361
-0.0857516
-0.148672
0.0381284
-0.0238315
-0.0857513
-0.148671
0.0381472
-0.0238268
-0.0857546
-0.148672
0.0381653
-0.0238219
-0.0857556
-0.148672
0.0381834
-0.0238164
-0.0857564
-0.148672
0.0382011
-0.0238103
-0.085757
-0.148671
0.0382152
-0.023804
-0.0857572
-0.14867
0.0382306
-0.0237921
-0.0857483
-0.14866
0.0382454
-0.023784
-0.0857498
-0.148685
0.0382609
-0.0237637
-0.08573
-0.148685
0.0383079
-0.0237476
-0.0857362
-0.147584
0.0383774
-0.0226397
-0.0846701
-0.147859
0.03755
-0.024133
-0.0858067
-0.147837
0.0375742
-0.0241293
-0.085823
-0.147831
0.0376052
-0.0241375
-0.0858241
-0.147827
0.0376242
-0.0241364
-0.0858255
-0.147822
0.0376476
-0.0241361
-0.0858263
-0.147819
0.0376704
-0.0241361
-0.085827
-0.147817
0.037693
-0.0241356
-0.0858276
-0.147813
0.0377148
-0.0241347
-0.0858279
-0.147809
0.0377387
-0.0241339
-0.085828
-0.147805
0.0377591
-0.0241327
-0.0858258
-0.147801
0.0377788
-0.0241302
-0.0858207
-0.147796
0.0378113
-0.0241299
-0.0858258
-0.147792
0.0378337
-0.0241008
-0.0858286
-0.147788
0.0378483
-0.0241339
-0.0858361
-0.146885
0.0379897
-0.0238527
-0.0852938
-0.147228
0.0378957
-0.0250055
-0.0860316
-0.147203
0.0378933
-0.0250052
-0.0860308
-0.147222
0.0378809
-0.0250261
-0.0860207
-0.147234
0.0379007
-0.0250257
-0.08603
-0.147233
0.0379229
-0.0250257
-0.0860318
-0.147228
0.0379449
-0.0250192
-0.0860323
-0.147227
0.0379589
-0.025024
-0.0860342
-0.147225
0.0379784
-0.0250234
-0.0860348
-0.147221
0.0379986
-0.0250224
-0.0860372
-0.147218
0.0380178
-0.0250206
-0.086038
-0.147214
0.0380821
-0.0249787
-0.0860399
-0.14721
0.0380352
-0.025036
-0.0860383
-0.14718
0.038048
-0.0250406
-0.0860503
-0.147182
-0.00495387
-0.0844783
-0.107096
-0.150851
-0.212253
-0.274781
-0.334357
-0.399708
-0.212261
-0.274799
-0.334383
-0.399708
-0.212261
-0.274799
-0.334363
-0.399716
-0.212261
-0.274799
-0.334376
-0.399715
-0.212261
-0.274799
-0.334375
-0.39971
-0.212262
-0.274799
-0.334374
-0.399715
-0.212263
-0.274799
-0.334372
-0.399713
-0.212265
-0.274799
-0.334371
-0.399711
-0.212266
-0.274796
-0.334369
-0.399709
-0.212269
-0.274797
-0.334366
-0.399706
-0.212272
-0.274798
-0.334363
-0.399699
-0.212275
-0.274798
-0.334359
-0.399692
-0.212278
-0.274798
-0.334347
-0.399674
-0.212281
-0.274799
-0.33435
-0.399655
-0.210664
-0.273984
-0.334334
-0.399647
-0.211286
-0.274052
-0.333802
-0.39923
-0.211307
-0.274067
-0.335229
-0.39992
-0.211311
-0.274068
-0.335225
-0.399917
-0.211315
-0.274069
-0.335221
-0.399913
-0.211319
-0.27407
-0.335219
-0.399913
-0.211324
-0.274071
-0.335215
-0.399913
-0.211329
-0.274077
-0.33521
-0.399909
-0.211334
-0.274078
-0.335205
-0.399906
-0.211338
-0.274079
-0.335199
-0.399902
-0.211343
-0.274081
-0.335194
-0.399898
-0.211348
-0.274082
-0.335189
-0.399891
-0.211354
-0.274079
-0.335182
-0.399889
-0.21136
-0.27408
-0.335176
-0.399877
-0.211366
-0.274066
-0.33517
-0.399861
-0.210173
-0.272949
-0.335132
-0.398517
-0.210838
-0.273097
-0.334973
-0.399012
-0.210861
-0.273133
-0.336344
-0.399022
-0.210873
-0.273145
-0.336343
-0.399014
-0.210878
-0.273153
-0.336342
-0.399007
-0.210892
-0.27316
-0.33634
-0.398993
-0.210898
-0.273167
-0.336343
-0.398981
-0.210902
-0.273175
-0.336341
-0.398968
-0.21091
-0.273183
-0.336339
-0.398954
-0.210916
-0.273191
-0.336337
-0.39894
-0.210922
-0.273199
-0.336329
-0.398927
-0.210928
-0.273206
-0.336328
-0.398913
-0.210934
-0.273214
-0.336327
-0.398899
-0.210942
-0.273221
-0.336325
-0.398885
-0.210926
-0.273226
-0.33628
-0.398871
-0.209612
-0.273136
-0.336375
-0.398293
-0.210187
-0.273299
-0.335942
-0.398512
-0.210161
-0.27336
-0.33643
-0.39849
-0.210186
-0.273365
-0.336441
-0.398495
-0.210189
-0.273366
-0.336444
-0.398489
-0.210211
-0.273368
-0.336438
-0.398482
-0.210212
-0.273369
-0.336436
-0.398477
-0.210212
-0.27337
-0.336431
-0.398471
-0.210206
-0.273371
-0.336425
-0.398464
-0.210216
-0.273369
-0.33642
-0.398457
-0.210218
-0.273372
-0.336407
-0.398447
-0.210221
-0.273375
-0.336404
-0.398447
-0.210223
-0.273378
-0.336397
-0.398439
-0.210225
-0.273382
-0.336331
-0.398381
-0.210228
-0.273389
-0.336381
-0.398446
-0.218787
-0.285363
-0.354739
-0.412294
-4.36379
-4.4295
-4.47467
-4.50899
-4.37581
-4.43844
-4.50063
-4.56268
-4.37582
-4.43844
-4.50063
-4.56268
-4.37582
-4.43844
-4.50063
-4.56268
-4.37582
-4.43843
-4.50063
-4.56268
-4.37582
-4.43843
-4.50063
-4.56268
-4.37582
-4.43843
-4.50063
-4.56268
-4.37582
-4.43843
-4.50063
-4.56268
-4.37582
-4.43843
-4.50063
-4.56268
-4.37582
-4.43842
-4.50063
-4.56268
-4.37582
-4.43842
-4.50063
-4.56268
-4.37582
-4.43842
-4.50063
-4.56268
-4.37582
-4.43842
-4.50063
-4.56267
-4.37582
-4.43842
-4.50063
-4.56267
-4.37582
-4.43841
-4.50063
-4.56267
-4.37582
-4.43841
-4.50063
-4.56267
-4.37582
-4.43841
-4.50063
-4.56267
-4.37582
-4.43841
-4.50063
-4.56267
-4.37583
-4.43841
-4.50063
-4.56268
-4.37583
-4.43841
-4.50063
-4.56268
-4.37583
-4.43841
-4.50063
-4.56268
-4.37583
-4.43841
-4.50063
-4.56268
-4.37584
-4.43841
-4.50063
-4.56268
-4.37584
-4.43841
-4.50063
-4.56269
-4.37584
-4.43841
-4.50063
-4.56269
-4.37585
-4.43841
-4.50063
-4.56269
-4.37585
-4.43841
-4.50063
-4.56269
-4.37585
-4.4384
-4.50063
-4.56269
-4.37586
-4.4384
-4.50063
-4.56269
-4.37586
-4.4384
-4.50063
-4.56269
-4.37586
-4.4384
-4.50062
-4.5627
-4.37587
-4.4384
-4.50062
-4.5627
-4.37587
-4.4384
-4.50062
-4.5627
-4.37587
-4.4384
-4.50062
-4.5627
-4.37587
-4.43839
-4.50062
-4.5627
-4.37587
-4.43839
-4.50062
-4.5627
-4.37587
-4.43839
-4.50062
-4.5627
-4.37587
-4.43839
-4.50062
-4.5627
-4.37587
-4.43839
-4.50062
-4.5627
-4.37588
-4.43839
-4.50062
-4.5627
-4.37588
-4.43838
-4.50061
-4.56271
-4.37588
-4.43838
-4.50061
-4.56271
-4.37588
-4.43838
-4.50061
-4.56271
-4.37588
-4.43838
-4.50061
-4.56271
-4.37588
-4.43838
-4.50061
-4.56271
-4.37588
-4.43838
-4.50061
-4.56271
-4.37588
-4.43838
-4.50061
-4.56271
-4.37588
-4.43838
-4.50061
-4.56271
-4.37588
-4.43838
-4.50061
-4.56271
-4.37588
-4.43837
-4.50061
-4.56271
-4.37588
-4.43837
-4.50061
-4.56271
-4.37588
-4.43837
-4.50061
-4.56271
-4.37588
-4.43837
-4.50061
-4.56271
-4.37588
-4.43837
-4.5006
-4.56271
-4.37588
-4.43837
-4.5006
-4.56271
-4.37588
-4.43837
-4.5006
-4.56271
-4.37588
-4.43837
-4.5006
-4.56271
-4.37588
-4.43837
-4.5006
-4.56271
-4.37588
-4.43837
-4.5006
-4.56272
-4.37588
-4.43837
-4.5006
-4.56272
-4.59895
-4.67531
-4.7371
-4.78085
-4.62506
-4.68779
-4.75079
-4.81334
-4.62508
-4.6878
-4.75079
-4.81334
-4.62508
-4.6878
-4.75079
-4.81334
-4.62508
-4.6878
-4.75079
-4.81334
-4.62508
-4.6878
-4.75079
-4.81334
-4.62508
-4.6878
-4.75079
-4.81333
-4.62508
-4.6878
-4.75079
-4.81333
-4.62508
-4.6878
-4.75079
-4.81333
-4.62509
-4.6878
-4.75079
-4.81333
-4.62509
-4.68779
-4.75079
-4.81333
-4.62509
-4.68779
-4.75079
-4.81333
-4.62509
-4.68779
-4.75079
-4.81333
-4.62509
-4.68779
-4.75079
-4.81333
-4.62509
-4.68779
-4.75079
-4.81333
-4.62509
-4.68779
-4.75079
-4.81333
-4.62509
-4.68779
-4.75078
-4.81333
-4.62509
-4.68779
-4.75078
-4.81333
-4.62509
-4.68779
-4.75077
-4.81333
-4.62509
-4.68778
-4.75076
-4.81333
-4.62509
-4.68778
-4.75076
-4.81334
-4.62509
-4.68778
-4.75075
-4.81334
-4.62509
-4.68778
-4.75074
-4.81334
-4.62509
-4.68778
-4.75074
-4.81334
-4.62509
-4.68778
-4.75073
-4.81334
-4.62509
-4.68778
-4.75072
-4.81334
-4.62509
-4.68778
-4.75071
-4.81334
-4.62509
-4.68777
-4.75071
-4.81335
-4.62509
-4.68777
-4.7507
-4.81335
-4.62509
-4.68777
-4.75069
-4.81335
-4.62509
-4.68777
-4.75069
-4.81335
-4.6251
-4.68777
-4.75069
-4.81335
-4.6251
-4.68777
-4.75068
-4.81335
-4.6251
-4.68777
-4.75068
-4.81335
-4.6251
-4.68777
-4.75068
-4.81335
-4.6251
-4.68777
-4.75067
-4.81335
-4.62511
-4.68777
-4.75067
-4.81335
-4.62511
-4.68777
-4.75067
-4.81335
-4.62511
-4.68777
-4.75067
-4.81335
-4.62511
-4.68777
-4.75066
-4.81335
-4.62511
-4.68776
-4.75066
-4.81335
-4.62511
-4.68776
-4.75066
-4.81336
-4.62512
-4.68776
-4.75066
-4.81336
-4.62512
-4.68776
-4.75066
-4.81336
-4.62512
-4.68776
-4.75065
-4.81336
-4.62512
-4.68776
-4.75065
-4.81336
-4.62512
-4.68776
-4.75065
-4.81336
-4.62512
-4.68776
-4.75065
-4.81336
-4.62512
-4.68776
-4.75065
-4.81336
-4.62513
-4.68776
-4.75065
-4.81336
-4.62513
-4.68776
-4.75065
-4.81336
-4.62513
-4.68776
-4.75065
-4.81336
-4.62513
-4.68776
-4.75065
-4.81336
-4.62513
-4.68776
-4.75065
-4.81336
-4.62513
-4.68776
-4.75065
-4.81336
-4.62513
-4.68776
-4.75065
-4.81336
-4.62513
-4.68776
-4.75065
-4.81336
-4.62513
-4.68776
-4.75065
-4.81336
-4.62513
-4.68776
-4.75065
-4.81336
-4.62513
-4.68776
-4.75065
-4.81336
)
;

boundaryField
{
    topWall
    {
        type            zeroGradient;
    }
    botWall
    {
        type            zeroGradient;
    }
    inlet
    {
        type            fixedJump;
        patchType       cyclic;
        jump            uniform -0.5;
        value           nonuniform List<scalar> 
120
(
-4.34458
-4.32232
0.0413762
0.0698011
0.0698271
0.0698214
0.0697855
0.069776
0.0697606
0.0697473
0.0697372
0.0697228
0.0697091
0.069696
0.069699
0.069703
0.0697387
0.0697776
0.0694814
0.0694633
0.0694399
0.0694231
0.0694061
0.0693873
0.0693696
0.0693514
0.0693332
0.0693156
0.0692991
0.0692799
0.0692638
0.0696828
0.0698954
0.0691997
0.0691843
0.0691708
0.0691621
0.0691514
0.0691407
0.0691298
0.069119
0.0691079
0.0690978
0.0690879
0.0690755
0.0690636
0.0695152
0.0697045
0.069394
0.0693708
0.0693486
0.0693294
0.0693115
0.0692949
0.0692785
0.0692612
0.0692438
0.0692297
0.0692092
0.0691989
0.0692068
0.0705848
-4.34458
-4.34458
-4.34458
-4.34458
-4.34458
-4.34457
-4.34457
-4.34457
-4.34457
-4.34457
-4.34457
-4.34457
-4.34457
-4.34457
-4.34457
-4.34458
-4.34458
-4.34458
-4.34458
-4.34459
-4.34459
-4.34459
-4.34459
-4.34459
-4.3446
-4.3446
-4.3446
-4.3446
-4.34461
-4.34461
-4.34461
-4.34461
-4.34461
-4.34461
-4.34461
-4.34461
-4.34461
-4.34461
-4.34462
-4.34462
-4.34462
-4.34462
-4.34462
-4.34462
-4.34462
-4.34462
-4.34462
-4.34462
-4.34462
-4.34462
-4.34462
-4.34462
-4.34462
-4.34462
-4.34462
-4.34462
-4.34462
-4.34462
)
;
    }
    outlet
    {
        type            fixedJump;
        patchType       cyclic;
        value           nonuniform List<scalar> 
120
(
-4.84458
-4.82232
-0.458624
-0.430199
-0.430173
-0.430179
-0.430215
-0.430224
-0.430239
-0.430253
-0.430263
-0.430277
-0.430291
-0.430304
-0.430301
-0.430297
-0.430261
-0.430222
-0.430519
-0.430537
-0.43056
-0.430577
-0.430594
-0.430613
-0.43063
-0.430649
-0.430667
-0.430684
-0.430701
-0.43072
-0.430736
-0.430317
-0.430105
-0.4308
-0.430816
-0.430829
-0.430838
-0.430849
-0.430859
-0.43087
-0.430881
-0.430892
-0.430902
-0.430912
-0.430925
-0.430936
-0.430485
-0.430295
-0.430606
-0.430629
-0.430651
-0.430671
-0.430688
-0.430705
-0.430722
-0.430739
-0.430756
-0.43077
-0.430791
-0.430801
-0.430793
-0.429415
-4.84458
-4.84458
-4.84458
-4.84458
-4.84458
-4.84457
-4.84457
-4.84457
-4.84457
-4.84457
-4.84457
-4.84457
-4.84457
-4.84457
-4.84457
-4.84458
-4.84458
-4.84458
-4.84458
-4.84459
-4.84459
-4.84459
-4.84459
-4.84459
-4.8446
-4.8446
-4.8446
-4.8446
-4.84461
-4.84461
-4.84461
-4.84461
-4.84461
-4.84461
-4.84461
-4.84461
-4.84461
-4.84461
-4.84462
-4.84462
-4.84462
-4.84462
-4.84462
-4.84462
-4.84462
-4.84462
-4.84462
-4.84462
-4.84462
-4.84462
-4.84462
-4.84462
-4.84462
-4.84462
-4.84462
-4.84462
-4.84462
-4.84462
)
;
    }
    fixWall
    {
        type            empty;
    }
}


// ************************************************************************* //
