/*--------------------------------*- C++ -*----------------------------------*\
  =========                 |
  \\      /  F ield         | OpenFOAM: The Open Source CFD Toolbox
   \\    /   O peration     | Website:  https://openfoam.org
    \\  /    A nd           | Version:  dev
     \\/     M anipulation  |

   OpenFOAM for Windows 20.09 (v1)
   Built by CFD Support, www.cfdsupport.com (based on Symscape).
\*---------------------------------------------------------------------------*/
FoamFile
{
    version     2.0;
    format      ascii;
    class       surfaceScalarField;
    location    "2";
    object      phi;
}
// * * * * * * * * * * * * * * * * * * * * * * * * * * * * * * * * * * * * * //

dimensions      [0 3 -1 0 0 0 0];

internalField   nonuniform List<scalar> 
1792
(
1.2894e-09
4.5782e-12
1.30105e-09
-1.16488e-11
1.30054e-09
5.30305e-13
3.58612e-12
1.29695e-09
3.52788e-09
2.07029e-12
3.54607e-09
-2.98333e-11
3.54342e-09
3.18893e-12
1.55372e-11
3.53146e-09
5.43396e-09
-2.10181e-12
5.46022e-09
-5.61012e-11
5.45472e-09
8.6952e-12
3.5021e-11
5.43523e-09
7.04555e-09
-7.98125e-12
7.07707e-09
-8.76274e-11
7.06949e-09
1.62863e-11
6.0511e-11
7.044e-09
8.39667e-09
-1.51078e-11
8.43115e-09
-1.22116e-10
8.42168e-09
2.57602e-11
8.97484e-11
8.39244e-09
9.51897e-09
-2.33473e-11
9.55507e-09
-1.58219e-10
9.54419e-09
3.66395e-11
1.21558e-10
9.51238e-09
1.04426e-08
-3.24097e-11
1.04793e-08
-1.94961e-10
1.04675e-08
4.84795e-11
1.54847e-10
1.04342e-08
1.11953e-08
-4.21462e-11
1.12322e-08
-2.31869e-10
1.12197e-08
6.09318e-11
1.88911e-10
1.11857e-08
1.18026e-08
-5.24783e-11
1.18394e-08
-2.68676e-10
1.18268e-08
7.35816e-11
2.23221e-10
1.17925e-08
1.22879e-08
-6.32883e-11
1.23244e-08
-3.05194e-10
1.23118e-08
8.61823e-11
2.57325e-10
1.22777e-08
1.26713e-08
-7.47647e-11
1.27077e-08
-3.41587e-10
1.26957e-08
9.82069e-11
2.90829e-10
1.26622e-08
1.29715e-08
-8.66411e-11
1.3007e-08
-3.77079e-10
1.2996e-08
1.0922e-10
3.227e-10
1.29641e-08
1.32034e-08
-9.95336e-11
1.32388e-08
-4.12432e-10
1.32293e-08
1.18706e-10
3.53098e-10
1.31989e-08
1.33809e-08
-1.12662e-10
1.34152e-08
-4.46756e-10
1.34078e-08
1.26121e-10
3.81447e-10
1.33794e-08
1.35131e-08
-1.2529e-10
1.35512e-08
-4.84138e-10
1.35443e-08
1.3332e-10
4.08732e-10
1.35168e-08
1.36122e-08
-1.37311e-10
1.36457e-08
-5.18041e-10
1.36464e-08
1.32099e-10
4.36631e-10
1.36185e-08
1.3684e-08
-1.49407e-10
1.37184e-08
-5.52378e-10
1.37223e-08
1.28147e-10
4.63115e-10
1.36958e-08
1.37371e-08
-1.60792e-10
1.37711e-08
-5.86305e-10
1.37776e-08
1.21659e-10
4.88114e-10
1.37526e-08
1.37754e-08
-1.72582e-10
1.38098e-08
-6.20695e-10
1.38182e-08
1.13346e-10
5.12718e-10
1.37936e-08
1.3803e-08
-1.84368e-10
1.38376e-08
-6.55281e-10
1.3847e-08
1.03934e-10
5.37036e-10
1.38227e-08
1.38224e-08
-1.96547e-10
1.38573e-08
-6.90187e-10
1.38674e-08
9.37687e-11
5.61264e-10
1.38432e-08
1.38358e-08
-2.08781e-10
1.38709e-08
-7.25281e-10
1.38814e-08
8.33047e-11
5.85207e-10
1.38575e-08
1.38452e-08
-2.2123e-10
1.38804e-08
-7.60465e-10
1.3891e-08
7.26759e-11
6.08956e-10
1.38673e-08
1.38514e-08
-2.33343e-10
1.38866e-08
-7.95669e-10
1.38974e-08
6.19205e-11
6.32465e-10
1.38738e-08
1.38558e-08
-2.45216e-10
1.38907e-08
-8.30602e-10
1.39015e-08
5.11522e-11
6.55417e-10
1.38785e-08
1.38585e-08
-2.56422e-10
1.38927e-08
-8.64798e-10
1.39037e-08
4.022e-11
6.77572e-10
1.38815e-08
1.3861e-08
-2.67004e-10
1.38938e-08
-8.97548e-10
1.39047e-08
2.92956e-11
6.98248e-10
1.3884e-08
1.38624e-08
-2.75794e-10
1.38931e-08
-9.28272e-10
1.39042e-08
1.82202e-11
7.1719e-10
1.38852e-08
1.38645e-08
-2.83631e-10
1.38915e-08
-9.55304e-10
1.39025e-08
7.29225e-12
7.33209e-10
1.38865e-08
1.38655e-08
-2.85982e-10
1.3888e-08
-9.7663e-10
1.38989e-08
-3.33124e-12
7.44718e-10
1.38863e-08
1.38679e-08
-2.87626e-10
1.38836e-08
-9.91118e-10
1.38909e-08
-9.99625e-12
7.46861e-10
1.38882e-08
1.38667e-08
-2.82992e-10
1.38816e-08
-1.00604e-09
1.38903e-08
-1.86928e-11
7.48901e-10
1.38883e-08
1.3868e-08
-2.7668e-10
1.38809e-08
-1.019e-09
1.38897e-08
-2.74149e-11
7.48906e-10
1.38897e-08
1.38686e-08
-2.68397e-10
1.38805e-08
-1.03092e-09
1.38899e-08
-3.68065e-11
7.47818e-10
1.3891e-08
1.38705e-08
-2.59403e-10
1.38817e-08
-1.0422e-09
1.38913e-08
-4.63969e-11
7.45858e-10
1.38933e-08
1.38724e-08
-2.49099e-10
1.38837e-08
-1.0535e-09
1.38937e-08
-5.643e-11
7.43335e-10
1.38962e-08
1.38761e-08
-2.38246e-10
1.38875e-08
-1.06494e-09
1.38978e-08
-6.66629e-11
7.403e-10
1.39008e-08
1.38815e-08
-2.26762e-10
1.38931e-08
-1.07653e-09
1.39036e-08
-7.72306e-11
7.37005e-10
1.39069e-08
1.38899e-08
-2.14912e-10
1.39015e-08
-1.08816e-09
1.39123e-08
-8.80742e-11
7.33377e-10
1.3916e-08
1.39021e-08
-2.02632e-10
1.39136e-08
-1.09964e-09
1.39247e-08
-9.91438e-11
7.29347e-10
1.39287e-08
1.39201e-08
-1.90145e-10
1.39309e-08
-1.11044e-09
1.39423e-08
-1.10525e-10
7.2455e-10
1.39471e-08
1.3946e-08
-1.77629e-10
1.39553e-08
-1.11969e-09
1.39669e-08
-1.22204e-10
7.18754e-10
1.39727e-08
1.39823e-08
-1.64915e-10
1.39893e-08
-1.12673e-09
1.4001e-08
-1.33916e-10
7.10987e-10
1.40088e-08
1.40329e-08
-1.52276e-10
1.40363e-08
-1.13023e-09
1.40476e-08
-1.45219e-10
7.0051e-10
1.40581e-08
1.41024e-08
-1.39613e-10
1.41004e-08
-1.12715e-09
1.41102e-08
-1.54734e-10
6.83727e-10
1.41258e-08
1.42005e-08
-1.33176e-10
1.41842e-08
-1.10962e-09
1.41966e-08
-1.66832e-10
6.65625e-10
1.42141e-08
1.43193e-08
-1.2276e-10
1.43023e-08
-1.09262e-09
1.43112e-08
-1.75737e-10
6.43293e-10
1.43335e-08
1.44779e-08
-1.11801e-10
1.44578e-08
-1.07253e-09
1.44665e-08
-1.84386e-10
6.18484e-10
1.44913e-08
1.46837e-08
-9.98957e-11
1.46614e-08
-1.05023e-09
1.46706e-08
-1.93547e-10
5.92231e-10
1.46968e-08
1.49486e-08
-8.77756e-11
1.4925e-08
-1.02657e-09
1.49348e-08
-2.0337e-10
5.65021e-10
1.4962e-08
1.52859e-08
-7.52663e-11
1.52614e-08
-1.00214e-09
1.52722e-08
-2.14148e-10
5.37494e-10
1.52998e-08
1.57111e-08
-6.26719e-11
1.56863e-08
-9.77292e-10
1.56978e-08
-2.257e-10
5.09541e-10
1.57258e-08
1.62419e-08
-5.01357e-11
1.62175e-08
-9.52892e-10
1.62293e-08
-2.37542e-10
4.81281e-10
1.62576e-08
1.68977e-08
-3.76314e-11
1.6874e-08
-9.29222e-10
1.68864e-08
-2.49978e-10
4.53669e-10
1.69141e-08
1.77004e-08
-2.49075e-11
1.76775e-08
-9.06331e-10
1.76912e-08
-2.63673e-10
4.26884e-10
1.7718e-08
1.86732e-08
-1.17496e-11
1.86514e-08
-8.84608e-10
1.8667e-08
-2.79179e-10
4.00896e-10
1.8693e-08
1.98423e-08
2.87277e-12
1.98215e-08
-8.63825e-10
1.98396e-08
-2.97244e-10
3.75806e-10
1.98647e-08
2.12342e-08
1.87736e-11
2.12144e-08
-8.44025e-10
2.12365e-08
-3.19311e-10
3.50794e-10
2.12616e-08
2.28776e-08
3.83977e-11
2.2858e-08
-8.24399e-10
2.28851e-08
-3.46495e-10
3.23879e-10
2.29121e-08
2.48111e-08
5.51904e-11
2.4789e-08
-8.02855e-10
2.48162e-08
-3.74321e-10
2.48443e-08
2.97666e-10
1.29202e-09
4.90426e-12
1.28733e-09
4.69658e-12
1.30297e-09
-1.56163e-11
7.50183e-12
3.52063e-09
1.57275e-11
3.51605e-09
9.27423e-12
3.54359e-09
-4.31634e-11
2.56729e-11
5.4214e-09
2.95558e-11
5.42015e-09
1.0527e-11
5.45144e-09
-7.44707e-11
4.72858e-11
7.02917e-09
4.43775e-11
7.03086e-09
8.8468e-12
7.06426e-09
-1.07889e-10
7.18491e-11
8.37706e-09
5.97632e-11
8.381e-09
4.91151e-12
8.41564e-09
-1.42536e-10
9.79276e-11
9.49681e-09
7.53343e-11
9.50226e-09
-5.30503e-13
9.53749e-09
-1.7777e-10
1.24682e-10
1.04185e-08
9.10497e-11
1.04247e-08
-6.71814e-12
1.04603e-08
-2.13418e-10
1.51485e-10
1.11699e-08
1.06779e-10
1.11764e-08
-1.32095e-11
1.12122e-08
-2.49175e-10
1.78145e-10
1.17768e-08
1.22472e-10
1.17828e-08
-1.91684e-11
1.18185e-08
-2.8489e-10
2.04327e-10
1.22621e-08
1.38053e-10
1.22677e-08
-2.47557e-11
1.23028e-08
-3.20016e-10
2.30104e-10
1.26465e-08
1.53769e-10
1.26508e-08
-2.9044e-11
1.26848e-08
-3.54061e-10
2.55088e-10
1.29483e-08
1.69529e-10
1.2951e-08
-3.17335e-11
1.29837e-08
-3.86772e-10
2.79237e-10
1.31827e-08
1.8566e-10
1.31831e-08
-3.20451e-11
1.32134e-08
-4.17162e-10
3.02181e-10
1.33636e-08
2.01545e-10
1.33619e-08
-3.04008e-11
1.33896e-08
-4.44898e-10
3.24069e-10
1.34991e-08
2.20909e-10
1.34996e-08
-2.9472e-11
1.35203e-08
-4.65279e-10
3.44539e-10
1.36064e-08
2.33911e-10
1.36021e-08
-2.45282e-11
1.36156e-08
-4.79288e-10
3.59299e-10
1.36838e-08
2.45933e-10
1.3679e-08
-1.97744e-11
1.36889e-08
-4.89111e-10
3.76232e-10
1.37407e-08
2.57818e-10
1.37347e-08
-1.37456e-11
1.37426e-08
-4.97075e-10
3.9309e-10
1.37812e-08
2.7017e-10
1.37737e-08
-6.27173e-12
1.37801e-08
-5.0345e-10
4.09543e-10
1.38104e-08
2.82438e-10
1.38022e-08
1.9203e-12
1.38077e-08
-5.08982e-10
4.26095e-10
1.38306e-08
2.95002e-10
1.38218e-08
1.0803e-11
1.38265e-08
-5.13674e-10
4.42375e-10
1.3845e-08
3.07469e-10
1.38361e-08
1.96814e-11
1.38403e-08
-5.17808e-10
4.59027e-10
1.38548e-08
3.20007e-10
1.38456e-08
2.88737e-11
1.38494e-08
-5.21686e-10
4.75706e-10
1.38615e-08
3.32317e-10
1.38525e-08
3.78964e-11
1.38564e-08
-5.2555e-10
4.92823e-10
1.38661e-08
3.4475e-10
1.38568e-08
4.72508e-11
1.38609e-08
-5.29724e-10
5.09862e-10
1.38693e-08
3.57012e-10
1.386e-08
5.64856e-11
1.38649e-08
-5.34576e-10
5.27434e-10
1.38716e-08
3.6943e-10
1.38617e-08
6.63897e-11
1.38673e-08
-5.40168e-10
5.4433e-10
1.38734e-08
3.81213e-10
1.38636e-08
7.62125e-11
1.387e-08
-5.46589e-10
5.60807e-10
1.38752e-08
3.92429e-10
1.38646e-08
8.68713e-11
1.38716e-08
-5.53588e-10
5.75709e-10
1.38762e-08
4.048e-10
1.38694e-08
9.33297e-11
1.38704e-08
-5.53174e-10
5.84135e-10
1.38767e-08
4.18434e-10
1.38698e-08
9.99273e-11
1.38718e-08
-5.53627e-10
5.90968e-10
1.38774e-08
4.29295e-10
1.38732e-08
1.04125e-10
1.38718e-08
-5.52237e-10
5.91475e-10
1.38781e-08
4.40801e-10
1.38731e-08
1.09208e-10
1.38736e-08
-5.52769e-10
5.90787e-10
1.38791e-08
4.52672e-10
1.38738e-08
1.14474e-10
1.38765e-08
-5.55381e-10
5.9034e-10
1.38804e-08
4.6552e-10
1.38745e-08
1.20368e-10
1.38789e-08
-5.59794e-10
5.89814e-10
1.38828e-08
4.78922e-10
1.38769e-08
1.26345e-10
1.38826e-08
-5.65537e-10
5.8971e-10
1.38867e-08
4.93027e-10
1.38804e-08
1.32643e-10
1.3887e-08
-5.72167e-10
5.89772e-10
1.38927e-08
5.07249e-10
1.38863e-08
1.39058e-10
1.38935e-08
-5.79353e-10
5.90282e-10
1.39017e-08
5.21554e-10
1.3895e-08
1.45688e-10
1.39024e-08
-5.8674e-10
5.90978e-10
1.39145e-08
5.35777e-10
1.39079e-08
1.5228e-10
1.39152e-08
-5.94059e-10
5.91775e-10
1.39331e-08
5.49744e-10
1.39263e-08
1.59122e-10
1.39335e-08
-6.01244e-10
5.92636e-10
1.39591e-08
5.63324e-10
1.39522e-08
1.66064e-10
1.39591e-08
-6.08122e-10
5.93204e-10
1.39962e-08
5.75862e-10
1.3989e-08
1.73284e-10
1.39948e-08
-6.13927e-10
5.93047e-10
1.40472e-08
5.86761e-10
1.40393e-08
1.81177e-10
1.40436e-08
-6.1819e-10
5.9118e-10
1.41196e-08
5.95061e-10
1.4108e-08
1.92966e-10
1.41102e-08
-6.1972e-10
5.87062e-10
1.42111e-08
5.99605e-10
1.41995e-08
2.04376e-10
1.41976e-08
-6.17634e-10
5.79237e-10
1.43331e-08
6.00064e-10
1.43206e-08
2.16903e-10
1.43185e-08
-6.15566e-10
5.68033e-10
1.44921e-08
5.99275e-10
1.44795e-08
2.29451e-10
1.44766e-08
-6.12707e-10
5.55823e-10
1.46988e-08
5.97261e-10
1.46862e-08
2.42128e-10
1.46827e-08
-6.09205e-10
5.42864e-10
1.4964e-08
5.95217e-10
1.49514e-08
2.54728e-10
1.49476e-08
-6.05332e-10
5.29699e-10
1.53019e-08
5.931e-10
1.52892e-08
2.674e-10
1.52852e-08
-6.01286e-10
5.16493e-10
1.57271e-08
5.9177e-10
1.57145e-08
2.8003e-10
1.57106e-08
-5.97354e-10
5.03367e-10
1.62579e-08
5.91444e-10
1.62455e-08
2.92418e-10
1.62417e-08
-5.93491e-10
4.90673e-10
1.69136e-08
5.91873e-10
1.69012e-08
3.04907e-10
1.68978e-08
-5.9007e-10
4.78285e-10
1.77163e-08
5.93595e-10
1.77045e-08
3.16737e-10
1.77013e-08
-5.86902e-10
4.66513e-10
1.86892e-08
5.9735e-10
1.86771e-08
3.28858e-10
1.86749e-08
-5.84662e-10
4.55085e-10
1.98583e-08
6.038e-10
1.98466e-08
3.40518e-10
1.9846e-08
-5.84086e-10
4.44216e-10
2.12512e-08
6.14203e-10
2.12382e-08
3.5347e-10
2.1239e-08
-5.84847e-10
4.33066e-10
2.28963e-08
6.29939e-10
2.28815e-08
3.68357e-10
2.28863e-08
-5.89657e-10
4.22112e-10
2.48239e-08
6.49316e-10
2.4807e-08
3.82934e-10
2.48128e-08
-5.95077e-10
4.07193e-10
2.86215e-08
5.87957e-11
2.85875e-08
-7.6928e-10
2.85943e-08
-3.80952e-10
2.64663e-10
2.86279e-08
4.77465e-08
-9.9546e-11
4.75907e-08
-6.13492e-10
4.72908e-08
-8.11616e-11
2.02637e-10
4.73528e-08
6.42784e-08
-1.91405e-10
6.41386e-08
-4.73758e-10
6.39393e-08
1.18067e-10
1.08984e-10
6.4033e-08
7.82929e-08
-2.46673e-10
7.81755e-08
-3.56282e-10
7.8052e-08
2.41544e-10
1.32616e-11
7.81477e-08
9.00718e-08
-2.70124e-10
8.99784e-08
-2.62853e-10
8.99079e-08
3.11936e-10
-7.9868e-11
9.00011e-08
9.98887e-08
-2.86456e-10
9.98128e-08
-1.87007e-10
9.97729e-08
3.51761e-10
-1.59847e-10
9.98529e-08
1.07987e-07
-2.93685e-10
1.07932e-07
-1.31353e-10
1.0791e-07
3.73522e-10
-2.2122e-10
1.07971e-07
1.14609e-07
-2.98926e-10
1.14566e-07
-8.79839e-11
1.14555e-07
3.83979e-10
-2.6619e-10
1.146e-07
1.19966e-07
-3.04334e-10
1.19938e-07
-5.96995e-11
1.19933e-07
3.89135e-10
-2.91682e-10
1.19958e-07
1.2426e-07
-3.12355e-10
1.24243e-07
-4.26369e-11
1.24243e-07
3.88569e-10
-3.01822e-10
1.24254e-07
1.27668e-07
-3.20696e-10
1.27662e-07
-3.68499e-11
1.27667e-07
3.83649e-10
-2.98223e-10
1.27664e-07
1.30342e-07
-3.21662e-10
1.3034e-07
-3.5062e-11
1.30357e-07
3.66114e-10
-2.8498e-10
1.30344e-07
1.32424e-07
-3.15065e-10
1.32422e-07
-3.292e-11
1.32446e-07
3.41903e-10
-2.65658e-10
1.32427e-07
1.34021e-07
-2.9945e-10
1.34018e-07
-3.0276e-11
1.34051e-07
3.09037e-10
-2.41228e-10
1.34027e-07
1.35234e-07
-2.78608e-10
1.35232e-07
-3.21378e-11
1.3527e-07
2.75988e-10
-2.14569e-10
1.35243e-07
1.36147e-07
-2.46667e-10
1.36142e-07
-2.9942e-11
1.36186e-07
2.3346e-10
-1.80346e-10
1.36156e-07
1.36827e-07
-2.14028e-10
1.36818e-07
-2.16226e-11
1.36866e-07
1.85979e-10
-1.50017e-10
1.36836e-07
1.37326e-07
-1.78606e-10
1.37315e-07
-1.0366e-11
1.37366e-07
1.35246e-10
-1.17851e-10
1.37333e-07
1.37689e-07
-1.40937e-10
1.37675e-07
3.60804e-12
1.37728e-07
8.29606e-11
-8.56897e-11
1.37695e-07
1.37949e-07
-1.01035e-10
1.37933e-07
1.94775e-11
1.37987e-07
2.94622e-11
-5.23985e-11
1.37954e-07
1.38134e-07
-5.90138e-11
1.38116e-07
3.72423e-11
1.3817e-07
-2.44449e-11
-1.9502e-11
1.38137e-07
1.38263e-07
-1.59767e-11
1.38244e-07
5.62498e-11
1.38297e-07
-7.78619e-11
1.36111e-11
1.38264e-07
1.38351e-07
2.76319e-11
1.38332e-07
7.60965e-11
1.38384e-07
-1.3063e-10
4.56983e-11
1.38352e-07
1.38411e-07
7.07414e-11
1.38391e-07
9.64352e-11
1.38442e-07
-1.81322e-10
7.62664e-11
1.38411e-07
1.38451e-07
1.12662e-10
1.38431e-07
1.16552e-10
1.3848e-07
-2.30136e-10
1.04948e-10
1.38451e-07
1.38476e-07
1.52523e-10
1.38456e-07
1.36696e-10
1.38501e-07
-2.74969e-10
1.28526e-10
1.38477e-07
1.38492e-07
1.89177e-10
1.38473e-07
1.55612e-10
1.38514e-07
-3.16027e-10
1.48793e-10
1.38494e-07
1.38501e-07
2.22452e-10
1.38482e-07
1.74896e-10
1.38517e-07
-3.5038e-10
1.58787e-10
1.38507e-07
1.38507e-07
2.50008e-10
1.3849e-07
1.91917e-10
1.38517e-07
-3.77551e-10
1.66761e-10
1.3851e-07
1.38509e-07
2.77249e-10
1.38489e-07
2.11394e-10
1.38506e-07
-3.94966e-10
1.64981e-10
1.3851e-07
1.38509e-07
2.94742e-10
1.38492e-07
2.28854e-10
1.38497e-07
-3.9746e-10
1.54832e-10
1.38506e-07
1.38504e-07
3.06882e-10
1.38485e-07
2.47895e-10
1.3848e-07
-3.92529e-10
1.37561e-10
1.38497e-07
1.38496e-07
3.104e-10
1.38485e-07
2.58396e-10
1.38473e-07
-3.79962e-10
1.19534e-10
1.38491e-07
1.38475e-07
3.08711e-10
1.38471e-07
2.6261e-10
1.38454e-07
-3.63066e-10
9.74675e-11
1.38476e-07
1.38453e-07
3.01671e-10
1.38457e-07
2.57832e-10
1.38437e-07
-3.4226e-10
7.58885e-11
1.38458e-07
1.38418e-07
2.94359e-10
1.38426e-07
2.49837e-10
1.38403e-07
-3.18906e-10
5.11535e-11
1.38428e-07
1.38372e-07
2.86854e-10
1.38385e-07
2.36987e-10
1.3836e-07
-2.94066e-10
2.63302e-11
1.38385e-07
1.38306e-07
2.80923e-10
1.3832e-07
2.22442e-10
1.38294e-07
-2.67602e-10
4.3638e-13
1.3832e-07
1.38209e-07
2.79054e-10
1.38225e-07
2.0647e-10
1.382e-07
-2.41907e-10
-2.5565e-11
1.38226e-07
1.38074e-07
2.81459e-10
1.38091e-07
1.89622e-10
1.38064e-07
-2.15156e-10
-5.04189e-11
1.38089e-07
1.37877e-07
2.89395e-10
1.37893e-07
1.73858e-10
1.37868e-07
-1.90578e-10
-7.4567e-11
1.37892e-07
1.37601e-07
2.96048e-10
1.37617e-07
1.57628e-10
1.37592e-07
-1.65402e-10
-9.57751e-11
1.37613e-07
1.37211e-07
3.04609e-10
1.37225e-07
1.43364e-10
1.37203e-07
-1.43219e-10
-1.14616e-10
1.37222e-07
1.36674e-07
3.0562e-10
1.36689e-07
1.28373e-10
1.36667e-07
-1.20631e-10
-1.28259e-10
1.3668e-07
1.35937e-07
3.07863e-10
1.3595e-07
1.14431e-10
1.35931e-07
-1.00861e-10
-1.38152e-10
1.3594e-07
1.34941e-07
2.98671e-10
1.34959e-07
9.66218e-11
1.34938e-07
-7.97286e-11
-1.35973e-10
1.34937e-07
1.33607e-07
2.90546e-10
1.33619e-07
8.44274e-11
1.33605e-07
-6.5652e-11
-1.34397e-10
1.33603e-07
1.31845e-07
2.74327e-10
1.3186e-07
6.97227e-11
1.31846e-07
-5.14191e-11
-1.26919e-10
1.31838e-07
1.29541e-07
2.55386e-10
1.29551e-07
5.93253e-11
1.29542e-07
-4.17813e-11
-1.22396e-10
1.29537e-07
1.26556e-07
2.28922e-10
1.26567e-07
4.84434e-11
1.26559e-07
-3.40442e-11
-1.11101e-10
1.26548e-07
1.22742e-07
1.97913e-10
1.22752e-07
3.86971e-11
1.22746e-07
-2.78088e-11
-9.63808e-11
1.22731e-07
1.17911e-07
1.64032e-10
1.17923e-07
2.69419e-11
1.17918e-07
-2.33706e-11
-7.6155e-11
1.17898e-07
1.11862e-07
1.28715e-10
1.11872e-07
1.67703e-11
1.11864e-07
-1.5414e-11
-5.59184e-11
1.11844e-07
1.04358e-07
9.5982e-11
1.04369e-07
5.92358e-12
1.04364e-07
-1.07611e-11
-3.43474e-11
1.04343e-07
9.51467e-08
6.73861e-11
9.5154e-08
-1.35112e-12
9.51499e-08
-6.58737e-12
-1.74489e-11
9.51329e-08
8.39463e-08
4.46116e-11
8.39497e-08
-4.71919e-12
8.3948e-08
-4.85143e-12
-5.68475e-12
8.39362e-08
7.04571e-08
2.61777e-11
7.04579e-08
-5.48658e-12
7.04565e-08
-3.36761e-12
1.12088e-12
7.04496e-08
5.4356e-08
1.21983e-11
5.43555e-08
-4.87941e-12
5.43548e-08
-2.669e-12
4.22737e-12
5.43516e-08
3.53058e-08
3.01782e-12
3.53039e-08
-2.8894e-12
3.53028e-08
-1.50044e-12
3.19713e-12
3.53037e-08
1.29577e-08
1.29548e-08
1.29533e-08
1.29565e-08
2.86129e-08
6.64572e-10
2.85963e-08
3.96937e-10
2.86034e-08
-6.00909e-10
3.84718e-10
4.76382e-08
3.79163e-10
4.77054e-08
3.29675e-10
4.75591e-08
-4.54708e-10
3.55716e-10
6.42366e-08
1.7555e-10
6.42616e-08
3.04647e-10
6.41623e-08
-3.55385e-10
3.31544e-10
7.82839e-08
3.93301e-11
7.82922e-08
2.96374e-10
7.82207e-08
-2.83798e-10
3.14613e-10
9.00886e-08
-4.81739e-11
9.00842e-08
3.00761e-10
9.00397e-08
-2.39264e-10
3.05988e-10
9.99063e-08
-1.0164e-10
9.99011e-08
3.06035e-10
9.98668e-08
-2.04974e-10
3.00498e-10
1.08004e-07
-1.34815e-10
1.08004e-07
3.06194e-10
1.07981e-07
-1.81589e-10
3.01266e-10
1.14618e-07
-1.52612e-10
1.14625e-07
2.9915e-10
1.14608e-07
-1.63814e-10
3.04703e-10
1.19972e-07
-1.66053e-10
1.19988e-07
2.82383e-10
1.19969e-07
-1.44488e-10
3.13073e-10
1.24258e-07
-1.70102e-10
1.24282e-07
2.57791e-10
1.24264e-07
-1.25749e-10
3.24764e-10
1.27665e-07
-1.70995e-10
1.27694e-07
2.28319e-10
1.27673e-07
-1.05127e-10
3.38552e-10
1.30333e-07
-1.5969e-10
1.30365e-07
1.9581e-10
1.30351e-07
-9.09864e-11
3.49307e-10
1.32412e-07
-1.45246e-10
1.32447e-07
1.61306e-10
1.32437e-07
-8.06677e-11
3.55336e-10
1.34003e-07
-1.21124e-10
1.34037e-07
1.27024e-10
1.34036e-07
-8.01072e-11
3.55109e-10
1.35217e-07
-9.69545e-11
1.35252e-07
9.26689e-11
1.35255e-07
-8.50584e-11
3.49844e-10
1.36122e-07
-6.53527e-11
1.36151e-07
6.33346e-11
1.36164e-07
-1.03625e-10
3.33255e-10
1.36798e-07
-2.79429e-11
1.3682e-07
4.12375e-11
1.36835e-07
-1.1876e-10
3.09232e-10
1.37286e-07
1.89908e-11
1.37299e-07
2.88548e-11
1.37323e-07
-1.43181e-10
2.70947e-10
1.37646e-07
6.7829e-11
1.37654e-07
2.13817e-11
1.37681e-07
-1.70564e-10
2.25361e-10
1.37902e-07
1.19941e-10
1.37906e-07
1.65789e-11
1.37938e-07
-2.02532e-10
1.74377e-10
1.38085e-07
1.71822e-10
1.38088e-07
1.3287e-11
1.38122e-07
-2.36251e-10
1.20662e-10
1.38212e-07
2.23654e-10
1.38215e-07
1.06525e-11
1.3825e-07
-2.71737e-10
6.52122e-11
1.38301e-07
2.7446e-10
1.38303e-07
9.22437e-12
1.38339e-07
-3.07671e-10
9.06174e-12
1.38363e-07
3.2238e-10
1.38364e-07
9.0654e-12
1.38398e-07
-3.42606e-10
-4.68878e-11
1.38405e-07
3.68392e-10
1.38404e-07
1.04701e-11
1.38438e-07
-3.76573e-10
-1.01949e-10
1.38439e-07
4.06726e-10
1.38434e-07
1.54378e-11
1.38463e-07
-4.05113e-10
-1.55068e-10
1.3846e-07
4.4139e-10
1.38452e-07
2.30194e-11
1.38478e-07
-4.30841e-10
-2.05889e-10
1.38486e-07
4.616e-10
1.38472e-07
3.747e-11
1.38487e-07
-4.45909e-10
-2.53532e-10
1.38493e-07
4.7796e-10
1.38477e-07
5.31024e-11
1.3849e-07
-4.58961e-10
-2.97886e-10
1.3851e-07
4.77185e-10
1.38489e-07
7.33312e-11
1.38492e-07
-4.61979e-10
-3.38143e-10
1.38516e-07
4.66142e-10
1.38492e-07
9.76528e-11
1.38489e-07
-4.61752e-10
-3.73735e-10
1.3852e-07
4.43585e-10
1.38494e-07
1.23202e-10
1.38485e-07
-4.52922e-10
-4.04343e-10
1.38519e-07
4.15536e-10
1.38492e-07
1.50219e-10
1.38476e-07
-4.3764e-10
-4.27185e-10
1.38511e-07
3.80522e-10
1.38485e-07
1.76346e-10
1.38462e-07
-4.14592e-10
-4.39036e-10
1.38497e-07
3.42115e-10
1.38471e-07
2.01684e-10
1.38443e-07
-3.86678e-10
-4.41572e-10
1.38471e-07
2.98868e-10
1.38447e-07
2.25449e-10
1.38417e-07
-3.56187e-10
-4.36132e-10
1.3843e-07
2.53347e-10
1.38408e-07
2.46988e-10
1.38377e-07
-3.24664e-10
-4.23511e-10
1.38367e-07
2.05818e-10
1.38348e-07
2.65888e-10
1.38318e-07
-2.943e-10
-4.05448e-10
1.38274e-07
1.57793e-10
1.3826e-07
2.80003e-10
1.38232e-07
-2.6668e-10
-3.81057e-10
1.38136e-07
1.10598e-10
1.38128e-07
2.87939e-10
1.38106e-07
-2.45191e-10
-3.50756e-10
1.37938e-07
6.47236e-11
1.37937e-07
2.89428e-10
1.3792e-07
-2.28343e-10
-3.15814e-10
1.37656e-07
2.19944e-11
1.37657e-07
2.88408e-10
1.37642e-07
-2.1393e-10
-2.80862e-10
1.37262e-07
-1.81039e-11
1.37269e-07
2.8206e-10
1.37256e-07
-2.01024e-10
-2.44942e-10
1.36716e-07
-5.37536e-11
1.36723e-07
2.75094e-10
1.36707e-07
-1.85391e-10
-2.1291e-10
1.35967e-07
-8.20853e-11
1.35977e-07
2.62428e-10
1.35965e-07
-1.7565e-10
-1.83014e-10
1.34949e-07
-9.6681e-11
1.34959e-07
2.53358e-10
1.34954e-07
-1.71759e-10
-1.64591e-10
1.33607e-07
-9.99988e-11
1.33615e-07
2.45037e-10
1.33614e-07
-1.70907e-10
-1.4915e-10
1.31835e-07
-9.66594e-11
1.31844e-07
2.35555e-10
1.31842e-07
-1.68761e-10
-1.35934e-10
1.29532e-07
-9.14304e-11
1.2954e-07
2.27927e-10
1.29532e-07
-1.61145e-10
-1.2594e-10
1.2654e-07
-8.30882e-11
1.26557e-07
2.10408e-10
1.26543e-07
-1.47183e-10
-1.1238e-10
1.22721e-07
-7.37028e-11
1.22743e-07
1.88477e-10
1.22724e-07
-1.28173e-10
-9.90117e-11
1.17886e-07
-6.12428e-11
1.17912e-07
1.6156e-10
1.17892e-07
-1.07558e-10
-8.41741e-11
1.11834e-07
-5.15805e-11
1.11862e-07
1.3357e-10
1.11841e-07
-8.62293e-11
-6.98587e-11
1.04331e-07
-3.94065e-11
1.04359e-07
1.04847e-10
1.0434e-07
-6.66677e-11
-5.55025e-11
9.51228e-08
-2.92034e-11
9.51495e-08
7.81006e-11
9.51316e-08
-4.87817e-11
-4.20379e-11
8.39264e-08
-1.93375e-11
8.39506e-08
5.39001e-11
8.39357e-08
-3.39375e-11
-2.9901e-11
7.04415e-08
-1.11908e-11
7.04616e-08
3.37418e-11
7.04491e-08
-2.14492e-11
-1.94636e-11
5.43444e-08
-3.87896e-12
5.43602e-08
1.78769e-11
5.43506e-08
-1.17846e-11
-1.10082e-11
3.52998e-08
1.35168e-13
3.53114e-08
6.18361e-12
3.53037e-08
-4.08095e-12
-3.98314e-12
1.29567e-08
1.29628e-08
1.29587e-08
)
;

boundaryField
{
    topWall
    {
        type            calculated;
        value           uniform 0;
    }
    botWall
    {
        type            calculated;
        value           uniform 0;
    }
    inlet
    {
        type            cyclic;
        value           nonuniform List<scalar> 
120
(
-4.75882e-08
-2.86255e-08
-2.48278e-08
-2.28972e-08
-2.12501e-08
-1.98569e-08
-1.86863e-08
-1.77131e-08
-1.69102e-08
-1.62544e-08
-1.57237e-08
-1.52984e-08
-1.49607e-08
-1.46956e-08
-1.44889e-08
-1.43297e-08
-1.42063e-08
-1.41145e-08
-1.40455e-08
-1.3995e-08
-1.39585e-08
-1.39326e-08
-1.39144e-08
-1.39017e-08
-1.38929e-08
-1.3887e-08
-1.38827e-08
-1.38795e-08
-1.38769e-08
-1.38743e-08
-1.38713e-08
-1.38657e-08
-1.38624e-08
-1.38567e-08
-1.38536e-08
-1.38504e-08
-1.38473e-08
-1.38439e-08
-1.38393e-08
-1.38328e-08
-1.38236e-08
-1.38102e-08
-1.37912e-08
-1.37637e-08
-1.37258e-08
-1.36719e-08
-1.36001e-08
-1.35005e-08
-1.33677e-08
-1.31905e-08
-1.29596e-08
-1.26598e-08
-1.22771e-08
-1.17923e-08
-1.11855e-08
-1.04335e-08
-9.51074e-09
-8.38956e-09
-7.0397e-09
-5.42983e-09
-3.52543e-09
-1.29547e-09
-6.41865e-08
-7.82376e-08
-9.00483e-08
-9.98723e-08
-1.0798e-07
-1.14604e-07
-1.19961e-07
-1.24252e-07
-1.2766e-07
-1.3034e-07
-1.32431e-07
-1.34037e-07
-1.35256e-07
-1.36177e-07
-1.3686e-07
-1.37361e-07
-1.37727e-07
-1.37989e-07
-1.38176e-07
-1.38306e-07
-1.38395e-07
-1.38454e-07
-1.38493e-07
-1.38516e-07
-1.38529e-07
-1.38535e-07
-1.38535e-07
-1.38533e-07
-1.38525e-07
-1.38516e-07
-1.38499e-07
-1.38474e-07
-1.38446e-07
-1.38411e-07
-1.38364e-07
-1.383e-07
-1.38207e-07
-1.38076e-07
-1.37885e-07
-1.37607e-07
-1.3722e-07
-1.36675e-07
-1.35936e-07
-1.34932e-07
-1.33599e-07
-1.31829e-07
-1.29522e-07
-1.2653e-07
-1.22711e-07
-1.17877e-07
-1.11827e-07
-1.04325e-07
-9.51182e-08
-8.39236e-08
-7.04388e-08
-5.43422e-08
-3.52967e-08
-1.29548e-08
)
;
    }
    outlet
    {
        type            cyclic;
        value           nonuniform List<scalar> 
120
(
4.75882e-08
2.86255e-08
2.48278e-08
2.28972e-08
2.12501e-08
1.98569e-08
1.86863e-08
1.77131e-08
1.69102e-08
1.62544e-08
1.57237e-08
1.52984e-08
1.49607e-08
1.46956e-08
1.44889e-08
1.43297e-08
1.42063e-08
1.41145e-08
1.40455e-08
1.3995e-08
1.39585e-08
1.39326e-08
1.39144e-08
1.39017e-08
1.38929e-08
1.3887e-08
1.38827e-08
1.38795e-08
1.38769e-08
1.38743e-08
1.38713e-08
1.38657e-08
1.38624e-08
1.38567e-08
1.38536e-08
1.38504e-08
1.38473e-08
1.38439e-08
1.38393e-08
1.38328e-08
1.38236e-08
1.38102e-08
1.37912e-08
1.37637e-08
1.37258e-08
1.36719e-08
1.36001e-08
1.35005e-08
1.33677e-08
1.31905e-08
1.29596e-08
1.26598e-08
1.22771e-08
1.17923e-08
1.11855e-08
1.04335e-08
9.51074e-09
8.38956e-09
7.0397e-09
5.42983e-09
3.52543e-09
1.29547e-09
6.41865e-08
7.82376e-08
9.00483e-08
9.98723e-08
1.0798e-07
1.14604e-07
1.19961e-07
1.24252e-07
1.2766e-07
1.3034e-07
1.32431e-07
1.34037e-07
1.35256e-07
1.36177e-07
1.3686e-07
1.37361e-07
1.37727e-07
1.37989e-07
1.38176e-07
1.38306e-07
1.38395e-07
1.38454e-07
1.38493e-07
1.38516e-07
1.38529e-07
1.38535e-07
1.38535e-07
1.38533e-07
1.38525e-07
1.38516e-07
1.38499e-07
1.38474e-07
1.38446e-07
1.38411e-07
1.38364e-07
1.383e-07
1.38207e-07
1.38076e-07
1.37885e-07
1.37607e-07
1.3722e-07
1.36675e-07
1.35936e-07
1.34932e-07
1.33599e-07
1.31829e-07
1.29522e-07
1.2653e-07
1.22711e-07
1.17877e-07
1.11827e-07
1.04325e-07
9.51182e-08
8.39236e-08
7.04388e-08
5.43422e-08
3.52967e-08
1.29548e-08
)
;
    }
    fixWall
    {
        type            empty;
        value           nonuniform List<scalar> 0();
    }
}


// ************************************************************************* //
