/*--------------------------------*- C++ -*----------------------------------*\
  =========                 |
  \\      /  F ield         | OpenFOAM: The Open Source CFD Toolbox
   \\    /   O peration     | Website:  https://openfoam.org
    \\  /    A nd           | Version:  dev
     \\/     M anipulation  |

   OpenFOAM for Windows 20.09 (v1)
   Built by CFD Support, www.cfdsupport.com (based on Symscape).
\*---------------------------------------------------------------------------*/
FoamFile
{
    version     2.0;
    format      ascii;
    class       volVectorField;
    location    "2";
    object      U;
}
// * * * * * * * * * * * * * * * * * * * * * * * * * * * * * * * * * * * * * //

dimensions      [0 1 -1 0 0 0 0];

internalField   nonuniform List<vector> 
960
(
(0.00154616 1.42231e-06 0)
(0.0015558 -3.9643e-08 0)
(0.00156403 -1.12965e-09 0)
(0.00155757 -6.92652e-09 0)
(0.00421903 -2.70388e-07 0)
(0.00424816 -4.22291e-07 0)
(0.00426251 3.11325e-08 0)
(0.00424226 1.65355e-07 0)
(0.00649969 9.08135e-07 0)
(0.00654237 -8.02769e-07 0)
(0.00656218 1.02024e-07 0)
(0.00652969 4.63985e-07 0)
(0.00842894 -5.49974e-07 0)
(0.00848066 -1.4582e-06 0)
(0.00850452 2.46181e-07 0)
(0.00846252 9.43558e-07 0)
(0.0100475 3.32989e-07 0)
(0.0101045 -2.03372e-06 0)
(0.0101305 4.05467e-07 0)
(0.010082 1.46717e-06 0)
(0.0113926 -1.07602e-06 0)
(0.0114528 -2.85915e-06 0)
(0.0114796 6.24237e-07 0)
(0.0114269 2.1308e-06 0)
(0.0125001 1.55671e-07 0)
(0.0125619 -3.45628e-06 0)
(0.0125888 8.39911e-07 0)
(0.0125336 2.72143e-06 0)
(0.0134028 -1.40455e-06 0)
(0.0134654 -4.35336e-06 0)
(0.0134922 1.1e-06 0)
(0.0134357 3.48419e-06 0)
(0.0141315 -3.78635e-07 0)
(0.0141943 -4.9108e-06 0)
(0.0142209 1.33368e-06 0)
(0.0141639 4.06222e-06 0)
(0.0147139 -1.606e-06 0)
(0.0147763 -5.83895e-06 0)
(0.0148027 1.61169e-06 0)
(0.0147461 4.87637e-06 0)
(0.0151743 -1.05302e-06 0)
(0.0152362 -6.36559e-06 0)
(0.0152628 1.83863e-06 0)
(0.0152073 5.42229e-06 0)
(0.0155352 -1.84586e-06 0)
(0.0155954 -7.26499e-06 0)
(0.0156219 2.08843e-06 0)
(0.015569 6.19896e-06 0)
(0.0158141 -1.69139e-06 0)
(0.015873 -7.81019e-06 0)
(0.0159006 2.29966e-06 0)
(0.0158504 6.71707e-06 0)
(0.0160286 -2.21889e-06 0)
(0.0160842 -8.57396e-06 0)
(0.0161129 2.46365e-06 0)
(0.0160667 7.38937e-06 0)
(0.0161896 -2.25585e-06 0)
(0.0162437 -9.40141e-06 0)
(0.0162761 2.6003e-06 0)
(0.016232 7.89175e-06 0)
(0.0163107 -2.73212e-06 0)
(0.0163582 -9.917e-06 0)
(0.0163936 2.67616e-06 0)
(0.0163555 8.45567e-06 0)
(0.0163986 -2.79707e-06 0)
(0.0164433 -1.08444e-05 0)
(0.0164826 2.60665e-06 0)
(0.0164486 9.03548e-06 0)
(0.0164639 -3.19187e-06 0)
(0.0165054 -1.13117e-05 0)
(0.0165471 2.50173e-06 0)
(0.0165167 9.45526e-06 0)
(0.0165104 -3.30487e-06 0)
(0.0165507 -1.21163e-05 0)
(0.0165948 2.37622e-06 0)
(0.0165665 1.00802e-05 0)
(0.0165438 -3.5858e-06 0)
(0.0165833 -1.27131e-05 0)
(0.0166288 2.1588e-06 0)
(0.0166016 1.04241e-05 0)
(0.0165671 -3.79347e-06 0)
(0.0166065 -1.35084e-05 0)
(0.0166529 1.99275e-06 0)
(0.0166265 1.105e-05 0)
(0.0165833 -4.05438e-06 0)
(0.0166226 -1.41092e-05 0)
(0.0166696 1.75948e-06 0)
(0.0166435 1.14085e-05 0)
(0.0165944 -4.31651e-06 0)
(0.0166339 -1.48844e-05 0)
(0.016681 1.57119e-06 0)
(0.0166552 1.19899e-05 0)
(0.0166019 -4.51269e-06 0)
(0.0166412 -1.55548e-05 0)
(0.0166885 1.33678e-06 0)
(0.0166629 1.23736e-05 0)
(0.0166073 -4.84485e-06 0)
(0.0166464 -1.62418e-05 0)
(0.0166932 1.13897e-06 0)
(0.0166681 1.29302e-05 0)
(0.016611 -4.92426e-06 0)
(0.0166491 -1.70183e-05 0)
(0.0166954 8.79016e-07 0)
(0.0166712 1.33245e-05 0)
(0.0166146 -5.35913e-06 0)
(0.0166513 -1.76576e-05 0)
(0.0166957 7.0582e-07 0)
(0.0166734 1.37207e-05 0)
(0.016618 -5.43272e-06 0)
(0.0166514 -1.80847e-05 0)
(0.0166938 5.46662e-07 0)
(0.0166739 1.41864e-05 0)
(0.0166226 -5.77573e-06 0)
(0.0166518 -1.89456e-05 0)
(0.0166898 1.95148e-07 0)
(0.0166738 1.445e-05 0)
(0.016628 -5.67534e-06 0)
(0.0166501 -1.91735e-05 0)
(0.0166832 1.31336e-07 0)
(0.0166716 1.4813e-05 0)
(0.0166333 -5.75419e-06 0)
(0.0166487 -1.96716e-05 0)
(0.0166736 -1.75392e-07 0)
(0.0166682 1.5009e-05 0)
(0.0166368 -5.62058e-06 0)
(0.0166465 -2.02508e-05 0)
(0.0166701 -3.83678e-07 0)
(0.0166679 1.49404e-05 0)
(0.0166398 -5.51247e-06 0)
(0.0166466 -2.01281e-05 0)
(0.0166682 -3.87633e-07 0)
(0.0166685 1.50531e-05 0)
(0.0166415 -5.47642e-06 0)
(0.0166463 -2.06652e-05 0)
(0.0166676 -7.19033e-07 0)
(0.0166695 1.49381e-05 0)
(0.0166437 -5.28116e-06 0)
(0.0166481 -2.06671e-05 0)
(0.0166688 -7.8805e-07 0)
(0.0166717 1.4944e-05 0)
(0.0166462 -5.0706e-06 0)
(0.0166503 -2.09553e-05 0)
(0.0166713 -1.01354e-06 0)
(0.0166749 1.48681e-05 0)
(0.0166505 -4.94504e-06 0)
(0.0166548 -2.11226e-05 0)
(0.0166761 -1.24336e-06 0)
(0.0166801 1.48981e-05 0)
(0.0166569 -4.53279e-06 0)
(0.0166611 -2.15365e-05 0)
(0.016683 -1.42012e-06 0)
(0.0166872 1.46768e-05 0)
(0.016667 -4.5841e-06 0)
(0.0166711 -2.14692e-05 0)
(0.0166933 -1.67723e-06 0)
(0.0166979 1.48439e-05 0)
(0.0166819 -3.98143e-06 0)
(0.0166856 -2.20964e-05 0)
(0.0167078 -1.8337e-06 0)
(0.016713 1.44512e-05 0)
(0.0167041 -4.15041e-06 0)
(0.0167066 -2.1812e-05 0)
(0.0167285 -2.09362e-06 0)
(0.0167348 1.47191e-05 0)
(0.0167358 -3.50207e-06 0)
(0.0167366 -2.25958e-05 0)
(0.016757 -2.34445e-06 0)
(0.0167652 1.42476e-05 0)
(0.0167809 -3.53782e-06 0)
(0.0167786 -2.23482e-05 0)
(0.0167966 -2.56073e-06 0)
(0.0168076 1.45339e-05 0)
(0.0168437 -3.18087e-06 0)
(0.0168374 -2.26377e-05 0)
(0.0168506 -2.76531e-06 0)
(0.0168654 1.40074e-05 0)
(0.0169302 -2.82719e-06 0)
(0.0169176 -2.27194e-05 0)
(0.0169238 -3.08024e-06 0)
(0.016944 1.40057e-05 0)
(0.0170468 -2.83855e-06 0)
(0.0170269 -2.21843e-05 0)
(0.0170233 -3.13037e-06 0)
(0.0170488 1.34835e-05 0)
(0.0171953 -2.42664e-06 0)
(0.0171689 -2.21787e-05 0)
(0.0171603 -3.44547e-06 0)
(0.0171895 1.29539e-05 0)
(0.0173876 -2.50106e-06 0)
(0.0173572 -2.14851e-05 0)
(0.0173453 -3.63058e-06 0)
(0.0173774 1.27873e-05 0)
(0.0176365 -1.88789e-06 0)
(0.0176023 -2.14442e-05 0)
(0.0175888 -3.7228e-06 0)
(0.0176236 1.18464e-05 0)
(0.0179553 -2.20106e-06 0)
(0.0179191 -2.05479e-05 0)
(0.0179047 -4.03171e-06 0)
(0.0179417 1.18372e-05 0)
(0.0183609 -1.21287e-06 0)
(0.0183229 -2.05756e-05 0)
(0.0183086 -4.14159e-06 0)
(0.0183473 1.08177e-05 0)
(0.0188715 -1.86202e-06 0)
(0.0188327 -1.94996e-05 0)
(0.0188187 -4.42e-06 0)
(0.0188587 1.06557e-05 0)
(0.0195084 -5.55958e-07 0)
(0.0194695 -1.96342e-05 0)
(0.0194564 -4.6189e-06 0)
(0.0194972 9.76973e-06 0)
(0.0202952 -1.57741e-06 0)
(0.0202566 -1.84003e-05 0)
(0.0202448 -4.85867e-06 0)
(0.0202858 9.4136e-06 0)
(0.0212585 2.18699e-07 0)
(0.0212197 -1.89275e-05 0)
(0.0212102 -5.21134e-06 0)
(0.0212517 8.82025e-06 0)
(0.0224257 -1.40398e-06 0)
(0.0223871 -1.70718e-05 0)
(0.0223803 -5.2123e-06 0)
(0.0224234 8.12822e-06 0)
(0.0238291 1.1094e-06 0)
(0.0237895 -1.84788e-05 0)
(0.0237862 -6.03039e-06 0)
(0.0238319 8.04178e-06 0)
(0.0254994 -9.25788e-07 0)
(0.0254598 -1.63407e-05 0)
(0.0254589 -6.08845e-06 0)
(0.0255119 6.85686e-06 0)
(0.0274724 1.96884e-06 0)
(0.0274308 -1.72116e-05 0)
(0.0274324 -6.55082e-06 0)
(0.0274952 7.14892e-06 0)
(0.0297905 3.89184e-07 0)
(0.0297529 -1.58828e-05 0)
(0.0297445 -7.46016e-06 0)
(0.0298186 6.24708e-06 0)
(0.00155346 2.51867e-08 0)
(0.0015446 6.39597e-08 0)
(0.00155576 -1.39632e-07 0)
(0.00156151 6.20966e-08 0)
(0.00423098 2.10166e-07 0)
(0.00421434 1.50258e-07 0)
(0.00424016 -5.53088e-07 0)
(0.00424802 2.78452e-07 0)
(0.00651262 4.19528e-07 0)
(0.00649458 2.03321e-07 0)
(0.00652965 -1.17584e-06 0)
(0.00653756 7.41606e-07 0)
(0.00844112 7.76983e-07 0)
(0.00842459 2.17999e-07 0)
(0.00846547 -1.78729e-06 0)
(0.00847232 1.13469e-06 0)
(0.0100577 9.76528e-07 0)
(0.010043 1.3362e-07 0)
(0.0100874 -2.5339e-06 0)
(0.0100936 1.74924e-06 0)
(0.0114006 1.44089e-06 0)
(0.0113875 6.46701e-08 0)
(0.0114339 -3.16203e-06 0)
(0.0114395 2.16234e-06 0)
(0.0125062 1.53875e-06 0)
(0.0124939 -8.52896e-08 0)
(0.0125413 -3.95608e-06 0)
(0.0125469 2.83324e-06 0)
(0.0134077 2.13975e-06 0)
(0.0133959 -1.83881e-07 0)
(0.0134435 -4.57395e-06 0)
(0.0134491 3.22333e-06 0)
(0.0141359 2.09446e-06 0)
(0.014124 -3.38566e-07 0)
(0.0141708 -5.40106e-06 0)
(0.0141768 3.90296e-06 0)
(0.0147183 2.83316e-06 0)
(0.0147065 -4.3059e-07 0)
(0.014752 -5.99031e-06 0)
(0.014758 4.27985e-06 0)
(0.0151799 2.69828e-06 0)
(0.0151674 -5.39428e-07 0)
(0.0152103 -6.80954e-06 0)
(0.0152164 4.89287e-06 0)
(0.0155425 3.43896e-06 0)
(0.0155294 -6.19721e-07 0)
(0.0155691 -7.3745e-06 0)
(0.015575 5.33995e-06 0)
(0.0158243 3.31858e-06 0)
(0.0158103 -6.8351e-07 0)
(0.0158451 -8.04933e-06 0)
(0.0158503 5.80268e-06 0)
(0.0160411 4.04223e-06 0)
(0.0160275 -5.74497e-07 0)
(0.0160571 -8.66915e-06 0)
(0.0160612 6.33612e-06 0)
(0.0162046 4.14263e-06 0)
(0.0161937 -6.69854e-07 0)
(0.0162166 -9.07787e-06 0)
(0.0162174 6.65647e-06 0)
(0.0163297 4.55341e-06 0)
(0.0163213 -4.95502e-07 0)
(0.0163343 -9.51904e-06 0)
(0.0163333 7.08928e-06 0)
(0.016422 4.96139e-06 0)
(0.0164159 -4.365e-07 0)
(0.0164232 -9.68931e-06 0)
(0.0164187 7.30153e-06 0)
(0.0164901 4.81842e-06 0)
(0.0164844 -3.77398e-07 0)
(0.0164882 -9.88942e-06 0)
(0.0164827 7.73682e-06 0)
(0.0165388 5.50336e-06 0)
(0.0165329 -1.84738e-07 0)
(0.0165335 -9.99778e-06 0)
(0.0165273 7.96183e-06 0)
(0.0165736 5.29926e-06 0)
(0.016568 -5.83685e-08 0)
(0.0165669 -1.0142e-05 0)
(0.0165601 8.41807e-06 0)
(0.0165981 5.95603e-06 0)
(0.0165922 1.1368e-07 0)
(0.0165896 -1.02116e-05 0)
(0.0165824 8.64003e-06 0)
(0.0166151 5.88844e-06 0)
(0.0166098 3.13087e-07 0)
(0.0166065 -1.03289e-05 0)
(0.0165985 9.05684e-06 0)
(0.0166269 6.35646e-06 0)
(0.0166214 4.83215e-07 0)
(0.0166176 -1.03923e-05 0)
(0.0166094 9.30122e-06 0)
(0.016635 6.49885e-06 0)
(0.0166296 6.61152e-07 0)
(0.016626 -1.0469e-05 0)
(0.0166176 9.72903e-06 0)
(0.0166409 6.74879e-06 0)
(0.0166346 8.72417e-07 0)
(0.0166312 -1.05596e-05 0)
(0.0166234 9.98676e-06 0)
(0.016645 7.14809e-06 0)
(0.0166382 1.0204e-06 0)
(0.0166356 -1.06208e-05 0)
(0.0166283 1.04694e-05 0)
(0.0166487 7.0311e-06 0)
(0.0166401 1.20131e-06 0)
(0.0166377 -1.07846e-05 0)
(0.0166319 1.05881e-05 0)
(0.0166512 7.70837e-06 0)
(0.0166419 1.48574e-06 0)
(0.0166403 -1.07487e-05 0)
(0.016636 1.1075e-05 0)
(0.0166542 7.55651e-06 0)
(0.0166433 1.63478e-06 0)
(0.0166412 -1.10311e-05 0)
(0.0166388 1.12446e-05 0)
(0.0166561 8.01748e-06 0)
(0.0166463 1.87842e-06 0)
(0.016643 -1.10535e-05 0)
(0.0166422 1.15588e-05 0)
(0.0166588 8.40205e-06 0)
(0.0166465 1.94113e-06 0)
(0.0166432 -1.10455e-05 0)
(0.0166453 1.19322e-05 0)
(0.0166608 8.28167e-06 0)
(0.0166482 2.00767e-06 0)
(0.0166449 -1.11918e-05 0)
(0.0166499 1.17976e-05 0)
(0.0166633 8.92431e-06 0)
(0.0166475 2.08718e-06 0)
(0.0166452 -1.10009e-05 0)
(0.0166539 1.2004e-05 0)
(0.0166655 8.70825e-06 0)
(0.0166474 2.21354e-06 0)
(0.0166472 -1.11241e-05 0)
(0.0166586 1.1753e-05 0)
(0.0166687 9.32555e-06 0)
(0.0166474 2.33e-06 0)
(0.0166489 -1.11255e-05 0)
(0.0166628 1.18263e-05 0)
(0.0166726 9.30999e-06 0)
(0.0166493 2.50018e-06 0)
(0.0166525 -1.12426e-05 0)
(0.016668 1.17311e-05 0)
(0.0166782 9.83451e-06 0)
(0.0166531 2.55844e-06 0)
(0.0166572 -1.13883e-05 0)
(0.016674 1.18765e-05 0)
(0.0166858 9.90578e-06 0)
(0.0166598 2.74966e-06 0)
(0.0166647 -1.14887e-05 0)
(0.016682 1.16976e-05 0)
(0.0166968 1.0363e-05 0)
(0.0166703 2.80663e-06 0)
(0.0166752 -1.16989e-05 0)
(0.016693 1.19315e-05 0)
(0.0167122 1.05184e-05 0)
(0.0166856 3.02732e-06 0)
(0.0166906 -1.17613e-05 0)
(0.0167084 1.16938e-05 0)
(0.0167346 1.08369e-05 0)
(0.0167081 3.04617e-06 0)
(0.0167125 -1.19757e-05 0)
(0.0167302 1.19513e-05 0)
(0.0167656 1.11496e-05 0)
(0.0167394 3.29775e-06 0)
(0.0167434 -1.20564e-05 0)
(0.0167607 1.17578e-05 0)
(0.0168097 1.14336e-05 0)
(0.0167844 3.3201e-06 0)
(0.0167867 -1.23122e-05 0)
(0.0168032 1.20387e-05 0)
(0.0168703 1.15332e-05 0)
(0.0168461 3.48955e-06 0)
(0.0168458 -1.22622e-05 0)
(0.0168614 1.18103e-05 0)
(0.0169546 1.20146e-05 0)
(0.0169323 3.7983e-06 0)
(0.0169262 -1.25179e-05 0)
(0.0169408 1.19039e-05 0)
(0.017063 1.18331e-05 0)
(0.0170433 3.92407e-06 0)
(0.0170328 -1.2315e-05 0)
(0.0170468 1.16413e-05 0)
(0.0172081 1.19894e-05 0)
(0.0171905 4.28786e-06 0)
(0.0171773 -1.22895e-05 0)
(0.0171919 1.13411e-05 0)
(0.0173984 1.20997e-05 0)
(0.017382 4.45108e-06 0)
(0.0173671 -1.23348e-05 0)
(0.0173816 1.13318e-05 0)
(0.017646 1.18445e-05 0)
(0.0176306 4.77965e-06 0)
(0.0176145 -1.21315e-05 0)
(0.0176287 1.07936e-05 0)
(0.0179642 1.20182e-05 0)
(0.017949 4.85764e-06 0)
(0.0179326 -1.22014e-05 0)
(0.0179463 1.09312e-05 0)
(0.0183695 1.18717e-05 0)
(0.0183543 5.38075e-06 0)
(0.018338 -1.20796e-05 0)
(0.0183511 1.02698e-05 0)
(0.0188802 1.18559e-05 0)
(0.0188644 5.30695e-06 0)
(0.0188488 -1.19495e-05 0)
(0.0188614 1.0429e-05 0)
(0.0195177 1.18159e-05 0)
(0.0195011 5.90805e-06 0)
(0.0194865 -1.1973e-05 0)
(0.0194982 9.6575e-06 0)
(0.0203048 1.18407e-05 0)
(0.0202874 5.76892e-06 0)
(0.0202739 -1.17296e-05 0)
(0.0202853 1.00265e-05 0)
(0.0212684 1.18346e-05 0)
(0.0212503 6.44855e-06 0)
(0.0212386 -1.19248e-05 0)
(0.0212492 9.03996e-06 0)
(0.0224365 1.18569e-05 0)
(0.0224171 6.17075e-06 0)
(0.0224064 -1.14776e-05 0)
(0.0224178 9.65556e-06 0)
(0.0238403 1.21047e-05 0)
(0.023819 7.05956e-06 0)
(0.0238113 -1.19396e-05 0)
(0.0238237 8.52577e-06 0)
(0.0255128 1.23553e-05 0)
(0.0254894 6.55652e-06 0)
(0.0254807 -1.1539e-05 0)
(0.0254973 9.20795e-06 0)
(0.0274905 1.22121e-05 0)
(0.0274602 7.47533e-06 0)
(0.0274539 -1.15107e-05 0)
(0.0274775 8.1173e-06 0)
(0.0298038 1.27591e-05 0)
(0.0297729 7.27789e-06 0)
(0.0297625 -1.19707e-05 0)
(0.0297929 9.19723e-06 0)
(0.0343566 1.04046e-06 0)
(0.0343316 -1.55155e-05 0)
(0.0342805 -6.9386e-06 0)
(0.0343513 6.06591e-06 0)
(0.0572775 2.097e-06 0)
(0.0573035 -1.5963e-05 0)
(0.0569196 -4.81302e-06 0)
(0.0565865 4.75264e-06 0)
(0.0771265 -8.75791e-06 0)
(0.0771311 -7.38499e-06 0)
(0.0768068 -1.63073e-06 0)
(0.0766561 2.02579e-06 0)
(0.0939463 3.40302e-06 0)
(0.0939463 -1.34495e-05 0)
(0.0936801 5.01045e-06 0)
(0.0936535 2.89959e-06 0)
(0.108084 -1.41805e-05 0)
(0.108079 5.1945e-07 0)
(0.107875 5.7455e-06 0)
(0.107913 -2.48638e-06 0)
(0.119862 3.43459e-06 0)
(0.11986 -1.14489e-05 0)
(0.119695 6.31955e-06 0)
(0.119769 -8.26184e-07 0)
(0.129581 -1.45608e-05 0)
(0.129579 3.52428e-06 0)
(0.129462 7.61979e-06 0)
(0.129531 -5.22161e-06 0)
(0.137528 2.0063e-06 0)
(0.137524 -8.00201e-06 0)
(0.137438 7.57902e-06 0)
(0.137504 -4.27565e-06 0)
(0.143955 -1.29306e-05 0)
(0.143953 3.75969e-06 0)
(0.143902 7.57838e-06 0)
(0.143946 -5.71048e-06 0)
(0.149106 -3.73741e-07 0)
(0.149108 -5.54563e-06 0)
(0.14908 8.14524e-06 0)
(0.149114 -6.53588e-06 0)
(0.153196 -1.10966e-05 0)
(0.153198 3.66049e-06 0)
(0.153196 7.82762e-06 0)
(0.153215 -5.15823e-06 0)
(0.156413 -2.90065e-06 0)
(0.156397 -4.46235e-06 0)
(0.156422 7.37414e-06 0)
(0.156445 -7.15103e-06 0)
(0.158921 -8.49714e-06 0)
(0.158887 1.71173e-06 0)
(0.15893 6.87467e-06 0)
(0.158951 -3.94927e-06 0)
(0.160847 -4.93099e-06 0)
(0.160794 -1.70574e-06 0)
(0.160854 6.7609e-06 0)
(0.160879 -6.04161e-06 0)
(0.162307 -5.85273e-06 0)
(0.162244 -1.16501e-06 0)
(0.162316 4.95427e-06 0)
(0.162341 -3.68892e-06 0)
(0.163414 -5.78023e-06 0)
(0.16333 8.82003e-07 0)
(0.163414 6.16407e-06 0)
(0.163443 -3.95344e-06 0)
(0.164237 -3.96756e-06 0)
(0.164139 -2.00925e-06 0)
(0.164229 4.08623e-06 0)
(0.164259 -4.37825e-06 0)
(0.164843 -5.43059e-06 0)
(0.164731 1.58688e-06 0)
(0.164828 3.24579e-06 0)
(0.164859 -1.62384e-06 0)
(0.165284 -1.50836e-06 0)
(0.165162 -2.28604e-06 0)
(0.165262 2.54689e-06 0)
(0.165294 -3.61886e-06 0)
(0.165599 -4.42799e-06 0)
(0.165471 2.5447e-06 0)
(0.165573 6.63985e-07 0)
(0.165606 4.19986e-08 0)
(0.165824 4.53948e-07 0)
(0.165689 -1.89565e-06 0)
(0.165793 1.66441e-07 0)
(0.165825 -1.83081e-06 0)
(0.16598 -2.47164e-06 0)
(0.165843 2.849e-06 0)
(0.165946 -1.17559e-06 0)
(0.165977 8.89281e-07 0)
(0.166087 1.36791e-06 0)
(0.165949 -7.54817e-09 0)
(0.16605 -1.90573e-06 0)
(0.166082 -1.15811e-07 0)
(0.166158 2.26929e-07 0)
(0.166021 2.50139e-06 0)
(0.16612 -3.33768e-06 0)
(0.166149 1.6779e-06 0)
(0.166204 2.09704e-06 0)
(0.166071 1.88027e-06 0)
(0.166166 -3.89463e-06 0)
(0.166194 1.65506e-06 0)
(0.166232 2.97732e-06 0)
(0.166104 2.3371e-06 0)
(0.166194 -5.54971e-06 0)
(0.166218 2.67001e-06 0)
(0.166247 2.83644e-06 0)
(0.166128 2.51957e-06 0)
(0.166211 -5.79294e-06 0)
(0.166232 2.19334e-06 0)
(0.166253 4.47172e-06 0)
(0.166143 4.30835e-06 0)
(0.166217 -6.46686e-06 0)
(0.166232 3.68793e-06 0)
(0.166252 4.1784e-06 0)
(0.166158 2.20602e-06 0)
(0.166221 -7.80255e-06 0)
(0.16623 2.67934e-06 0)
(0.166249 5.26795e-06 0)
(0.166166 5.5915e-06 0)
(0.166212 -6.80846e-06 0)
(0.166212 3.44081e-06 0)
(0.166239 6.04885e-06 0)
(0.166177 4.429e-06 0)
(0.166206 -8.31474e-06 0)
(0.166195 3.81434e-06 0)
(0.166226 5.93343e-06 0)
(0.166177 3.50609e-06 0)
(0.16619 -8.41353e-06 0)
(0.166171 2.41301e-06 0)
(0.166203 6.93641e-06 0)
(0.16618 6.47619e-06 0)
(0.166187 -7.18518e-06 0)
(0.166156 3.03589e-06 0)
(0.166169 5.51106e-06 0)
(0.166166 4.13568e-06 0)
(0.166167 -8.1429e-06 0)
(0.166132 1.95424e-06 0)
(0.166131 6.87485e-06 0)
(0.16615 5.39498e-06 0)
(0.16615 -6.78897e-06 0)
(0.166106 1.66393e-06 0)
(0.166084 5.1468e-06 0)
(0.166114 5.68856e-06 0)
(0.166111 -6.32713e-06 0)
(0.166064 1.29204e-06 0)
(0.166023 6.41127e-06 0)
(0.166064 4.52811e-06 0)
(0.166062 -6.38455e-06 0)
(0.16601 7.97315e-07 0)
(0.165941 5.28806e-06 0)
(0.165988 4.78989e-06 0)
(0.165984 -5.40538e-06 0)
(0.16593 2.45763e-07 0)
(0.165824 5.75488e-06 0)
(0.165873 4.22789e-06 0)
(0.16587 -5.28771e-06 0)
(0.165817 -2.37012e-07 0)
(0.16566 5.57708e-06 0)
(0.165712 3.94734e-06 0)
(0.165708 -4.38252e-06 0)
(0.165653 -7.69423e-07 0)
(0.165426 5.60529e-06 0)
(0.165473 3.62538e-06 0)
(0.165471 -4.28895e-06 0)
(0.16542 -1.26941e-06 0)
(0.165094 5.99039e-06 0)
(0.165143 3.3541e-06 0)
(0.16514 -3.29396e-06 0)
(0.165089 -1.68968e-06 0)
(0.16463 5.65855e-06 0)
(0.164673 3.08947e-06 0)
(0.164671 -3.35757e-06 0)
(0.164625 -2.11062e-06 0)
(0.163984 6.23771e-06 0)
(0.16403 2.58504e-06 0)
(0.164026 -2.41401e-06 0)
(0.163981 -2.29593e-06 0)
(0.163101 6.17289e-06 0)
(0.163142 2.43002e-06 0)
(0.16314 -2.21985e-06 0)
(0.163102 -2.71827e-06 0)
(0.161902 5.97946e-06 0)
(0.161953 2.03626e-06 0)
(0.16195 -1.92764e-06 0)
(0.161909 -2.76736e-06 0)
(0.160307 6.30889e-06 0)
(0.160345 1.71758e-06 0)
(0.160343 -1.2154e-06 0)
(0.160317 -2.75184e-06 0)
(0.15819 5.43028e-06 0)
(0.158235 1.71453e-06 0)
(0.158232 -1.40876e-06 0)
(0.158206 -2.7511e-06 0)
(0.155428 5.51878e-06 0)
(0.155465 1.2586e-06 0)
(0.15546 -7.26378e-07 0)
(0.155448 -2.49335e-06 0)
(0.151846 4.69715e-06 0)
(0.151885 1.1496e-06 0)
(0.151878 -9.07945e-07 0)
(0.151872 -2.35563e-06 0)
(0.147269 4.42863e-06 0)
(0.147307 8.19502e-07 0)
(0.147299 -4.54671e-07 0)
(0.147298 -2.08837e-06 0)
(0.141471 3.52113e-06 0)
(0.141511 6.90021e-07 0)
(0.141506 -6.34808e-07 0)
(0.141506 -1.76332e-06 0)
(0.134212 2.99593e-06 0)
(0.134252 4.1071e-07 0)
(0.134243 -2.94221e-07 0)
(0.134239 -1.29556e-06 0)
(0.12521 2.18569e-06 0)
(0.125246 2.32846e-07 0)
(0.125242 -3.22214e-07 0)
(0.12524 -9.16373e-07 0)
(0.114159 1.63485e-06 0)
(0.114189 2.1624e-08 0)
(0.114183 -1.19827e-07 0)
(0.114185 -4.80427e-07 0)
(0.100723 1.0933e-06 0)
(0.100744 -7.52817e-08 0)
(0.100738 -1.44963e-07 0)
(0.100746 -2.18957e-07 0)
(0.0845387 6.79378e-07 0)
(0.0845545 -1.07822e-07 0)
(0.0845468 -5.53409e-08 0)
(0.0845566 -1.85921e-08 0)
(0.0652198 3.72675e-07 0)
(0.0652308 -1.17188e-07 0)
(0.0652246 -7.62027e-08 0)
(0.0652348 7.06766e-08 0)
(0.0423617 1.22263e-07 0)
(0.0423684 -9.91183e-08 0)
(0.0423632 -4.78189e-08 0)
(0.0423713 1.03703e-07 0)
(0.0155475 2.80015e-08 0)
(0.0155484 -1.81006e-08 0)
(0.0155446 -8.80678e-09 0)
(0.0155486 3.28082e-08 0)
(0.0343527 1.23927e-05 0)
(0.0343177 7.35257e-06 0)
(0.0343095 -1.16217e-05 0)
(0.0343434 8.07825e-06 0)
(0.0570603 1.12535e-05 0)
(0.05727 8.42209e-06 0)
(0.0572104 -1.03751e-05 0)
(0.0569382 5.44416e-06 0)
(0.0770229 7.2384e-06 0)
(0.0771436 5.09072e-06 0)
(0.0770713 -9.78744e-06 0)
(0.0769249 9.87309e-06 0)
(0.0939008 4.64851e-07 0)
(0.0939795 7.92627e-06 0)
(0.0939087 -5.87189e-06 0)
(0.0938279 2.77251e-06 0)
(0.108089 4.99199e-07 0)
(0.108123 3.79172e-06 0)
(0.108066 -4.27447e-06 0)
(0.108036 1.00505e-05 0)
(0.119878 -1.92327e-06 0)
(0.119897 8.11922e-06 0)
(0.119853 -5.82849e-06 0)
(0.119835 2.18994e-06 0)
(0.129599 -2.44697e-06 0)
(0.129611 4.15475e-06 0)
(0.129586 -2.4033e-06 0)
(0.129575 9.72689e-06 0)
(0.137536 -2.99891e-06 0)
(0.137547 7.89824e-06 0)
(0.13754 -4.736e-06 0)
(0.137525 2.48275e-06 0)
(0.143953 -3.0806e-06 0)
(0.143979 4.27447e-06 0)
(0.14398 -1.99058e-06 0)
(0.143954 9.42057e-06 0)
(0.149093 -3.58532e-06 0)
(0.149125 6.74691e-06 0)
(0.149139 -3.55977e-06 0)
(0.149101 3.47324e-06 0)
(0.153177 -3.56357e-06 0)
(0.153218 3.76185e-06 0)
(0.153234 -1.2669e-06 0)
(0.15319 8.87685e-06 0)
(0.156379 -3.30219e-06 0)
(0.15642 4.99114e-06 0)
(0.156443 -2.98927e-06 0)
(0.156407 5.10753e-06 0)
(0.158872 -2.77951e-06 0)
(0.158918 3.14894e-06 0)
(0.15894 -1.41844e-06 0)
(0.158915 8.52879e-06 0)
(0.160783 -3.07759e-06 0)
(0.160823 3.13621e-06 0)
(0.160851 -2.58465e-06 0)
(0.160844 6.3347e-06 0)
(0.16224 -1.18183e-06 0)
(0.162282 2.22195e-06 0)
(0.16231 -1.71572e-06 0)
(0.162309 7.87641e-06 0)
(0.163331 -2.41771e-06 0)
(0.163362 1.55845e-06 0)
(0.163387 -1.38997e-06 0)
(0.163414 6.68024e-06 0)
(0.164145 -1.05596e-06 0)
(0.164172 9.02584e-07 0)
(0.164184 -1.82764e-06 0)
(0.164229 5.78903e-06 0)
(0.164739 1.70635e-07 0)
(0.164749 5.64967e-07 0)
(0.164755 -2.05781e-06 0)
(0.164828 6.77394e-06 0)
(0.165173 1.71257e-07 0)
(0.165179 6.75473e-07 0)
(0.165178 -2.99147e-06 0)
(0.165264 3.51514e-06 0)
(0.165482 2.47055e-06 0)
(0.165482 -1.84276e-08 0)
(0.16548 -3.92131e-06 0)
(0.165578 5.47833e-06 0)
(0.165702 2.73634e-06 0)
(0.165702 8.55724e-07 0)
(0.165698 -4.38696e-06 0)
(0.165801 1.80013e-06 0)
(0.165855 4.11571e-06 0)
(0.165854 -2.9118e-07 0)
(0.165849 -5.05802e-06 0)
(0.165957 2.88276e-06 0)
(0.165962 4.87556e-06 0)
(0.165961 6.85524e-07 0)
(0.165954 -5.80228e-06 0)
(0.166064 -9.27304e-08 0)
(0.166036 6.01562e-06 0)
(0.166036 -3.05797e-07 0)
(0.166026 -6.48794e-06 0)
(0.166135 2.49233e-07 0)
(0.166087 6.9882e-06 0)
(0.166085 7.10448e-07 0)
(0.166073 -7.21501e-06 0)
(0.166182 -1.92111e-06 0)
(0.166127 8.40601e-06 0)
(0.166127 -9.16221e-08 0)
(0.166105 -7.83542e-06 0)
(0.16621 -1.88136e-06 0)
(0.166153 7.17539e-06 0)
(0.16615 5.06112e-07 0)
(0.166125 -8.71058e-06 0)
(0.166226 -4.71329e-06 0)
(0.166183 1.06832e-05 0)
(0.166184 5.16378e-07 0)
(0.166139 -7.95467e-06 0)
(0.166233 -3.69637e-06 0)
(0.166192 8.36611e-06 0)
(0.16619 9.16569e-07 0)
(0.166146 -9.40973e-06 0)
(0.166234 -6.50814e-06 0)
(0.166211 9.40227e-06 0)
(0.166213 1.01739e-06 0)
(0.166151 -8.6513e-06 0)
(0.166232 -6.33951e-06 0)
(0.166219 1.1114e-05 0)
(0.16622 2.14624e-06 0)
(0.166152 -9.10881e-06 0)
(0.166225 -6.19225e-06 0)
(0.166221 7.33237e-06 0)
(0.166225 1.92068e-06 0)
(0.166152 -1.02075e-05 0)
(0.166215 -8.70849e-06 0)
(0.16622 9.84091e-06 0)
(0.166224 2.83116e-06 0)
(0.166147 -8.43593e-06 0)
(0.166198 -7.38274e-06 0)
(0.16621 7.33042e-06 0)
(0.166216 3.34016e-06 0)
(0.166139 -9.26883e-06 0)
(0.166171 -9.22124e-06 0)
(0.166192 7.19428e-06 0)
(0.166199 3.56649e-06 0)
(0.166123 -7.73663e-06 0)
(0.166142 -8.80309e-06 0)
(0.166161 6.40976e-06 0)
(0.166169 4.3756e-06 0)
(0.166096 -7.36648e-06 0)
(0.166105 -8.84827e-06 0)
(0.166112 5.54322e-06 0)
(0.16612 4.69986e-06 0)
(0.166052 -6.86616e-06 0)
(0.166054 -8.60715e-06 0)
(0.166036 4.60628e-06 0)
(0.166045 5.1547e-06 0)
(0.165982 -6.12626e-06 0)
(0.165981 -8.31926e-06 0)
(0.165923 3.59804e-06 0)
(0.165933 5.48046e-06 0)
(0.165881 -5.65659e-06 0)
(0.165876 -7.8998e-06 0)
(0.165758 2.74154e-06 0)
(0.165768 5.70776e-06 0)
(0.165731 -5.0304e-06 0)
(0.165725 -7.31664e-06 0)
(0.16552 1.68955e-06 0)
(0.165532 5.79569e-06 0)
(0.165508 -4.79447e-06 0)
(0.1655 -6.70559e-06 0)
(0.165181 9.67187e-07 0)
(0.165193 5.80898e-06 0)
(0.165175 -4.29889e-06 0)
(0.165167 -5.91316e-06 0)
(0.164706 -5.31259e-08 0)
(0.164723 5.74541e-06 0)
(0.164713 -4.25107e-06 0)
(0.1647 -5.33305e-06 0)
(0.164049 -5.38706e-07 0)
(0.164068 5.71407e-06 0)
(0.164058 -3.65024e-06 0)
(0.164039 -4.65167e-06 0)
(0.163152 -1.55164e-06 0)
(0.16317 5.36258e-06 0)
(0.163167 -3.66214e-06 0)
(0.163149 -4.00153e-06 0)
(0.161937 -1.82858e-06 0)
(0.161941 5.14507e-06 0)
(0.161952 -3.48055e-06 0)
(0.161938 -3.44332e-06 0)
(0.16033 -1.94643e-06 0)
(0.160327 4.95743e-06 0)
(0.160341 -3.32926e-06 0)
(0.160333 -3.05713e-06 0)
(0.158204 -2.2375e-06 0)
(0.1582 4.66565e-06 0)
(0.158219 -3.63791e-06 0)
(0.158203 -2.7313e-06 0)
(0.155439 -1.72222e-06 0)
(0.155437 4.70016e-06 0)
(0.15545 -3.2052e-06 0)
(0.155427 -2.56644e-06 0)
(0.151841 -1.87159e-06 0)
(0.151855 4.38205e-06 0)
(0.151875 -3.20183e-06 0)
(0.151829 -2.41611e-06 0)
(0.147254 -1.53464e-06 0)
(0.147278 4.02217e-06 0)
(0.147299 -2.71346e-06 0)
(0.14724 -2.11183e-06 0)
(0.141448 -1.37957e-06 0)
(0.141478 3.50782e-06 0)
(0.141504 -2.41192e-06 0)
(0.141436 -1.83972e-06 0)
(0.134185 -1.10523e-06 0)
(0.134218 2.96401e-06 0)
(0.134244 -1.89728e-06 0)
(0.134174 -1.53371e-06 0)
(0.125181 -9.27838e-07 0)
(0.125214 2.37731e-06 0)
(0.125241 -1.55111e-06 0)
(0.125174 -1.25624e-06 0)
(0.114133 -6.67313e-07 0)
(0.114163 1.81916e-06 0)
(0.114189 -1.12115e-06 0)
(0.114127 -9.66575e-07 0)
(0.1007 -4.88e-07 0)
(0.100724 1.30746e-06 0)
(0.100749 -8.31019e-07 0)
(0.100696 -7.13721e-07 0)
(0.0845208 -2.92567e-07 0)
(0.0845394 8.49696e-07 0)
(0.0845609 -5.30185e-07 0)
(0.0845169 -4.81171e-07 0)
(0.0652075 -1.44516e-07 0)
(0.0652197 5.02237e-07 0)
(0.0652373 -3.28645e-07 0)
(0.0652039 -3.00195e-07 0)
(0.042356 1.04795e-08 0)
(0.042364 2.19576e-07 0)
(0.0423757 -1.55451e-07 0)
(0.042353 -1.40192e-07 0)
(0.0155458 -1.40809e-08 0)
(0.0155506 4.36981e-08 0)
(0.0155552 -3.30939e-08 0)
(0.0155456 -3.50724e-08 0)
)
;

boundaryField
{
    topWall
    {
        type            noSlip;
    }
    botWall
    {
        type            noSlip;
    }
    inlet
    {
        type            cyclic;
    }
    outlet
    {
        type            cyclic;
    }
    fixWall
    {
        type            empty;
    }
}


// ************************************************************************* //
