/*--------------------------------*- C++ -*----------------------------------*\
  =========                 |
  \\      /  F ield         | OpenFOAM: The Open Source CFD Toolbox
   \\    /   O peration     | Website:  https://openfoam.org
    \\  /    A nd           | Version:  dev
     \\/     M anipulation  |

   OpenFOAM for Windows 20.09 (v1)
   Built by CFD Support, www.cfdsupport.com (based on Symscape).
\*---------------------------------------------------------------------------*/
FoamFile
{
    version     2.0;
    format      ascii;
    class       surfaceScalarField;
    location    "2";
    object      alphaPhi0.water;
}
// * * * * * * * * * * * * * * * * * * * * * * * * * * * * * * * * * * * * * //

dimensions      [0 3 -1 0 0 0 0];

internalField   nonuniform List<scalar> 
217
(
1.01091e-145
1.87542e-149
5.69485e-146
4.98636e-152
4.56428e-146
-1.54407e-152
-5.84691e-152
1.97696e-146
7.83895e-149
1.89189e-152
4.28825e-149
3.90799e-153
2.72149e-149
-5.55572e-156
-3.64205e-155
1.84594e-149
5.70976e-152
6.78766e-155
3.07606e-152
5.21151e-156
1.6999e-152
-3.37226e-159
-2.3635e-158
1.18509e-152
6.91454e-155
1.32503e-157
4.13658e-155
1.36019e-158
2.52744e-155
-1.40149e-162
-1.40394e-161
1.48691e-155
6.87825e-158
1.07188e-160
4.16676e-158
1.02418e-161
2.32088e-158
-5.15603e-166
-7.10904e-165
1.20259e-158
5.07419e-161
6.93271e-164
2.65124e-161
4.42332e-165
1.32221e-161
-1.12162e-169
-2.81881e-168
6.33621e-162
3.03806e-164
3.49594e-167
1.37201e-164
1.38514e-168
6.27471e-165
2.01817e-169
-8.9278e-172
2.80061e-165
1.43041e-167
1.34477e-170
5.71984e-168
8.09196e-173
2.48003e-168
1.2717e-172
-1.97829e-175
1.0252e-168
5.1386e-171
3.85408e-174
1.78403e-171
-2.72785e-179
7.43095e-172
4.26873e-176
-3.21552e-179
2.86067e-172
1.36298e-174
8.02392e-178
4.32586e-175
-1.0012e-182
1.68671e-175
6.59897e-180
-3.32266e-183
6.14223e-176
2.56639e-178
1.16408e-181
7.48823e-179
-1.52467e-186
2.62603e-179
4.7491e-184
-2.16743e-187
9.13292e-180
3.2323e-182
1.133e-185
8.52943e-183
-1.11728e-190
2.59856e-183
-2.44532e-192
-8.74056e-192
8.8748e-184
2.52601e-186
6.70268e-190
5.86485e-187
-4.0299e-195
1.48458e-187
-3.09174e-196
-2.19646e-196
5.33747e-188
1.02019e-190
1.68557e-194
2.03291e-191
-4.55025e-200
4.43594e-192
-4.70363e-201
-1.59969e-201
1.87554e-192
1.00618e-195
1.88291e-196
2.75492e-197
1.75747e-197
1.08841e-146
-1.0745e-152
1.7647e-145
7.79751e-149
2.6234e-145
-2.55641e-151
-2.20369e-151
8.11013e-150
-7.21756e-156
8.43709e-149
4.04924e-152
1.65631e-148
-1.6803e-154
-1.23701e-154
5.1267e-153
-4.73881e-159
4.45954e-152
4.40956e-155
1.02288e-151
-1.33042e-157
-7.46521e-158
7.98364e-156
-2.76636e-162
6.07104e-155
8.46477e-158
7.67375e-155
-8.95687e-161
-4.11726e-161
5.78094e-159
-1.28037e-165
1.72782e-157
2.2495e-160
1.02738e-157
-6.22107e-164
-2.5684e-164
2.87855e-162
-4.68834e-169
1.56706e-160
1.8759e-163
7.65851e-161
-3.29622e-167
-1.28216e-167
1.20145e-165
-1.49289e-172
1.0268e-163
1.09304e-166
4.54704e-164
-1.33841e-170
-5.17382e-171
4.11954e-169
-3.27849e-176
5.27868e-167
4.76894e-170
2.17446e-167
-4.14725e-174
-1.58815e-174
1.07576e-172
-5.48728e-180
2.11482e-170
1.56423e-173
8.16784e-171
-9.2645e-178
-3.55753e-178
2.16463e-176
-5.63396e-184
6.4381e-174
3.69842e-177
2.31985e-174
-1.44086e-181
-5.34527e-182
3.00389e-180
-3.71494e-188
1.41446e-177
5.94719e-181
4.69193e-178
-1.37882e-185
-4.76004e-186
2.70232e-184
-1.31318e-192
2.09387e-181
5.73028e-185
6.21931e-182
-7.36774e-190
-2.04312e-190
1.45863e-188
-2.05051e-197
1.85315e-185
2.57651e-189
4.69682e-186
-1.53404e-194
-1.99149e-195
3.99825e-193
6.21171e-199
7.71025e-190
2.4665e-194
1.47855e-190
-4.71578e-200
4.13753e-196
1.67126e-198
6.56608e-195
5.70943e-196
)
;

boundaryField
{
    topWall
    {
        type            calculated;
        value           uniform 0;
    }
    botWall
    {
        type            calculated;
        value           nonuniform List<scalar> 0();
    }
    inlet
    {
        type            cyclic;
        value           nonuniform List<scalar> 
15
(
-1.35129e-145
-8.07917e-149
-5.08107e-152
-4.52939e-155
-4.84623e-158
-3.28488e-161
-1.83092e-164
-8.28002e-168
-2.93664e-171
-7.79432e-175
-1.44584e-178
-1.69919e-182
-1.07054e-186
-2.43756e-191
-5.95849e-197
)
;
    }
    outlet
    {
        type            cyclic;
        value           nonuniform List<scalar> 
15
(
1.35129e-145
8.07917e-149
5.08107e-152
4.52939e-155
4.84623e-158
3.28488e-161
1.83092e-164
8.28002e-168
2.93664e-171
7.79432e-175
1.44584e-178
1.69919e-182
1.07054e-186
2.43756e-191
5.95849e-197
)
;
    }
    fixWall
    {
        type            empty;
        value           nonuniform List<scalar> 0();
    }
    procBoundary7to6
    {
        type            processor;
        value           nonuniform List<scalar> 8(-2.9584e-145 -6.77331e-147 4.11814e-149 7.43486e-149 1.00041e-149 -3.30971e-145 4.09645e-148 3.23915e-148);
    }
}


// ************************************************************************* //
