/*--------------------------------*- C++ -*----------------------------------*\
  =========                 |
  \\      /  F ield         | OpenFOAM: The Open Source CFD Toolbox
   \\    /   O peration     | Website:  https://openfoam.org
    \\  /    A nd           | Version:  dev
     \\/     M anipulation  |

   OpenFOAM for Windows 20.09 (v1)
   Built by CFD Support, www.cfdsupport.com (based on Symscape).
\*---------------------------------------------------------------------------*/
FoamFile
{
    version     2.0;
    format      ascii;
    class       volSymmTensorField;
    location    "2";
    object      devReff;
}
// * * * * * * * * * * * * * * * * * * * * * * * * * * * * * * * * * * * * * //

dimensions      [0 2 -2 0 0 0 0];

internalField   nonuniform List<symmTensor> 
120
(
(-2.65402e-08 0.000316327 -0 -2.1258e-09 -0 2.8666e-08)
(-1.74466e-07 0.000316642 -0 1.67886e-07 -0 6.5797e-09)
(1.85192e-07 0.000316698 -0 -2.06307e-07 -0 2.11152e-08)
(3.04789e-08 0.0003153 -0 -1.14383e-08 -0 -1.90406e-08)
(-7.27617e-08 0.000420271 -0 9.85523e-08 -0 -2.57905e-08)
(-1.1479e-07 0.00042093 -0 9.3817e-08 -0 2.09728e-08)
(1.09696e-07 0.000420971 -0 -1.13589e-07 -0 3.89291e-09)
(3.50157e-08 0.000419218 -0 -1.93488e-08 -0 -1.5667e-08)
(-1.39882e-07 0.000552294 -0 1.59387e-07 -0 -1.95057e-08)
(-1.4017e-07 0.000552431 -0 1.22045e-07 -0 1.81251e-08)
(1.08529e-07 0.000552814 -0 -1.09626e-07 -0 1.09637e-09)
(8.89107e-08 0.000551221 -0 -7.37191e-08 -0 -1.51916e-08)
(-1.52164e-07 0.000718197 -0 1.59077e-07 -0 -6.91317e-09)
(-1.21978e-07 0.000718824 -0 1.24944e-07 -0 -2.96556e-09)
(8.16906e-08 0.000719265 -0 -9.75414e-08 -0 1.58509e-08)
(8.13548e-08 0.000717053 -0 -8.54473e-08 -0 4.09241e-09)
(-2.24708e-07 0.000923647 -0 2.35767e-07 -0 -1.10592e-08)
(-1.15266e-07 0.000923582 -0 1.07343e-07 -0 7.92353e-09)
(5.29817e-08 0.00092385 -0 -5.72502e-08 -0 4.26852e-09)
(1.22948e-07 0.00092265 -0 -1.0732e-07 -0 -1.56281e-08)
(-2.58768e-07 0.00117442 -0 2.62519e-07 -0 -3.75125e-09)
(-1.09827e-07 0.00117451 -0 1.06941e-07 -0 2.88561e-09)
(4.39725e-08 0.0011742 -0 -5.29075e-08 -0 8.93497e-09)
(1.57875e-07 0.0011736 -0 -1.45992e-07 -0 -1.18836e-08)
(-2.95583e-07 0.00147818 -0 3.09983e-07 -0 -1.44001e-08)
(-1.18033e-07 0.0014779 -0 1.05295e-07 -0 1.27384e-08)
(2.46311e-08 0.00147808 -0 -3.04797e-08 -0 5.84858e-09)
(2.06271e-07 0.00147837 -0 -1.92888e-07 -0 -1.33832e-08)
(-2.9701e-07 0.00184096 -0 2.99686e-07 -0 -2.67595e-09)
(-1.12084e-07 0.00184129 -0 1.07798e-07 -0 4.28633e-09)
(5.7425e-08 0.00184122 -0 -6.41005e-08 -0 6.67551e-09)
(2.10369e-07 0.00184135 -0 -2.01065e-07 -0 -9.30349e-09)
(-2.83432e-07 0.00227015 -0 2.958e-07 -0 -1.23684e-08)
(-1.10934e-07 0.00227134 -0 9.95145e-08 -0 1.14195e-08)
(2.69948e-08 0.00227095 -0 -3.32401e-08 -0 6.24529e-09)
(2.16125e-07 0.0022703 -0 -2.00342e-07 -0 -1.57833e-08)
(-2.38266e-07 0.00277205 -0 2.42801e-07 -0 -4.53469e-09)
(-8.31843e-08 0.0027738 -0 7.64745e-08 -0 6.70979e-09)
(2.43237e-08 0.00277409 -0 -3.2228e-08 -0 7.90427e-09)
(1.79027e-07 0.002773 -0 -1.68466e-07 -0 -1.05604e-08)
(-1.9287e-07 0.00335325 -0 2.04602e-07 -0 -1.17323e-08)
(-4.60293e-08 0.00335486 -0 3.76689e-08 -0 8.36039e-09)
(1.1183e-09 0.00335502 -0 -7.85949e-09 -0 6.74119e-09)
(1.30211e-07 0.00335413 -0 -1.17389e-07 -0 -1.28223e-08)
(-1.48996e-07 0.00401925 -0 1.56078e-07 -0 -7.0816e-09)
(-2.36678e-08 0.00402037 -0 1.6578e-08 -0 7.08982e-09)
(-1.0147e-10 0.00402033 -0 -7.73344e-09 -0 7.83491e-09)
(8.72995e-08 0.00402008 -0 -7.64384e-08 -0 -1.08611e-08)
(-1.098e-07 0.00477475 -0 1.17969e-07 -0 -8.16982e-09)
(-1.15099e-08 0.00477578 -0 4.76961e-09 -0 6.74027e-09)
(-9.48719e-09 0.00477551 -0 3.89206e-09 -0 5.59514e-09)
(5.23649e-08 0.0047757 -0 -4.00272e-08 -0 -1.23378e-08)
(-6.48156e-08 0.00562328 -0 7.14274e-08 -0 -6.61187e-09)
(3.69602e-09 0.00562443 -0 -1.30654e-08 -0 9.3694e-09)
(-2.16463e-09 0.00562415 -0 -6.54741e-09 -0 8.71204e-09)
(1.53366e-08 0.00562485 -0 -3.3813e-09 -0 -1.19553e-08)
(-1.85031e-08 0.00655576 -0 2.62627e-08 -0 -7.75954e-09)
(1.61363e-08 0.00655662 -0 -2.13382e-08 -0 5.2019e-09)
(3.76708e-09 0.00655561 -0 -8.294e-09 -0 4.52692e-09)
(-1.32772e-08 0.00655697 -0 2.20926e-08 -0 -8.81548e-09)
(-1.09345e-07 0.000319553 -0 9.93657e-08 -0 9.97912e-09)
(-6.74443e-08 0.000321823 -0 7.9588e-08 -0 -1.21437e-08)
(3.20925e-08 0.00031991 -0 -5.37315e-08 -0 2.16391e-08)
(1.95826e-07 0.000318777 -0 -2.04827e-07 -0 9.00004e-09)
(-5.54792e-08 0.000422585 -0 7.40316e-08 -0 -1.85524e-08)
(-6.59403e-08 0.000423485 -0 8.72442e-08 -0 -2.13038e-08)
(-2.648e-08 0.000422618 -0 3.10543e-08 -0 -4.57432e-09)
(1.40215e-07 0.000422853 -0 -1.50714e-07 -0 1.04987e-08)
(3.21749e-08 0.000553588 -0 -4.14696e-08 -0 9.29471e-09)
(-5.62091e-08 0.000553519 -0 5.72296e-08 -0 -1.02041e-09)
(2.73773e-09 0.000553805 -0 -1.54126e-08 -0 1.26749e-08)
(1.09955e-07 0.00055535 -0 -1.10528e-07 -0 5.7319e-10)
(5.40475e-08 0.000720278 -0 -6.84469e-08 -0 1.43995e-08)
(-4.69741e-08 0.000718393 -0 5.5593e-08 -0 -8.61883e-09)
(5.94205e-08 0.000718126 -0 -7.90777e-08 -0 1.96572e-08)
(7.71911e-08 0.000721594 -0 -7.4277e-08 -0 -2.91416e-09)
(5.91743e-08 0.000926605 -0 -5.08226e-08 -0 -8.3517e-09)
(-1.36394e-07 0.000923761 -0 1.44949e-07 -0 -8.55578e-09)
(1.02053e-07 0.00092275 -0 -1.06696e-07 -0 4.64293e-09)
(1.09278e-07 0.00092685 -0 -1.06104e-07 -0 -3.17376e-09)
(8.82483e-08 0.00117662 -0 -9.98249e-08 -0 1.15766e-08)
(-1.77789e-07 0.00117471 -0 1.87864e-07 -0 -1.00751e-08)
(1.55154e-07 0.00117409 -0 -1.67e-07 -0 1.18465e-08)
(1.17279e-07 0.00117651 -0 -1.23891e-07 -0 6.61168e-09)
(1.01978e-07 0.00147956 -0 -9.96013e-08 -0 -2.37681e-09)
(-2.21733e-07 0.00147844 -0 2.30658e-07 -0 -8.92523e-09)
(1.66962e-07 0.00147794 -0 -1.75879e-07 -0 8.91655e-09)
(1.26249e-07 0.00147907 -0 -1.28572e-07 -0 2.32314e-09)
(8.66992e-08 0.00184157 -0 -9.44887e-08 -0 7.78956e-09)
(-2.33625e-07 0.00184126 -0 2.44795e-07 -0 -1.11699e-08)
(1.7475e-07 0.0018411 -0 -1.84825e-07 -0 1.00751e-08)
(1.23472e-07 0.00184097 -0 -1.27791e-07 -0 4.319e-09)
(1.00714e-07 0.00227004 -0 -9.99329e-08 -0 -7.81057e-10)
(-2.39094e-07 0.00227044 -0 2.49153e-07 -0 -1.00589e-08)
(1.57789e-07 0.0022704 -0 -1.66758e-07 -0 8.96969e-09)
(1.22456e-07 0.00226951 -0 -1.25432e-07 -0 2.97602e-09)
(8.88973e-08 0.00277142 -0 -9.42416e-08 -0 5.34432e-09)
(-2.2145e-07 0.00277237 -0 2.31839e-07 -0 -1.03898e-08)
(1.43519e-07 0.00277266 -0 -1.5328e-07 -0 9.76045e-09)
(1.15189e-07 0.00277109 -0 -1.19011e-07 -0 3.82221e-09)
(8.19213e-08 0.00335228 -0 -8.33847e-08 -0 1.4634e-09)
(-1.98468e-07 0.00335357 -0 2.08985e-07 -0 -1.05173e-08)
(1.15469e-07 0.00335408 -0 -1.24636e-07 -0 9.16687e-09)
(1.02839e-07 0.0033521 -0 -1.06371e-07 -0 3.53196e-09)
(6.91396e-08 0.00401798 -0 -7.34548e-08 -0 4.31515e-09)
(-1.61633e-07 0.00401939 -0 1.71974e-07 -0 -1.03411e-08)
(9.45994e-08 0.00402025 -0 -1.04172e-07 -0 9.57275e-09)
(8.71353e-08 0.00401798 -0 -9.03819e-08 -0 3.24659e-09)
(6.10215e-08 0.00477338 -0 -6.48179e-08 -0 3.79638e-09)
(-1.22468e-07 0.00477457 -0 1.32568e-07 -0 -1.01003e-08)
(6.79398e-08 0.00477568 -0 -7.63927e-08 -0 8.4529e-09)
(6.96777e-08 0.00477327 -0 -7.34402e-08 -0 3.76254e-09)
(2.80797e-08 0.00562208 -0 -2.88061e-08 -0 7.26357e-10)
(-8.43199e-08 0.00562292 -0 9.407e-08 -0 -9.75009e-09)
(5.01238e-08 0.00562439 -0 -5.85205e-08 -0 8.39676e-09)
(5.53102e-08 0.0056217 -0 -5.7669e-08 -0 2.35879e-09)
(-4.63333e-09 0.00655492 -0 1.90896e-09 -0 2.72437e-09)
(-4.3357e-08 0.00655637 -0 5.14831e-08 -0 -8.12611e-09)
(2.68039e-08 0.00655821 -0 -3.47466e-08 -0 7.94274e-09)
(3.23996e-08 0.00655455 -0 -3.60411e-08 -0 3.64149e-09)
)
;

boundaryField
{
    topWall
    {
        type            calculated;
        value           nonuniform List<symmTensor> 8((-1.56157e-08 0.00704039 -0 2.04878e-08 -0 -4.8721e-09) (1.2754e-08 0.00704079 -0 -1.45735e-08 -0 1.81953e-09) (2.15209e-09 0.00703908 -0 -5.06402e-09 -0 2.91193e-09) (-1.28788e-08 0.00704088 -0 2.1296e-08 -0 -8.41714e-09) (-6.54287e-10 0.00703962 -0 -6.04913e-09 -0 6.70342e-09) (-3.66791e-08 0.00704176 -0 3.81274e-08 -0 -1.44825e-09) (2.25647e-08 0.00704384 -0 -2.62683e-08 -0 3.70357e-09) (2.976e-08 0.0070395 -0 -3.07618e-08 -0 1.00185e-09));
    }
    botWall
    {
        type            calculated;
        value           nonuniform List<symmTensor> 0();
    }
    inlet
    {
        type            cyclic;
    }
    outlet
    {
        type            cyclic;
    }
    fixWall
    {
        type            empty;
    }
    procBoundary7to6
    {
        type            processor;
        value           nonuniform List<symmTensor> 8((-2.63652e-09 0.000235617 -0 3.05542e-08 -0 -2.79177e-08) (-1.39737e-07 0.000235111 -0 1.31994e-07 -0 7.74301e-09) (1.36723e-07 0.000235066 -0 -1.23422e-07 -0 -1.33006e-08) (-6.57679e-08 0.000234559 -0 8.62533e-08 -0 -2.04854e-08) (-2.6685e-07 0.000239129 -0 2.79449e-07 -0 -1.25989e-08) (-7.99399e-08 0.000240835 -0 1.04384e-07 -0 -2.44441e-08) (6.54377e-08 0.000238475 -0 -5.19293e-08 -0 -1.35084e-08) (2.56702e-07 0.000237827 -0 -2.65146e-07 -0 8.4435e-09));
    }
}


// ************************************************************************* //
