/*--------------------------------*- C++ -*----------------------------------*\
  =========                 |
  \\      /  F ield         | OpenFOAM: The Open Source CFD Toolbox
   \\    /   O peration     | Website:  https://openfoam.org
    \\  /    A nd           | Version:  dev
     \\/     M anipulation  |

   OpenFOAM for Windows 20.09 (v1)
   Built by CFD Support, www.cfdsupport.com (based on Symscape).
\*---------------------------------------------------------------------------*/
FoamFile
{
    version     2.0;
    format      ascii;
    class       volScalarField;
    location    "2";
    object      epsilon;
}
// * * * * * * * * * * * * * * * * * * * * * * * * * * * * * * * * * * * * * //

dimensions      [0 2 -3 0 0 0 0];

internalField   nonuniform List<scalar> 
120
(
2.10306e-15
2.10306e-15
2.10308e-15
2.10311e-15
2.44393e-15
2.44395e-15
2.44398e-15
2.44401e-15
2.87575e-15
2.87578e-15
2.87581e-15
2.87585e-15
3.43348e-15
3.43352e-15
3.43356e-15
3.43359e-15
4.17069e-15
4.17074e-15
4.17078e-15
4.17083e-15
5.1728e-15
5.17287e-15
5.1729e-15
5.17296e-15
6.58251e-15
6.58261e-15
6.58264e-15
6.58272e-15
8.65241e-15
8.65258e-15
8.6526e-15
8.65269e-15
1.18628e-14
1.1863e-14
1.1863e-14
1.18631e-14
1.7215e-14
1.72154e-14
1.72154e-14
1.72155e-14
2.70691e-14
2.70698e-14
2.70697e-14
2.70697e-14
4.7977e-14
4.79777e-14
4.79776e-14
4.79775e-14
1.02039e-13
1.0204e-13
1.02039e-13
1.02039e-13
2.99701e-13
2.99701e-13
2.99701e-13
2.99701e-13
1.73748e-12
1.73748e-12
1.73748e-12
1.73748e-12
2.10313e-15
2.10303e-15
2.10311e-15
2.10313e-15
2.44402e-15
2.44391e-15
2.44401e-15
2.44402e-15
2.87586e-15
2.87574e-15
2.87585e-15
2.87586e-15
3.4336e-15
3.43347e-15
3.4336e-15
3.4336e-15
4.17082e-15
4.17069e-15
4.17083e-15
4.17082e-15
5.17293e-15
5.17281e-15
5.17295e-15
5.17294e-15
6.58267e-15
6.58256e-15
6.58271e-15
6.58267e-15
8.65262e-15
8.6525e-15
8.65267e-15
8.65263e-15
1.1863e-14
1.18629e-14
1.18631e-14
1.18631e-14
1.72154e-14
1.72152e-14
1.72155e-14
1.72155e-14
2.70697e-14
2.70694e-14
2.70697e-14
2.70697e-14
4.79775e-14
4.79773e-14
4.79775e-14
4.79777e-14
1.02039e-13
1.02039e-13
1.02039e-13
1.0204e-13
2.99701e-13
2.99701e-13
2.99701e-13
2.99701e-13
1.73748e-12
1.73748e-12
1.73748e-12
1.73748e-12
)
;

boundaryField
{
    topWall
    {
        type            epsilonWallFunction;
        value           nonuniform List<scalar> 8(1.73748e-12 1.73748e-12 1.73748e-12 1.73748e-12 1.73748e-12 1.73748e-12 1.73748e-12 1.73748e-12);
    }
    botWall
    {
        type            epsilonWallFunction;
        value           nonuniform List<scalar> 0();
    }
    inlet
    {
        type            cyclic;
    }
    outlet
    {
        type            cyclic;
    }
    fixWall
    {
        type            empty;
    }
    procBoundary7to6
    {
        type            processor;
        value           nonuniform List<scalar> 8(1.82947e-15 1.82945e-15 1.82946e-15 1.82949e-15 1.82951e-15 1.82942e-15 1.82949e-15 1.82951e-15);
    }
}


// ************************************************************************* //
