/*--------------------------------*- C++ -*----------------------------------*\
  =========                 |
  \\      /  F ield         | OpenFOAM: The Open Source CFD Toolbox
   \\    /   O peration     | Website:  https://openfoam.org
    \\  /    A nd           | Version:  dev
     \\/     M anipulation  |

   OpenFOAM for Windows 20.09 (v1)
   Built by CFD Support, www.cfdsupport.com (based on Symscape).
\*---------------------------------------------------------------------------*/
FoamFile
{
    version     2.0;
    format      ascii;
    class       volVectorField;
    location    "2";
    object      gradp;
}
// * * * * * * * * * * * * * * * * * * * * * * * * * * * * * * * * * * * * * //

dimensions      [1 -2 -2 0 0 0 0];

internalField   nonuniform List<vector> 
120
(
(3.74979 -9.81049 0)
(-1.24727 -9.80892 0)
(-1.24328 -9.809 0)
(-1.2451 -9.81078 0)
(3.7498 -9.81019 0)
(-1.24726 -9.8088 0)
(-1.2433 -9.80907 0)
(-1.24512 -9.81102 0)
(3.74981 -9.81014 0)
(-1.24725 -9.80864 0)
(-1.24332 -9.80918 0)
(-1.24514 -9.81114 0)
(3.74982 -9.81015 0)
(-1.24724 -9.80862 0)
(-1.24334 -9.80923 0)
(-1.24516 -9.81109 0)
(3.74983 -9.81014 0)
(-1.24723 -9.80871 0)
(-1.24336 -9.80927 0)
(-1.24518 -9.81098 0)
(3.74983 -9.81011 0)
(-1.24722 -9.80885 0)
(-1.24338 -9.80932 0)
(-1.2452 -9.81089 0)
(3.74984 -9.81009 0)
(-1.24722 -9.80897 0)
(-1.2434 -9.80939 0)
(-1.24522 -9.81081 0)
(3.74985 -9.81006 0)
(-1.24721 -9.80909 0)
(-1.24341 -9.80947 0)
(-1.24524 -9.81072 0)
(3.74985 -9.81003 0)
(-1.24721 -9.80921 0)
(-1.24342 -9.80956 0)
(-1.24525 -9.81064 0)
(3.74986 -9.81 0)
(-1.24721 -9.80932 0)
(-1.24343 -9.80963 0)
(-1.24526 -9.81056 0)
(3.74986 -9.80998 0)
(-1.2472 -9.80944 0)
(-1.24344 -9.80971 0)
(-1.24527 -9.81047 0)
(3.74986 -9.80997 0)
(-1.2472 -9.80957 0)
(-1.24345 -9.80977 0)
(-1.24528 -9.81037 0)
(3.74987 -9.80996 0)
(-1.2472 -9.80969 0)
(-1.24346 -9.80984 0)
(-1.24528 -9.81026 0)
(3.74987 -9.80996 0)
(-1.2472 -9.80981 0)
(-1.24346 -9.8099 0)
(-1.24529 -9.81017 0)
(3.74987 -9.80998 0)
(-1.2472 -9.80993 0)
(-1.24346 -9.80996 0)
(-1.24529 -9.81006 0)
(-1.25055 -9.81172 0)
(-1.25533 -9.80994 0)
(-1.25596 -9.80838 0)
(3.74769 -9.81034 0)
(-1.25054 -9.81181 0)
(-1.25531 -9.81023 0)
(-1.25596 -9.80867 0)
(3.74768 -9.80994 0)
(-1.25054 -9.81186 0)
(-1.25528 -9.8104 0)
(-1.25595 -9.80892 0)
(3.74767 -9.80969 0)
(-1.25053 -9.81175 0)
(-1.25526 -9.81043 0)
(-1.25594 -9.80905 0)
(3.74766 -9.80962 0)
(-1.25053 -9.81163 0)
(-1.25524 -9.81042 0)
(-1.25594 -9.80915 0)
(3.74765 -9.80965 0)
(-1.25052 -9.8115 0)
(-1.25522 -9.81038 0)
(-1.25593 -9.80926 0)
(3.74764 -9.8097 0)
(-1.25052 -9.81134 0)
(-1.2552 -9.81033 0)
(-1.25593 -9.80935 0)
(3.74764 -9.80973 0)
(-1.25051 -9.81118 0)
(-1.25518 -9.81028 0)
(-1.25592 -9.80944 0)
(3.74763 -9.80976 0)
(-1.25051 -9.81102 0)
(-1.25517 -9.81023 0)
(-1.25592 -9.80953 0)
(3.74763 -9.8098 0)
(-1.25051 -9.81087 0)
(-1.25516 -9.81019 0)
(-1.25591 -9.80961 0)
(3.74762 -9.80983 0)
(-1.25051 -9.81071 0)
(-1.25515 -9.81015 0)
(-1.25591 -9.8097 0)
(3.74762 -9.80986 0)
(-1.2505 -9.81055 0)
(-1.25514 -9.81011 0)
(-1.25591 -9.80977 0)
(3.74762 -9.8099 0)
(-1.2505 -9.8104 0)
(-1.25514 -9.81007 0)
(-1.25591 -9.80985 0)
(3.74762 -9.80993 0)
(-1.2505 -9.81026 0)
(-1.25513 -9.81003 0)
(-1.25591 -9.80992 0)
(3.74762 -9.80996 0)
(-1.2505 -9.8101 0)
(-1.25513 -9.81001 0)
(-1.25591 -9.80997 0)
(3.74762 -9.80999 0)
)
;

boundaryField
{
    topWall
    {
        type            extrapolatedCalculated;
        value           nonuniform List<vector> 8((3.74987 -9.81 0) (-1.2472 -9.81 0) (-1.24346 -9.81 0) (-1.24529 -9.81 0) (-1.2505 -9.81 0) (-1.25513 -9.81 0) (-1.25591 -9.81 0) (3.74762 -9.81 0));
    }
    botWall
    {
        type            extrapolatedCalculated;
        value           nonuniform List<vector> 0();
    }
    inlet
    {
        type            cyclic;
    }
    outlet
    {
        type            cyclic;
    }
    fixWall
    {
        type            empty;
    }
    procBoundary7to6
    {
        type            processor;
        value           nonuniform List<vector> 8((3.74978 -9.81088 0) (-1.24728 -9.80892 0) (-1.24327 -9.80889 0) (-1.24507 -9.81052 0) (-1.25056 -9.81163 0) (-1.25536 -9.80965 0) (-1.25595 -9.80806 0) (3.74772 -9.81071 0));
    }
}


// ************************************************************************* //
