/*--------------------------------*- C++ -*----------------------------------*\
  =========                 |
  \\      /  F ield         | OpenFOAM: The Open Source CFD Toolbox
   \\    /   O peration     | Website:  https://openfoam.org
    \\  /    A nd           | Version:  dev
     \\/     M anipulation  |

   OpenFOAM for Windows 20.09 (v1)
   Built by CFD Support, www.cfdsupport.com (based on Symscape).
\*---------------------------------------------------------------------------*/
FoamFile
{
    version     2.0;
    format      ascii;
    class       volTensorField;
    location    "2";
    object      gradU;
}
// * * * * * * * * * * * * * * * * * * * * * * * * * * * * * * * * * * * * * //

dimensions      [0 0 -1 0 0 0 0];

internalField   nonuniform List<tensor> 
120
(
(0.000146296 5.47958e-05 0 -1.67659 8.15983e-05 0 0 0 0)
(0.00047977 -7.9071e-05 0 -1.67812 -0.000427461 0 0 0 0)
(-0.000434804 -4.80362e-05 0 -1.67845 0.000602669 0 0 0 0)
(-0.000131227 9.90591e-07 0 -1.67109 -2.01459e-05 0 0 0 0)
(0.000124474 4.77471e-05 0 -2.22748 -0.000329508 0 0 0 0)
(0.000359771 -7.52429e-05 0 -2.23085 -0.000193037 0 0 0 0)
(-0.000280379 -4.46942e-05 0 -2.2311 0.000311328 0 0 0 0)
(-0.000134309 -7.31031e-06 0 -2.22185 9.75673e-06 0 0 0 0)
(0.000318996 4.44583e-05 0 -2.9272 -0.000474067 0 0 0 0)
(0.000419482 -6.83904e-05 0 -2.92782 -0.000275387 0 0 0 0)
(-0.000284697 -4.46563e-05 0 -2.92987 0.000293413 0 0 0 0)
(-0.000275871 -8.28734e-06 0 -2.92146 0.000155098 0 0 0 0)
(0.000384915 3.82504e-05 0 -3.80648 -0.000439875 0 0 0 0)
(0.000315383 -6.24515e-05 0 -3.80971 -0.000338959 0 0 0 0)
(-0.000174475 -3.75195e-05 0 -3.81206 0.00030049 0 0 0 0)
(-0.000204745 -9.95843e-06 0 -3.80037 0.00023728 0 0 0 0)
(0.00056617 3.56571e-05 0 -4.89537 -0.00065409 0 0 0 0)
(0.000326453 -5.6051e-05 0 -4.89493 -0.000263461 0 0 0 0)
(-0.00012909 -3.50523e-05 0 -4.89637 0.000163025 0 0 0 0)
(-0.000367227 -9.63645e-06 0 -4.89003 0.000242984 0 0 0 0)
(0.000675794 2.93133e-05 0 -6.22445 -0.000705616 0 0 0 0)
(0.000298688 -4.8833e-05 0 -6.22484 -0.000275748 0 0 0 0)
(-9.28495e-05 -2.90787e-05 0 -6.22324 0.000163882 0 0 0 0)
(-0.000449861 -1.07997e-05 0 -6.22008 0.000355386 0 0 0 0)
(0.000745136 2.52974e-05 0 -7.83438 -0.000859616 0 0 0 0)
(0.000346545 -4.15593e-05 0 -7.83285 -0.000245275 0 0 0 0)
(-4.97737e-05 -2.45334e-05 0 -7.8338 9.62699e-05 0 0 0 0)
(-0.000582083 -7.44759e-06 0 -7.83535 0.000475687 0 0 0 0)
(0.000779985 1.94442e-05 0 -9.75709 -0.000801259 0 0 0 0)
(0.000308381 -3.29015e-05 0 -9.75882 -0.000274305 0 0 0 0)
(-0.000134486 -1.70627e-05 0 -9.75842 0.000187557 0 0 0 0)
(-0.000582131 -8.11013e-06 0 -9.75913 0.000508169 0 0 0 0)
(0.000718318 1.48908e-05 0 -12.0318 -0.000816647 0 0 0 0)
(0.000324237 -2.50791e-05 0 -12.0381 -0.000233452 0 0 0 0)
(-5.49862e-05 -1.14922e-05 0 -12.036 0.000104636 0 0 0 0)
(-0.000614558 -6.05624e-06 0 -12.0326 0.000489081 0 0 0 0)
(0.000619388 9.88199e-06 0 -14.6919 -0.000655439 0 0 0 0)
(0.000238219 -1.75468e-05 0 -14.7011 -0.000184877 0 0 0 0)
(-4.35116e-05 -5.02051e-06 0 -14.7027 0.000106351 0 0 0 0)
(-0.000502405 -5.47486e-06 0 -14.6969 0.00041845 0 0 0 0)
(0.000480014 6.38439e-06 0 -17.7722 -0.000573286 0 0 0 0)
(0.000144133 -1.23826e-05 0 -17.7807 -7.76676e-05 0 0 0 0)
(1.49006e-05 -1.43675e-06 0 -17.7816 3.86918e-05 0 0 0 0)
(-0.000379038 -3.43037e-06 0 -17.7769 0.000277101 0 0 0 0)
(0.000376074 3.73349e-06 0 -21.302 -0.000432373 0 0 0 0)
(8.15077e-05 -7.34719e-06 0 -21.3079 -2.51436e-05 0 0 0 0)
(2.10314e-05 8.92299e-07 0 -21.3078 4.12561e-05 0 0 0 0)
(-0.000260126 -2.37226e-06 0 -21.3064 0.00017378 0 0 0 0)
(0.000269319 1.83007e-06 0 -25.3062 -0.000334269 0 0 0 0)
(4.83629e-05 -4.48878e-06 0 -25.3117 5.22223e-06 0 0 0 0)
(3.99682e-05 1.87864e-06 0 -25.3102 4.51315e-06 0 0 0 0)
(-0.000171462 -6.83131e-07 0 -25.3112 7.33769e-05 0 0 0 0)
(0.00015424 4.10742e-07 0 -29.8034 -0.000206804 0 0 0 0)
(1.50345e-05 -1.70082e-06 0 -29.8095 5.94523e-05 0 0 0 0)
(2.88232e-05 2.02821e-06 0 -29.808 4.04376e-05 0 0 0 0)
(-7.23234e-05 5.82984e-07 0 -29.8117 -2.2721e-05 0 0 0 0)
(2.84705e-05 1.69718e-07 0 -34.7455 -9.01588e-05 0 0 0 0)
(-2.89763e-05 -3.68083e-07 0 -34.7501 7.03313e-05 0 0 0 0)
(2.01356e-06 5.09089e-07 0 -34.7447 3.39754e-05 0 0 0 0)
(1.18235e-05 -5.27416e-08 0 -34.7519 -8.19065e-05 0 0 0 0)
(0.000316208 7.91243e-05 0 -1.69371 -0.000236874 0 0 0 0)
(0.000146547 -1.65197e-05 0 -1.70565 -0.000243089 0 0 0 0)
(-2.77014e-05 -8.58839e-05 0 -1.69544 0.000199732 0 0 0 0)
(-0.00049509 9.46001e-05 0 -1.68961 0.00056664 0 0 0 0)
(9.78558e-05 7.70927e-05 0 -2.23978 -0.000245348 0 0 0 0)
(0.000118287 -1.38283e-05 0 -2.24446 -0.000287652 0 0 0 0)
(5.805e-05 -8.01456e-05 0 -2.2398 -9.44158e-05 0 0 0 0)
(-0.000343749 9.63814e-05 0 -2.24122 0.000427213 0 0 0 0)
(-6.06325e-05 7.41675e-05 0 -2.93409 0.000134526 0 0 0 0)
(0.00014625 -1.40041e-05 0 -2.93364 -0.000154362 0 0 0 0)
(2.63335e-05 -7.39695e-05 0 -2.93509 7.44319e-05 0 0 0 0)
(-0.000289861 9.06819e-05 0 -2.94344 0.000294417 0 0 0 0)
(-0.000105067 7.1935e-05 0 -3.81755 0.000219543 0 0 0 0)
(0.000101642 -1.48298e-05 0 -3.80747 -0.000170161 0 0 0 0)
(-0.000105373 -7.26659e-05 0 -3.80599 0.000261647 0 0 0 0)
(-0.000212279 8.72398e-05 0 -3.82454 0.000189111 0 0 0 0)
(-0.000178944 6.73768e-05 0 -4.91107 0.000112548 0 0 0 0)
(0.00033877 -1.33024e-05 0 -4.89592 -0.000406788 0 0 0 0)
(-0.000258136 -6.79816e-05 0 -4.89051 0.000295047 0 0 0 0)
(-0.000297996 7.89898e-05 0 -4.91238 0.000272765 0 0 0 0)
(-0.00020318 6.11055e-05 0 -6.23613 0.000295214 0 0 0 0)
(0.000444442 -1.17882e-05 0 -6.22593 -0.000524539 0 0 0 0)
(-0.000379764 -6.134e-05 0 -6.22262 0.000473944 0 0 0 0)
(-0.00029327 7.14208e-05 0 -6.23557 0.000345832 0 0 0 0)
(-0.000276541 5.27114e-05 0 -7.84173 0.000257645 0 0 0 0)
(0.00056394 -1.03236e-05 0 -7.83571 -0.000634896 0 0 0 0)
(-0.000418821 -5.34754e-05 0 -7.83303 0.000489708 0 0 0 0)
(-0.000328402 5.93305e-05 0 -7.83911 0.000346871 0 0 0 0)
(-0.00020911 4.25958e-05 0 -9.76037 0.000271037 0 0 0 0)
(0.000589507 -7.92046e-06 0 -9.75868 -0.000678307 0 0 0 0)
(-0.000436388 -4.49772e-05 0 -9.75779 0.000516486 0 0 0 0)
(-0.000315757 4.89321e-05 0 -9.75721 0.000350093 0 0 0 0)
(-0.000268962 3.29368e-05 0 -12.0313 0.000262752 0 0 0 0)
(0.000606942 -6.23275e-06 0 -12.0333 -0.00068691 0 0 0 0)
(-0.00039437 -3.63354e-05 0 -12.0331 0.000465679 0 0 0 0)
(-0.000316621 3.73681e-05 0 -12.0284 0.00034028 0 0 0 0)
(-0.000221415 2.29959e-05 0 -14.6886 0.000263903 0 0 0 0)
(0.000559308 -4.53835e-06 0 -14.6936 -0.000641908 0 0 0 0)
(-0.000354461 -2.78574e-05 0 -14.6951 0.000432057 0 0 0 0)
(-0.000295122 2.756e-05 0 -14.6868 0.000325509 0 0 0 0)
(-0.000213213 1.52642e-05 0 -17.7671 0.000224848 0 0 0 0)
(0.000498068 -3.43019e-06 0 -17.7739 -0.000581681 0 0 0 0)
(-0.000281701 -2.02118e-05 0 -17.7766 0.000354577 0 0 0 0)
(-0.000263163 1.92432e-05 0 -17.7661 0.000291242 0 0 0 0)
(-0.000171785 8.68288e-06 0 -21.2953 0.00020609 0 0 0 0)
(0.000400923 -2.37618e-06 0 -21.3028 -0.000483135 0 0 0 0)
(-0.000225321 -1.33087e-05 0 -21.3073 0.000301424 0 0 0 0)
(-0.000222305 1.20956e-05 0 -21.2953 0.000248115 0 0 0 0)
(-0.000151647 4.3156e-06 0 -25.2989 0.000181828 0 0 0 0)
(0.000297774 -1.84129e-06 0 -25.3052 -0.000378072 0 0 0 0)
(-0.00015764 -8.02432e-06 0 -25.3111 0.000224841 0 0 0 0)
(-0.000174675 7.0132e-06 0 -25.2983 0.000204587 0 0 0 0)
(-7.24864e-05 1.15873e-06 0 -29.797 7.82609e-05 0 0 0 0)
(0.00019761 -1.6593e-06 0 -29.8015 -0.000275123 0 0 0 0)
(-0.000110577 -3.59768e-06 0 -29.8093 0.000177331 0 0 0 0)
(-0.000140321 2.77714e-06 0 -29.795 0.000159074 0 0 0 0)
(1.94979e-05 1.08899e-07 0 -34.7411 2.16086e-06 0 0 0 0)
(9.33618e-05 -1.9013e-07 0 -34.7487 -0.000157964 0 0 0 0)
(-4.9982e-05 -7.87705e-07 0 -34.7585 0.000113127 0 0 0 0)
(-7.6209e-05 6.10954e-07 0 -34.7391 0.000105159 0 0 0 0)
)
;

boundaryField
{
    topWall
    {
        type            extrapolatedCalculated;
        value           nonuniform List<tensor> 8((2.84705e-05 1.69718e-07 0 -37.3141 -6.72037e-05 0 0 0 0) (-2.89763e-05 -3.68083e-07 0 -37.3162 4.34415e-05 0 0 0 0) (2.01356e-06 5.09089e-07 0 -37.3071 2.11363e-05 0 0 0 0) (1.18235e-05 -5.27416e-08 0 -37.3167 -7.87398e-05 0 0 0 0) (1.94979e-05 1.08899e-07 0 -37.31 3.37942e-05 0 0 0 0) (9.33618e-05 -1.9013e-07 0 -37.3213 -0.000104875 0 0 0 0) (-4.9982e-05 -7.87705e-07 0 -37.3324 7.94253e-05 0 0 0 0) (-7.6209e-05 6.10954e-07 0 -37.3093 8.41738e-05 0 0 0 0));
    }
    botWall
    {
        type            extrapolatedCalculated;
        value           nonuniform List<tensor> 0();
    }
    inlet
    {
        type            cyclic;
    }
    outlet
    {
        type            cyclic;
    }
    fixWall
    {
        type            empty;
    }
    procBoundary7to6
    {
        type            processor;
        value           nonuniform List<tensor> 8((-6.69952e-05 6.43155e-05 0 -1.24884 -0.000154951 0 0 0 0) (0.000390823 -8.39274e-05 0 -1.24601 -0.000329266 0 0 0 0) (-0.000397562 -5.14828e-05 0 -1.2458 0.000291822 0 0 0 0) (0.000119999 6.68209e-06 0 -1.24317 -0.000282857 0 0 0 0) (0.000673764 8.08084e-05 0 -1.26746 -0.000773926 0 0 0 0) (0.000147064 -2.1105e-05 0 -1.2764 -0.000341394 0 0 0 0) (-0.000209207 -9.36411e-05 0 -1.26382 0.000101815 0 0 0 0) (-0.000657886 9.83503e-05 0 -1.26058 0.000725011 0 0 0 0));
    }
}


// ************************************************************************* //
