/*--------------------------------*- C++ -*----------------------------------*\
  =========                 |
  \\      /  F ield         | OpenFOAM: The Open Source CFD Toolbox
   \\    /   O peration     | Website:  https://openfoam.org
    \\  /    A nd           | Version:  dev
     \\/     M anipulation  |

   OpenFOAM for Windows 20.09 (v1)
   Built by CFD Support, www.cfdsupport.com (based on Symscape).
\*---------------------------------------------------------------------------*/
FoamFile
{
    version     2.0;
    format      ascii;
    class       volVectorField;
    location    "2";
    object      gradp_rgh;
}
// * * * * * * * * * * * * * * * * * * * * * * * * * * * * * * * * * * * * * //

dimensions      [1 -2 -2 0 0 0 0];

internalField   nonuniform List<vector> 
120
(
(-1.25021 -0.000485416 0)
(-1.24727 0.00107897 0)
(-1.24328 0.00100169 0)
(-1.2451 -0.00077947 0)
(-1.2502 -0.000185944 0)
(-1.24726 0.00120024 0)
(-1.2433 0.000925888 0)
(-1.24512 -0.00101585 0)
(-1.25019 -0.000140911 0)
(-1.24725 0.00135617 0)
(-1.24332 0.000823926 0)
(-1.24514 -0.00113537 0)
(-1.25018 -0.000146477 0)
(-1.24724 0.00138132 0)
(-1.24334 0.000765857 0)
(-1.24516 -0.0010913 0)
(-1.25017 -0.000138687 0)
(-1.24723 0.00128539 0)
(-1.24336 0.000731273 0)
(-1.24518 -0.000980129 0)
(-1.25017 -0.000114374 0)
(-1.24722 0.00115333 0)
(-1.24338 0.000677152 0)
(-1.2452 -0.000894681 0)
(-1.25016 -9.15641e-05 0)
(-1.24722 0.00102533 0)
(-1.2434 0.000611219 0)
(-1.24522 -0.000811542 0)
(-1.25015 -6.27889e-05 0)
(-1.24721 0.000905859 0)
(-1.24341 0.000529545 0)
(-1.24524 -0.000723102 0)
(-1.25015 -2.77609e-05 0)
(-1.24721 0.000788729 0)
(-1.24342 0.000444651 0)
(-1.24525 -0.000641214 0)
(-1.25014 -6.07299e-07 0)
(-1.24721 0.000676977 0)
(-1.24343 0.000366066 0)
(-1.24526 -0.000560569 0)
(-1.25014 1.89341e-05 0)
(-1.2472 0.000555324 0)
(-1.24344 0.000294452 0)
(-1.24527 -0.0004665 0)
(-1.25014 2.7002e-05 0)
(-1.2472 0.000430332 0)
(-1.24345 0.000226839 0)
(-1.24528 -0.000366119 0)
(-1.25013 3.89382e-05 0)
(-1.2472 0.00030533 0)
(-1.24346 0.000160919 0)
(-1.24528 -0.00026424 0)
(-1.25013 4.44773e-05 0)
(-1.2472 0.000194848 0)
(-1.24346 0.000102685 0)
(-1.24529 -0.000169287 0)
(-1.25013 2.27121e-05 0)
(-1.2472 7.2659e-05 0)
(-1.24346 3.91408e-05 0)
(-1.24529 -6.16168e-05 0)
(-1.25055 -0.00172171 0)
(-1.25533 5.62613e-05 0)
(-1.25596 0.00162342 0)
(-1.25231 -0.000337909 0)
(-1.25054 -0.00181307 0)
(-1.25531 -0.000228929 0)
(-1.25596 0.00133479 0)
(-1.25232 5.85669e-05 0)
(-1.25054 -0.00185817 0)
(-1.25528 -0.000396799 0)
(-1.25595 0.00108174 0)
(-1.25233 0.000309422 0)
(-1.25053 -0.0017535 0)
(-1.25526 -0.000433971 0)
(-1.25594 0.000949894 0)
(-1.25234 0.000383272 0)
(-1.25053 -0.00163296 0)
(-1.25524 -0.000420561 0)
(-1.25594 0.000847589 0)
(-1.25235 0.000349152 0)
(-1.25052 -0.00150128 0)
(-1.25522 -0.000381487 0)
(-1.25593 0.000739803 0)
(-1.25236 0.000303089 0)
(-1.25052 -0.0013428 0)
(-1.2552 -0.000331024 0)
(-1.25593 0.000646657 0)
(-1.25236 0.000270242 0)
(-1.25051 -0.00118381 0)
(-1.25518 -0.000280715 0)
(-1.25592 0.000556369 0)
(-1.25237 0.000236012 0)
(-1.25051 -0.00102203 0)
(-1.25517 -0.00023474 0)
(-1.25592 0.000469403 0)
(-1.25237 0.000203003 0)
(-1.25051 -0.000866506 0)
(-1.25516 -0.000189335 0)
(-1.25591 0.000385022 0)
(-1.25238 0.000169066 0)
(-1.25051 -0.000707703 0)
(-1.25515 -0.00014676 0)
(-1.25591 0.000304168 0)
(-1.25238 0.000136018 0)
(-1.2505 -0.000552212 0)
(-1.25514 -0.000106221 0)
(-1.25591 0.000225805 0)
(-1.25238 0.000101707 0)
(-1.2505 -0.000398689 0)
(-1.25514 -6.75469e-05 0)
(-1.25591 0.00014993 0)
(-1.25238 6.83665e-05 0)
(-1.2505 -0.000262673 0)
(-1.25513 -3.38186e-05 0)
(-1.25591 8.14045e-05 0)
(-1.25238 3.67327e-05 0)
(-1.2505 -0.000100239 0)
(-1.25513 -9.40013e-06 0)
(-1.25591 2.52934e-05 0)
(-1.25238 1.04831e-05 0)
)
;

boundaryField
{
    topWall
    {
        type            extrapolatedCalculated;
        value           nonuniform List<vector> 8((-1.25013 0 0) (-1.2472 0 0) (-1.24346 0 0) (-1.24529 0 0) (-1.2505 0 0) (-1.25513 0 0) (-1.25591 0 0) (-1.25238 0 0));
    }
    botWall
    {
        type            extrapolatedCalculated;
        value           nonuniform List<vector> 0();
    }
    inlet
    {
        type            cyclic;
    }
    outlet
    {
        type            cyclic;
    }
    fixWall
    {
        type            empty;
    }
    procBoundary7to6
    {
        type            processor;
        value           nonuniform List<vector> 8((-1.25022 -0.000884446 0) (-1.24728 0.00108144 0) (-1.24327 0.00111416 0) (-1.24507 -0.000520165 0) (-1.25056 -0.00162985 0) (-1.25536 0.000352603 0) (-1.25595 0.00194072 0) (-1.25228 -0.0007123 0));
    }
}


// ************************************************************************* //
