/*--------------------------------*- C++ -*----------------------------------*\
  =========                 |
  \\      /  F ield         | OpenFOAM: The Open Source CFD Toolbox
   \\    /   O peration     | Website:  https://openfoam.org
    \\  /    A nd           | Version:  dev
     \\/     M anipulation  |

   OpenFOAM for Windows 20.09 (v1)
   Built by CFD Support, www.cfdsupport.com (based on Symscape).
\*---------------------------------------------------------------------------*/
FoamFile
{
    version     2.0;
    format      ascii;
    class       volScalarField;
    location    "2";
    object      nut;
}
// * * * * * * * * * * * * * * * * * * * * * * * * * * * * * * * * * * * * * //

dimensions      [0 2 -1 0 0 0 0];

internalField   nonuniform List<scalar> 
120
(
2.10995e-18
2.10995e-18
2.10993e-18
2.1099e-18
1.81566e-18
1.81564e-18
1.81562e-18
1.8156e-18
1.54302e-18
1.543e-18
1.54299e-18
1.54297e-18
1.29237e-18
1.29236e-18
1.29235e-18
1.29233e-18
1.06393e-18
1.06392e-18
1.06391e-18
1.0639e-18
8.57822e-19
8.57811e-19
8.57805e-19
8.57795e-19
6.74111e-19
6.741e-19
6.74098e-19
6.74089e-19
5.12845e-19
5.12835e-19
5.12834e-19
5.12828e-19
3.74057e-19
3.74048e-19
3.74048e-19
3.74045e-19
2.5776e-19
2.57754e-19
2.57754e-19
2.57753e-19
1.63926e-19
1.63923e-19
1.63923e-19
1.63923e-19
9.2489e-20
9.24875e-20
9.24878e-20
9.24879e-20
4.34868e-20
4.34864e-20
4.34866e-20
4.34866e-20
1.48059e-20
1.48059e-20
1.48059e-20
1.48059e-20
2.5539e-21
2.5539e-21
2.5539e-21
2.5539e-21
2.10988e-18
2.10998e-18
2.10989e-18
2.10988e-18
1.81559e-18
1.81567e-18
1.8156e-18
1.81559e-18
1.54296e-18
1.54303e-18
1.54296e-18
1.54296e-18
1.29233e-18
1.29238e-18
1.29233e-18
1.29233e-18
1.0639e-18
1.06393e-18
1.0639e-18
1.0639e-18
8.578e-19
8.5782e-19
8.57797e-19
8.57799e-19
6.74094e-19
6.74106e-19
6.74091e-19
6.74095e-19
5.12832e-19
5.12839e-19
5.12829e-19
5.12832e-19
3.74048e-19
3.74053e-19
3.74045e-19
3.74047e-19
2.57754e-19
2.57757e-19
2.57753e-19
2.57753e-19
1.63923e-19
1.63924e-19
1.63923e-19
1.63923e-19
9.24879e-20
9.24884e-20
9.24879e-20
9.24876e-20
4.34866e-20
4.34867e-20
4.34866e-20
4.34865e-20
1.48059e-20
1.48059e-20
1.48059e-20
1.48059e-20
2.5539e-21
2.5539e-21
2.5539e-21
2.5539e-21
)
;

boundaryField
{
    topWall
    {
        type            nutkWallFunction;
        Cmu             0.09;
        kappa           0.41;
        E               9.8;
        value           uniform 0;
    }
    botWall
    {
        type            nutkWallFunction;
        Cmu             0.09;
        kappa           0.41;
        E               9.8;
        value           nonuniform List<scalar> 0();
    }
    inlet
    {
        type            cyclic;
    }
    outlet
    {
        type            cyclic;
    }
    fixWall
    {
        type            empty;
    }
    procBoundary7to6
    {
        type            processor;
        value           nonuniform List<scalar> 8(2.42548e-18 2.42551e-18 2.42549e-18 2.42545e-18 2.42543e-18 2.42555e-18 2.42545e-18 2.42543e-18);
    }
}


// ************************************************************************* //
