/*--------------------------------*- C++ -*----------------------------------*\
  =========                 |
  \\      /  F ield         | OpenFOAM: The Open Source CFD Toolbox
   \\    /   O peration     | Website:  https://openfoam.org
    \\  /    A nd           | Version:  dev
     \\/     M anipulation  |

   OpenFOAM for Windows 20.09 (v1)
   Built by CFD Support, www.cfdsupport.com (based on Symscape).
\*---------------------------------------------------------------------------*/
FoamFile
{
    version     2.0;
    format      ascii;
    class       volScalarField;
    location    "2";
    object      omega;
}
// * * * * * * * * * * * * * * * * * * * * * * * * * * * * * * * * * * * * * //

dimensions      [0 0 -1 0 0 0 0];

internalField   nonuniform List<scalar> 
120
(
105.237
105.237
105.238
105.239
122.294
122.295
122.297
122.298
143.903
143.904
143.906
143.907
171.811
171.813
171.815
171.817
208.701
208.704
208.706
208.708
258.847
258.85
258.852
258.855
329.389
329.394
329.395
329.399
432.967
432.975
432.976
432.981
593.612
593.626
593.626
593.631
861.44
861.461
861.46
861.464
1354.54
1354.57
1354.57
1354.57
2400.77
2400.81
2400.8
2400.8
5106.02
5106.06
5106.05
5106.05
14997
14997.1
14997
14997
86943.4
86943.4
86943.4
86943.4
105.24
105.235
105.24
105.24
122.299
122.293
122.299
122.299
143.908
143.902
143.908
143.908
171.817
171.811
171.817
171.817
208.708
208.701
208.708
208.708
258.854
258.848
258.855
258.854
329.397
329.391
329.399
329.397
432.977
432.971
432.98
432.977
593.627
593.619
593.631
593.628
861.46
861.45
861.464
861.462
1354.57
1354.55
1354.57
1354.57
2400.8
2400.78
2400.8
2400.8
5106.05
5106.03
5106.05
5106.06
14997
14997
14997
14997.1
86943.4
86943.4
86943.4
86943.4
)
;

boundaryField
{
    topWall
    {
        beta1           0.075;
        blended         0;
        type            omegaWallFunction;
        value           nonuniform List<scalar> 8(86943.4 86943.4 86943.4 86943.4 86943.4 86943.4 86943.4 86943.4);
    }
    botWall
    {
        beta1           0.075;
        blended         0;
        type            omegaWallFunction;
        value           nonuniform List<scalar> 0();
    }
    inlet
    {
        type            cyclic;
    }
    outlet
    {
        type            cyclic;
    }
    fixWall
    {
        type            empty;
    }
    procBoundary7to6
    {
        type            processor;
        value           nonuniform List<scalar> 8(91.5465 91.5456 91.5464 91.5476 91.5485 91.544 91.5479 91.5487);
    }
}


// ************************************************************************* //
