/*--------------------------------*- C++ -*----------------------------------*\
  =========                 |
  \\      /  F ield         | OpenFOAM: The Open Source CFD Toolbox
   \\    /   O peration     | Website:  https://openfoam.org
    \\  /    A nd           | Version:  dev
     \\/     M anipulation  |

   OpenFOAM for Windows 20.09 (v1)
   Built by CFD Support, www.cfdsupport.com (based on Symscape).
\*---------------------------------------------------------------------------*/
FoamFile
{
    version     2.0;
    format      ascii;
    class       volScalarField;
    location    "2";
    object      p;
}
// * * * * * * * * * * * * * * * * * * * * * * * * * * * * * * * * * * * * * //

dimensions      [1 -1 -2 0 0 0 0];

internalField   nonuniform List<scalar> 
120
(
-5.23835
-5.30084
-5.36307
-5.42517
-5.24652
-5.30902
-5.37125
-5.43335
-5.2547
-5.31719
-5.37942
-5.44152
-5.26287
-5.32536
-5.3876
-5.4497
-5.27105
-5.33354
-5.39577
-5.45787
-5.27922
-5.34171
-5.40394
-5.46605
-5.2874
-5.34988
-5.41212
-5.47422
-5.29557
-5.35806
-5.42029
-5.4824
-5.30375
-5.36623
-5.42847
-5.49058
-5.31192
-5.37441
-5.43664
-5.49875
-5.3201
-5.38258
-5.44482
-5.50693
-5.32827
-5.39076
-5.45299
-5.5151
-5.33645
-5.39893
-5.46117
-5.52328
-5.34462
-5.40711
-5.46934
-5.53145
-5.3528
-5.41528
-5.47752
-5.53963
-5.48758
-5.55022
-5.61312
-5.67582
-5.49576
-5.5584
-5.62129
-5.684
-5.50393
-5.56658
-5.62946
-5.69217
-5.51211
-5.57475
-5.63764
-5.70034
-5.52029
-5.58293
-5.64581
-5.70852
-5.52846
-5.5911
-5.65399
-5.71669
-5.53664
-5.59928
-5.66216
-5.72487
-5.54482
-5.60745
-5.67033
-5.73304
-5.55299
-5.61563
-5.67851
-5.74122
-5.56117
-5.6238
-5.68668
-5.74939
-5.56934
-5.63198
-5.69486
-5.75757
-5.57752
-5.64015
-5.70303
-5.76574
-5.58569
-5.64833
-5.71121
-5.77392
-5.59387
-5.6565
-5.71938
-5.78209
-5.60205
-5.66468
-5.72756
-5.79027
)
;

boundaryField
{
    topWall
    {
        type            calculated;
        value           nonuniform List<scalar> 8(-5.35688 -5.41937 -5.4816 -5.54372 -5.60613 -5.66876 -5.73165 -5.79436);
    }
    botWall
    {
        type            calculated;
        value           nonuniform List<scalar> 0();
    }
    inlet
    {
        type            cyclic;
    }
    outlet
    {
        type            cyclic;
    }
    fixWall
    {
        type            empty;
    }
    procBoundary7to6
    {
        type            processor;
        value           nonuniform List<scalar> 8(-5.23017 -5.29267 -5.3549 -5.41699 -5.47941 -5.54205 -5.60494 -5.66764);
    }
}


// ************************************************************************* //
