/*--------------------------------*- C++ -*----------------------------------*\
  =========                 |
  \\      /  F ield         | OpenFOAM: The Open Source CFD Toolbox
   \\    /   O peration     | Website:  https://openfoam.org
    \\  /    A nd           | Version:  dev
     \\/     M anipulation  |

   OpenFOAM for Windows 20.09 (v1)
   Built by CFD Support, www.cfdsupport.com (based on Symscape).
\*---------------------------------------------------------------------------*/
FoamFile
{
    version     2.0;
    format      ascii;
    class       surfaceScalarField;
    location    "2";
    object      phi;
}
// * * * * * * * * * * * * * * * * * * * * * * * * * * * * * * * * * * * * * //

dimensions      [0 3 -1 0 0 0 0];

internalField   nonuniform List<scalar> 
217
(
1.34941e-07
2.98671e-10
1.34959e-07
9.66218e-11
1.34938e-07
-7.97286e-11
-1.35973e-10
1.34937e-07
1.33607e-07
2.90546e-10
1.33619e-07
8.44274e-11
1.33605e-07
-6.5652e-11
-1.34397e-10
1.33603e-07
1.31845e-07
2.74327e-10
1.3186e-07
6.97227e-11
1.31846e-07
-5.14191e-11
-1.26919e-10
1.31838e-07
1.29541e-07
2.55386e-10
1.29551e-07
5.93253e-11
1.29542e-07
-4.17813e-11
-1.22396e-10
1.29537e-07
1.26556e-07
2.28922e-10
1.26567e-07
4.84434e-11
1.26559e-07
-3.40442e-11
-1.11101e-10
1.26548e-07
1.22742e-07
1.97913e-10
1.22752e-07
3.86971e-11
1.22746e-07
-2.78088e-11
-9.63808e-11
1.22731e-07
1.17911e-07
1.64032e-10
1.17923e-07
2.69419e-11
1.17918e-07
-2.33706e-11
-7.6155e-11
1.17898e-07
1.11862e-07
1.28715e-10
1.11872e-07
1.67703e-11
1.11864e-07
-1.5414e-11
-5.59184e-11
1.11844e-07
1.04358e-07
9.5982e-11
1.04369e-07
5.92358e-12
1.04364e-07
-1.07611e-11
-3.43474e-11
1.04343e-07
9.51467e-08
6.73861e-11
9.5154e-08
-1.35112e-12
9.51499e-08
-6.58737e-12
-1.74489e-11
9.51329e-08
8.39463e-08
4.46116e-11
8.39497e-08
-4.71919e-12
8.3948e-08
-4.85143e-12
-5.68475e-12
8.39362e-08
7.04571e-08
2.61777e-11
7.04579e-08
-5.48658e-12
7.04565e-08
-3.36761e-12
1.12088e-12
7.04496e-08
5.4356e-08
1.21983e-11
5.43555e-08
-4.87941e-12
5.43548e-08
-2.669e-12
4.22737e-12
5.43516e-08
3.53058e-08
3.01782e-12
3.53039e-08
-2.8894e-12
3.53028e-08
-1.50044e-12
3.19713e-12
3.53037e-08
1.29577e-08
1.29548e-08
1.29533e-08
1.29565e-08
1.34949e-07
-9.6681e-11
1.34959e-07
2.53358e-10
1.34954e-07
-1.71759e-10
-1.64591e-10
1.33607e-07
-9.99988e-11
1.33615e-07
2.45037e-10
1.33614e-07
-1.70907e-10
-1.4915e-10
1.31835e-07
-9.66594e-11
1.31844e-07
2.35555e-10
1.31842e-07
-1.68761e-10
-1.35934e-10
1.29532e-07
-9.14304e-11
1.2954e-07
2.27927e-10
1.29532e-07
-1.61145e-10
-1.2594e-10
1.2654e-07
-8.30882e-11
1.26557e-07
2.10408e-10
1.26543e-07
-1.47183e-10
-1.1238e-10
1.22721e-07
-7.37028e-11
1.22743e-07
1.88477e-10
1.22724e-07
-1.28173e-10
-9.90117e-11
1.17886e-07
-6.12428e-11
1.17912e-07
1.6156e-10
1.17892e-07
-1.07558e-10
-8.41741e-11
1.11834e-07
-5.15805e-11
1.11862e-07
1.3357e-10
1.11841e-07
-8.62293e-11
-6.98587e-11
1.04331e-07
-3.94065e-11
1.04359e-07
1.04847e-10
1.0434e-07
-6.66677e-11
-5.55025e-11
9.51228e-08
-2.92034e-11
9.51495e-08
7.81006e-11
9.51316e-08
-4.87817e-11
-4.20379e-11
8.39264e-08
-1.93375e-11
8.39506e-08
5.39001e-11
8.39357e-08
-3.39375e-11
-2.9901e-11
7.04415e-08
-1.11908e-11
7.04616e-08
3.37418e-11
7.04491e-08
-2.14492e-11
-1.94636e-11
5.43444e-08
-3.87896e-12
5.43602e-08
1.78769e-11
5.43506e-08
-1.17846e-11
-1.10082e-11
3.52998e-08
1.35168e-13
3.53114e-08
6.18361e-12
3.53037e-08
-4.08095e-12
-3.98314e-12
1.29567e-08
1.29628e-08
1.29587e-08
)
;

boundaryField
{
    topWall
    {
        type            calculated;
        value           uniform 0;
    }
    botWall
    {
        type            calculated;
        value           nonuniform List<scalar> 0();
    }
    inlet
    {
        type            cyclic;
        value           nonuniform List<scalar> 
15
(
-1.34932e-07
-1.33599e-07
-1.31829e-07
-1.29522e-07
-1.2653e-07
-1.22711e-07
-1.17877e-07
-1.11827e-07
-1.04325e-07
-9.51182e-08
-8.39236e-08
-7.04388e-08
-5.43422e-08
-3.52967e-08
-1.29548e-08
)
;
    }
    outlet
    {
        type            cyclic;
        value           nonuniform List<scalar> 
15
(
1.34932e-07
1.33599e-07
1.31829e-07
1.29522e-07
1.2653e-07
1.22711e-07
1.17877e-07
1.11827e-07
1.04325e-07
9.51182e-08
8.39236e-08
7.04388e-08
5.43422e-08
3.52967e-08
1.29548e-08
)
;
    }
    fixWall
    {
        type            empty;
        value           nonuniform List<scalar> 0();
    }
    procBoundary7to6
    {
        type            processor;
        value           nonuniform List<scalar> 8(-3.07863e-10 -1.14431e-10 1.00861e-10 1.38152e-10 8.20853e-11 -2.62428e-10 1.7565e-10 1.83014e-10);
    }
}


// ************************************************************************* //
