/*--------------------------------*- C++ -*----------------------------------*\
  =========                 |
  \\      /  F ield         | OpenFOAM: The Open Source CFD Toolbox
   \\    /   O peration     | Website:  https://openfoam.org
    \\  /    A nd           | Version:  dev
     \\/     M anipulation  |

   OpenFOAM for Windows 20.09 (v1)
   Built by CFD Support, www.cfdsupport.com (based on Symscape).
\*---------------------------------------------------------------------------*/
FoamFile
{
    version     2.0;
    format      ascii;
    class       volSymmTensorField;
    location    "2";
    object      R;
}
// * * * * * * * * * * * * * * * * * * * * * * * * * * * * * * * * * * * * * //

dimensions      [0 2 -2 0 0 0 0];

internalField   nonuniform List<symmTensor> 
120
(
(1.48029e-16 3.53739e-18 -0 1.4803e-16 -0 1.4803e-16)
(1.48028e-16 3.54092e-18 -0 1.48032e-16 -0 1.4803e-16)
(1.48032e-16 3.54151e-18 -0 1.48027e-16 -0 1.4803e-16)
(1.4803e-16 3.52583e-18 -0 1.4803e-16 -0 1.4803e-16)
(1.48029e-16 4.04426e-18 -0 1.48031e-16 -0 1.48029e-16)
(1.48029e-16 4.05057e-18 -0 1.48031e-16 -0 1.4803e-16)
(1.48031e-16 4.05092e-18 -0 1.48029e-16 -0 1.4803e-16)
(1.4803e-16 4.034e-18 -0 1.4803e-16 -0 1.4803e-16)
(1.48029e-16 4.51666e-18 -0 1.48031e-16 -0 1.4803e-16)
(1.48029e-16 4.51774e-18 -0 1.48031e-16 -0 1.4803e-16)
(1.48031e-16 4.52081e-18 -0 1.48029e-16 -0 1.4803e-16)
(1.4803e-16 4.50774e-18 -0 1.48029e-16 -0 1.4803e-16)
(1.48029e-16 4.91935e-18 -0 1.48031e-16 -0 1.4803e-16)
(1.48029e-16 4.92359e-18 -0 1.48031e-16 -0 1.4803e-16)
(1.4803e-16 4.92655e-18 -0 1.48029e-16 -0 1.4803e-16)
(1.4803e-16 4.91135e-18 -0 1.48029e-16 -0 1.4803e-16)
(1.48028e-16 5.20831e-18 -0 1.48031e-16 -0 1.4803e-16)
(1.48029e-16 5.20788e-18 -0 1.4803e-16 -0 1.4803e-16)
(1.4803e-16 5.20934e-18 -0 1.48029e-16 -0 1.4803e-16)
(1.4803e-16 5.20252e-18 -0 1.48029e-16 -0 1.4803e-16)
(1.48029e-16 5.33944e-18 -0 1.48031e-16 -0 1.4803e-16)
(1.48029e-16 5.33978e-18 -0 1.4803e-16 -0 1.4803e-16)
(1.4803e-16 5.33835e-18 -0 1.48029e-16 -0 1.4803e-16)
(1.4803e-16 5.33556e-18 -0 1.48029e-16 -0 1.4803e-16)
(1.48029e-16 5.28123e-18 -0 1.48031e-16 -0 1.4803e-16)
(1.48029e-16 5.28016e-18 -0 1.4803e-16 -0 1.4803e-16)
(1.4803e-16 5.28076e-18 -0 1.4803e-16 -0 1.4803e-16)
(1.4803e-16 5.28173e-18 -0 1.48029e-16 -0 1.4803e-16)
(1.48029e-16 5.00386e-18 -0 1.48031e-16 -0 1.4803e-16)
(1.48029e-16 5.00468e-18 -0 1.4803e-16 -0 1.4803e-16)
(1.4803e-16 5.00446e-18 -0 1.4803e-16 -0 1.4803e-16)
(1.4803e-16 5.00476e-18 -0 1.48029e-16 -0 1.4803e-16)
(1.48029e-16 4.50058e-18 -0 1.4803e-16 -0 1.4803e-16)
(1.4803e-16 4.50282e-18 -0 1.4803e-16 -0 1.4803e-16)
(1.4803e-16 4.50206e-18 -0 1.4803e-16 -0 1.4803e-16)
(1.4803e-16 4.50073e-18 -0 1.48029e-16 -0 1.4803e-16)
(1.48029e-16 3.78698e-18 -0 1.4803e-16 -0 1.4803e-16)
(1.4803e-16 3.78927e-18 -0 1.4803e-16 -0 1.4803e-16)
(1.4803e-16 3.78968e-18 -0 1.4803e-16 -0 1.4803e-16)
(1.4803e-16 3.78817e-18 -0 1.4803e-16 -0 1.4803e-16)
(1.4803e-16 2.91333e-18 -0 1.4803e-16 -0 1.4803e-16)
(1.4803e-16 2.91467e-18 -0 1.4803e-16 -0 1.4803e-16)
(1.4803e-16 2.91482e-18 -0 1.4803e-16 -0 1.4803e-16)
(1.4803e-16 2.91404e-18 -0 1.4803e-16 -0 1.4803e-16)
(1.4803e-16 1.9702e-18 -0 1.4803e-16 -0 1.4803e-16)
(1.4803e-16 1.97072e-18 -0 1.4803e-16 -0 1.4803e-16)
(1.4803e-16 1.97071e-18 -0 1.4803e-16 -0 1.4803e-16)
(1.4803e-16 1.97059e-18 -0 1.4803e-16 -0 1.4803e-16)
(1.4803e-16 1.10049e-18 -0 1.4803e-16 -0 1.4803e-16)
(1.4803e-16 1.10071e-18 -0 1.4803e-16 -0 1.4803e-16)
(1.4803e-16 1.10065e-18 -0 1.4803e-16 -0 1.4803e-16)
(1.4803e-16 1.1007e-18 -0 1.4803e-16 -0 1.4803e-16)
(1.4803e-16 4.41266e-19 -0 1.4803e-16 -0 1.4803e-16)
(1.4803e-16 4.41355e-19 -0 1.4803e-16 -0 1.4803e-16)
(1.4803e-16 4.41334e-19 -0 1.4803e-16 -0 1.4803e-16)
(1.4803e-16 4.41389e-19 -0 1.4803e-16 -0 1.4803e-16)
(1.4803e-16 8.87366e-20 -0 1.4803e-16 -0 1.4803e-16)
(1.4803e-16 8.87482e-20 -0 1.4803e-16 -0 1.4803e-16)
(1.4803e-16 8.87345e-20 -0 1.4803e-16 -0 1.4803e-16)
(1.4803e-16 8.87529e-20 -0 1.4803e-16 -0 1.4803e-16)
(1.48029e-16 3.57335e-18 -0 1.48031e-16 -0 1.4803e-16)
(1.48029e-16 3.59891e-18 -0 1.48031e-16 -0 1.4803e-16)
(1.4803e-16 3.57737e-18 -0 1.48029e-16 -0 1.4803e-16)
(1.48032e-16 3.56468e-18 -0 1.48027e-16 -0 1.4803e-16)
(1.48029e-16 4.06638e-18 -0 1.4803e-16 -0 1.4803e-16)
(1.48029e-16 4.07522e-18 -0 1.48031e-16 -0 1.4803e-16)
(1.48029e-16 4.06671e-18 -0 1.4803e-16 -0 1.4803e-16)
(1.48031e-16 4.06896e-18 -0 1.48028e-16 -0 1.4803e-16)
(1.4803e-16 4.52708e-18 -0 1.48029e-16 -0 1.4803e-16)
(1.48029e-16 4.5267e-18 -0 1.4803e-16 -0 1.4803e-16)
(1.4803e-16 4.52886e-18 -0 1.4803e-16 -0 1.4803e-16)
(1.48031e-16 4.54149e-18 -0 1.48029e-16 -0 1.4803e-16)
(1.4803e-16 4.93344e-18 -0 1.48029e-16 -0 1.4803e-16)
(1.48029e-16 4.92071e-18 -0 1.4803e-16 -0 1.4803e-16)
(1.4803e-16 4.9187e-18 -0 1.48029e-16 -0 1.4803e-16)
(1.4803e-16 4.94246e-18 -0 1.48029e-16 -0 1.4803e-16)
(1.4803e-16 5.22483e-18 -0 1.48029e-16 -0 1.4803e-16)
(1.48029e-16 5.20895e-18 -0 1.48031e-16 -0 1.4803e-16)
(1.4803e-16 5.20308e-18 -0 1.48029e-16 -0 1.4803e-16)
(1.4803e-16 5.22621e-18 -0 1.48029e-16 -0 1.4803e-16)
(1.4803e-16 5.3493e-18 -0 1.48029e-16 -0 1.4803e-16)
(1.48029e-16 5.34074e-18 -0 1.48031e-16 -0 1.4803e-16)
(1.4803e-16 5.3378e-18 -0 1.48029e-16 -0 1.4803e-16)
(1.4803e-16 5.34881e-18 -0 1.48029e-16 -0 1.4803e-16)
(1.4803e-16 5.28603e-18 -0 1.48029e-16 -0 1.4803e-16)
(1.48029e-16 5.28211e-18 -0 1.48031e-16 -0 1.4803e-16)
(1.4803e-16 5.28021e-18 -0 1.48029e-16 -0 1.4803e-16)
(1.4803e-16 5.28426e-18 -0 1.48029e-16 -0 1.4803e-16)
(1.4803e-16 5.00541e-18 -0 1.48029e-16 -0 1.4803e-16)
(1.48029e-16 5.00464e-18 -0 1.4803e-16 -0 1.4803e-16)
(1.4803e-16 5.0041e-18 -0 1.48029e-16 -0 1.4803e-16)
(1.4803e-16 5.00378e-18 -0 1.48029e-16 -0 1.4803e-16)
(1.4803e-16 4.50025e-18 -0 1.4803e-16 -0 1.4803e-16)
(1.48029e-16 4.5011e-18 -0 1.4803e-16 -0 1.4803e-16)
(1.4803e-16 4.50093e-18 -0 1.48029e-16 -0 1.4803e-16)
(1.4803e-16 4.49918e-18 -0 1.48029e-16 -0 1.4803e-16)
(1.4803e-16 3.78603e-18 -0 1.4803e-16 -0 1.4803e-16)
(1.48029e-16 3.78737e-18 -0 1.4803e-16 -0 1.4803e-16)
(1.4803e-16 3.78771e-18 -0 1.4803e-16 -0 1.4803e-16)
(1.4803e-16 3.78556e-18 -0 1.4803e-16 -0 1.4803e-16)
(1.4803e-16 2.91244e-18 -0 1.4803e-16 -0 1.4803e-16)
(1.4803e-16 2.91358e-18 -0 1.4803e-16 -0 1.4803e-16)
(1.4803e-16 2.914e-18 -0 1.4803e-16 -0 1.4803e-16)
(1.4803e-16 2.91227e-18 -0 1.4803e-16 -0 1.4803e-16)
(1.4803e-16 1.96956e-18 -0 1.4803e-16 -0 1.4803e-16)
(1.4803e-16 1.97026e-18 -0 1.4803e-16 -0 1.4803e-16)
(1.4803e-16 1.97067e-18 -0 1.4803e-16 -0 1.4803e-16)
(1.4803e-16 1.96955e-18 -0 1.4803e-16 -0 1.4803e-16)
(1.4803e-16 1.10016e-18 -0 1.4803e-16 -0 1.4803e-16)
(1.4803e-16 1.10044e-18 -0 1.4803e-16 -0 1.4803e-16)
(1.4803e-16 1.10069e-18 -0 1.4803e-16 -0 1.4803e-16)
(1.4803e-16 1.10014e-18 -0 1.4803e-16 -0 1.4803e-16)
(1.4803e-16 4.41171e-19 -0 1.4803e-16 -0 1.4803e-16)
(1.4803e-16 4.41238e-19 -0 1.4803e-16 -0 1.4803e-16)
(1.4803e-16 4.41353e-19 -0 1.4803e-16 -0 1.4803e-16)
(1.4803e-16 4.41141e-19 -0 1.4803e-16 -0 1.4803e-16)
(1.4803e-16 8.87252e-20 -0 1.4803e-16 -0 1.4803e-16)
(1.4803e-16 8.87448e-20 -0 1.4803e-16 -0 1.4803e-16)
(1.4803e-16 8.87698e-20 -0 1.4803e-16 -0 1.4803e-16)
(1.4803e-16 8.87202e-20 -0 1.4803e-16 -0 1.4803e-16)
)
;

boundaryField
{
    topWall
    {
        type            kqRWallFunction;
        value           uniform (1.4803e-16 0 -0 1.4803e-16 -0 1.4803e-16);
    }
    botWall
    {
        type            kqRWallFunction;
        value           nonuniform List<symmTensor> 0();
    }
    inlet
    {
        type            cyclic;
    }
    outlet
    {
        type            cyclic;
    }
    fixWall
    {
        type            empty;
    }
    procBoundary7to6
    {
        type            processor;
        value           nonuniform List<symmTensor> 8((1.4803e-16 3.02888e-18 -0 1.4803e-16 -0 1.48029e-16) (1.48028e-16 3.0224e-18 -0 1.48031e-16 -0 1.4803e-16) (1.48031e-16 3.02179e-18 -0 1.48028e-16 -0 1.4803e-16) (1.48029e-16 3.01523e-18 -0 1.48031e-16 -0 1.48029e-16) (1.48026e-16 3.07395e-18 -0 1.48033e-16 -0 1.4803e-16) (1.48029e-16 3.09604e-18 -0 1.48031e-16 -0 1.48029e-16) (1.48031e-16 3.06557e-18 -0 1.48029e-16 -0 1.4803e-16) (1.48033e-16 3.05721e-18 -0 1.48026e-16 -0 1.4803e-16));
    }
}


// ************************************************************************* //
