/*--------------------------------*- C++ -*----------------------------------*\
  =========                 |
  \\      /  F ield         | OpenFOAM: The Open Source CFD Toolbox
   \\    /   O peration     | Website:  https://openfoam.org
    \\  /    A nd           | Version:  dev
     \\/     M anipulation  |

   OpenFOAM for Windows 20.09 (v1)
   Built by CFD Support, www.cfdsupport.com (based on Symscape).
\*---------------------------------------------------------------------------*/
FoamFile
{
    version     2.0;
    format      ascii;
    class       volVectorField;
    location    "2";
    object      U;
}
// * * * * * * * * * * * * * * * * * * * * * * * * * * * * * * * * * * * * * //

dimensions      [0 1 -1 0 0 0 0];

internalField   nonuniform List<vector> 
120
(
(0.161902 5.97946e-06 0)
(0.161953 2.03626e-06 0)
(0.16195 -1.92764e-06 0)
(0.161909 -2.76736e-06 0)
(0.160307 6.30889e-06 0)
(0.160345 1.71758e-06 0)
(0.160343 -1.2154e-06 0)
(0.160317 -2.75184e-06 0)
(0.15819 5.43028e-06 0)
(0.158235 1.71453e-06 0)
(0.158232 -1.40876e-06 0)
(0.158206 -2.7511e-06 0)
(0.155428 5.51878e-06 0)
(0.155465 1.2586e-06 0)
(0.15546 -7.26378e-07 0)
(0.155448 -2.49335e-06 0)
(0.151846 4.69715e-06 0)
(0.151885 1.1496e-06 0)
(0.151878 -9.07945e-07 0)
(0.151872 -2.35563e-06 0)
(0.147269 4.42863e-06 0)
(0.147307 8.19502e-07 0)
(0.147299 -4.54671e-07 0)
(0.147298 -2.08837e-06 0)
(0.141471 3.52113e-06 0)
(0.141511 6.90021e-07 0)
(0.141506 -6.34808e-07 0)
(0.141506 -1.76332e-06 0)
(0.134212 2.99593e-06 0)
(0.134252 4.1071e-07 0)
(0.134243 -2.94221e-07 0)
(0.134239 -1.29556e-06 0)
(0.12521 2.18569e-06 0)
(0.125246 2.32846e-07 0)
(0.125242 -3.22214e-07 0)
(0.12524 -9.16373e-07 0)
(0.114159 1.63485e-06 0)
(0.114189 2.1624e-08 0)
(0.114183 -1.19827e-07 0)
(0.114185 -4.80427e-07 0)
(0.100723 1.0933e-06 0)
(0.100744 -7.52817e-08 0)
(0.100738 -1.44963e-07 0)
(0.100746 -2.18957e-07 0)
(0.0845387 6.79378e-07 0)
(0.0845545 -1.07822e-07 0)
(0.0845468 -5.53409e-08 0)
(0.0845566 -1.85921e-08 0)
(0.0652198 3.72675e-07 0)
(0.0652308 -1.17188e-07 0)
(0.0652246 -7.62027e-08 0)
(0.0652348 7.06766e-08 0)
(0.0423617 1.22263e-07 0)
(0.0423684 -9.91183e-08 0)
(0.0423632 -4.78189e-08 0)
(0.0423713 1.03703e-07 0)
(0.0155475 2.80015e-08 0)
(0.0155484 -1.81006e-08 0)
(0.0155446 -8.80678e-09 0)
(0.0155486 3.28082e-08 0)
(0.161937 -1.82858e-06 0)
(0.161941 5.14507e-06 0)
(0.161952 -3.48055e-06 0)
(0.161938 -3.44332e-06 0)
(0.16033 -1.94643e-06 0)
(0.160327 4.95743e-06 0)
(0.160341 -3.32926e-06 0)
(0.160333 -3.05713e-06 0)
(0.158204 -2.2375e-06 0)
(0.1582 4.66565e-06 0)
(0.158219 -3.63791e-06 0)
(0.158203 -2.7313e-06 0)
(0.155439 -1.72222e-06 0)
(0.155437 4.70016e-06 0)
(0.15545 -3.2052e-06 0)
(0.155427 -2.56644e-06 0)
(0.151841 -1.87159e-06 0)
(0.151855 4.38205e-06 0)
(0.151875 -3.20183e-06 0)
(0.151829 -2.41611e-06 0)
(0.147254 -1.53464e-06 0)
(0.147278 4.02217e-06 0)
(0.147299 -2.71346e-06 0)
(0.14724 -2.11183e-06 0)
(0.141448 -1.37957e-06 0)
(0.141478 3.50782e-06 0)
(0.141504 -2.41192e-06 0)
(0.141436 -1.83972e-06 0)
(0.134185 -1.10523e-06 0)
(0.134218 2.96401e-06 0)
(0.134244 -1.89728e-06 0)
(0.134174 -1.53371e-06 0)
(0.125181 -9.27838e-07 0)
(0.125214 2.37731e-06 0)
(0.125241 -1.55111e-06 0)
(0.125174 -1.25624e-06 0)
(0.114133 -6.67313e-07 0)
(0.114163 1.81916e-06 0)
(0.114189 -1.12115e-06 0)
(0.114127 -9.66575e-07 0)
(0.1007 -4.88e-07 0)
(0.100724 1.30746e-06 0)
(0.100749 -8.31019e-07 0)
(0.100696 -7.13721e-07 0)
(0.0845208 -2.92567e-07 0)
(0.0845394 8.49696e-07 0)
(0.0845609 -5.30185e-07 0)
(0.0845169 -4.81171e-07 0)
(0.0652075 -1.44516e-07 0)
(0.0652197 5.02237e-07 0)
(0.0652373 -3.28645e-07 0)
(0.0652039 -3.00195e-07 0)
(0.042356 1.04795e-08 0)
(0.042364 2.19576e-07 0)
(0.0423757 -1.55451e-07 0)
(0.042353 -1.40192e-07 0)
(0.0155458 -1.40809e-08 0)
(0.0155506 4.36981e-08 0)
(0.0155552 -3.30939e-08 0)
(0.0155456 -3.50724e-08 0)
)
;

boundaryField
{
    topWall
    {
        type            noSlip;
    }
    botWall
    {
        type            noSlip;
    }
    inlet
    {
        type            cyclic;
    }
    outlet
    {
        type            cyclic;
    }
    fixWall
    {
        type            empty;
    }
    procBoundary7to6
    {
        type            processor;
        value           nonuniform List<vector> 8((0.163101 6.17289e-06 0) (0.163142 2.43002e-06 0) (0.16314 -2.21985e-06 0) (0.163102 -2.71827e-06 0) (0.163152 -1.55164e-06 0) (0.16317 5.36258e-06 0) (0.163167 -3.66214e-06 0) (0.163149 -4.00153e-06 0));
    }
}


// ************************************************************************* //
