/*--------------------------------*- C++ -*----------------------------------*\
  =========                 |
  \\      /  F ield         | OpenFOAM: The Open Source CFD Toolbox
   \\    /   O peration     | Website:  https://openfoam.org
    \\  /    A nd           | Version:  dev
     \\/     M anipulation  |

   OpenFOAM for Windows 20.09 (v1)
   Built by CFD Support, www.cfdsupport.com (based on Symscape).
\*---------------------------------------------------------------------------*/
FoamFile
{
    version     2.0;
    format      ascii;
    class       volScalarField;
    location    "90";
    object      epsilon;
}
// * * * * * * * * * * * * * * * * * * * * * * * * * * * * * * * * * * * * * //

dimensions      [0 2 -3 0 0 0 0];

internalField   nonuniform List<scalar> 
1600
(
2.17993e-05
2.17993e-05
2.17993e-05
2.17993e-05
2.17994e-05
2.17995e-05
2.17995e-05
2.17996e-05
2.17996e-05
2.17997e-05
2.17997e-05
2.17998e-05
2.17998e-05
2.17999e-05
2.17999e-05
2.18e-05
2.18e-05
2.18001e-05
2.18001e-05
2.18001e-05
2.18001e-05
2.18001e-05
2.18e-05
2.17999e-05
2.17998e-05
2.17997e-05
2.17996e-05
2.17995e-05
2.17994e-05
2.17992e-05
2.17992e-05
2.17992e-05
2.17992e-05
2.17992e-05
2.17992e-05
2.17992e-05
2.17992e-05
2.17992e-05
2.17992e-05
2.17993e-05
1.67169e-05
1.67169e-05
1.67169e-05
1.67169e-05
1.67169e-05
1.67169e-05
1.6717e-05
1.6717e-05
1.6717e-05
1.6717e-05
1.67171e-05
1.67171e-05
1.67171e-05
1.67171e-05
1.67172e-05
1.67172e-05
1.67172e-05
1.67172e-05
1.67172e-05
1.67172e-05
1.67172e-05
1.67172e-05
1.67172e-05
1.67171e-05
1.67171e-05
1.67171e-05
1.6717e-05
1.6717e-05
1.6717e-05
1.67169e-05
1.67169e-05
1.67169e-05
1.67169e-05
1.67169e-05
1.67169e-05
1.67169e-05
1.67169e-05
1.67169e-05
1.67169e-05
1.67169e-05
1.2411e-05
1.2411e-05
1.2411e-05
1.2411e-05
1.2411e-05
1.24111e-05
1.24111e-05
1.24111e-05
1.24111e-05
1.24111e-05
1.24111e-05
1.24112e-05
1.24112e-05
1.24112e-05
1.24112e-05
1.24112e-05
1.24112e-05
1.24112e-05
1.24112e-05
1.24112e-05
1.24112e-05
1.24112e-05
1.24112e-05
1.24112e-05
1.24112e-05
1.24112e-05
1.24111e-05
1.24111e-05
1.24111e-05
1.2411e-05
1.2411e-05
1.2411e-05
1.2411e-05
1.2411e-05
1.2411e-05
1.2411e-05
1.2411e-05
1.2411e-05
1.2411e-05
1.24111e-05
9.88969e-06
9.88967e-06
9.88967e-06
9.88967e-06
9.88968e-06
9.88969e-06
9.8897e-06
9.88971e-06
9.88972e-06
9.88973e-06
9.88973e-06
9.88974e-06
9.88975e-06
9.88976e-06
9.88977e-06
9.88978e-06
9.8898e-06
9.8898e-06
9.88981e-06
9.88981e-06
9.88981e-06
9.88981e-06
9.8898e-06
9.88978e-06
9.88976e-06
9.88975e-06
9.88973e-06
9.88972e-06
9.88969e-06
9.88966e-06
9.88964e-06
9.88964e-06
9.88964e-06
9.88964e-06
9.88964e-06
9.88964e-06
9.88964e-06
9.88964e-06
9.88964e-06
9.88967e-06
8.33111e-06
8.33108e-06
8.3311e-06
8.3311e-06
8.3311e-06
8.33111e-06
8.33112e-06
8.33113e-06
8.33113e-06
8.33114e-06
8.33114e-06
8.33115e-06
8.33115e-06
8.33116e-06
8.33117e-06
8.33118e-06
8.33119e-06
8.3312e-06
8.3312e-06
8.33121e-06
8.33121e-06
8.33121e-06
8.3312e-06
8.33119e-06
8.33117e-06
8.33116e-06
8.33115e-06
8.33113e-06
8.33111e-06
8.3311e-06
8.33108e-06
8.33108e-06
8.33108e-06
8.33109e-06
8.33109e-06
8.33108e-06
8.33108e-06
8.33108e-06
8.33108e-06
8.33109e-06
7.31731e-06
7.31735e-06
7.31739e-06
7.31741e-06
7.31742e-06
7.31743e-06
7.31744e-06
7.31745e-06
7.31745e-06
7.31745e-06
7.31746e-06
7.31746e-06
7.31747e-06
7.31747e-06
7.31748e-06
7.31749e-06
7.3175e-06
7.31751e-06
7.31751e-06
7.31752e-06
7.31752e-06
7.31752e-06
7.31752e-06
7.31751e-06
7.31749e-06
7.31748e-06
7.31747e-06
7.31746e-06
7.31745e-06
7.31744e-06
7.31743e-06
7.31744e-06
7.31744e-06
7.31744e-06
7.31743e-06
7.31742e-06
7.31742e-06
7.31742e-06
7.31742e-06
7.3174e-06
6.63265e-06
6.6327e-06
6.63275e-06
6.63277e-06
6.63278e-06
6.6328e-06
6.6328e-06
6.63281e-06
6.63282e-06
6.63282e-06
6.63282e-06
6.63283e-06
6.63283e-06
6.63284e-06
6.63285e-06
6.63286e-06
6.63286e-06
6.63287e-06
6.63288e-06
6.63288e-06
6.63288e-06
6.63288e-06
6.63288e-06
6.63288e-06
6.63287e-06
6.63286e-06
6.63285e-06
6.63285e-06
6.63284e-06
6.63283e-06
6.63283e-06
6.63284e-06
6.63284e-06
6.63284e-06
6.63282e-06
6.6328e-06
6.6328e-06
6.63281e-06
6.63281e-06
6.63278e-06
6.15821e-06
6.15827e-06
6.15832e-06
6.15835e-06
6.15836e-06
6.15837e-06
6.15838e-06
6.15839e-06
6.1584e-06
6.1584e-06
6.15841e-06
6.15841e-06
6.15842e-06
6.15843e-06
6.15843e-06
6.15844e-06
6.15845e-06
6.15845e-06
6.15846e-06
6.15846e-06
6.15847e-06
6.15847e-06
6.15847e-06
6.15847e-06
6.15847e-06
6.15846e-06
6.15845e-06
6.15845e-06
6.15844e-06
6.15844e-06
6.15845e-06
6.15845e-06
6.15845e-06
6.15843e-06
6.15841e-06
6.15839e-06
6.1584e-06
6.1584e-06
6.1584e-06
6.15836e-06
5.82441e-06
5.82447e-06
5.82452e-06
5.82455e-06
5.82456e-06
5.82458e-06
5.82459e-06
5.8246e-06
5.8246e-06
5.82461e-06
5.82462e-06
5.82462e-06
5.82463e-06
5.82464e-06
5.82464e-06
5.82465e-06
5.82466e-06
5.82466e-06
5.82467e-06
5.82468e-06
5.82468e-06
5.82468e-06
5.82468e-06
5.82468e-06
5.82468e-06
5.82468e-06
5.82468e-06
5.82467e-06
5.82467e-06
5.82468e-06
5.82468e-06
5.82468e-06
5.82466e-06
5.82464e-06
5.82461e-06
5.8246e-06
5.8246e-06
5.82461e-06
5.82461e-06
5.82456e-06
5.58817e-06
5.58823e-06
5.58829e-06
5.58832e-06
5.58833e-06
5.58835e-06
5.58836e-06
5.58837e-06
5.58838e-06
5.58839e-06
5.5884e-06
5.58841e-06
5.58841e-06
5.58842e-06
5.58843e-06
5.58843e-06
5.58844e-06
5.58845e-06
5.58845e-06
5.58846e-06
5.58846e-06
5.58846e-06
5.58846e-06
5.58846e-06
5.58846e-06
5.58846e-06
5.58846e-06
5.58846e-06
5.58847e-06
5.58847e-06
5.58847e-06
5.58846e-06
5.58844e-06
5.58841e-06
5.58838e-06
5.58837e-06
5.58837e-06
5.58838e-06
5.58838e-06
5.58833e-06
5.42152e-06
5.42158e-06
5.42164e-06
5.42168e-06
5.4217e-06
5.42172e-06
5.42173e-06
5.42175e-06
5.42176e-06
5.42177e-06
5.42177e-06
5.42178e-06
5.42179e-06
5.4218e-06
5.4218e-06
5.42181e-06
5.42182e-06
5.42182e-06
5.42183e-06
5.42183e-06
5.42184e-06
5.42184e-06
5.42184e-06
5.42184e-06
5.42184e-06
5.42184e-06
5.42184e-06
5.42185e-06
5.42185e-06
5.42185e-06
5.42184e-06
5.42183e-06
5.4218e-06
5.42177e-06
5.42173e-06
5.42173e-06
5.42173e-06
5.42174e-06
5.42174e-06
5.42168e-06
5.30545e-06
5.30552e-06
5.30559e-06
5.30564e-06
5.30567e-06
5.30569e-06
5.3057e-06
5.30572e-06
5.30573e-06
5.30574e-06
5.30575e-06
5.30575e-06
5.30576e-06
5.30577e-06
5.30577e-06
5.30578e-06
5.30579e-06
5.30579e-06
5.3058e-06
5.3058e-06
5.3058e-06
5.30581e-06
5.30581e-06
5.30581e-06
5.30581e-06
5.30582e-06
5.30582e-06
5.30582e-06
5.30582e-06
5.30582e-06
5.30581e-06
5.30579e-06
5.30574e-06
5.30571e-06
5.30568e-06
5.30567e-06
5.30567e-06
5.30568e-06
5.30568e-06
5.30562e-06
5.22654e-06
5.22663e-06
5.22672e-06
5.22677e-06
5.2268e-06
5.22682e-06
5.22684e-06
5.22685e-06
5.22686e-06
5.22687e-06
5.22687e-06
5.22688e-06
5.22689e-06
5.22689e-06
5.2269e-06
5.2269e-06
5.22691e-06
5.22691e-06
5.22692e-06
5.22692e-06
5.22693e-06
5.22693e-06
5.22693e-06
5.22694e-06
5.22694e-06
5.22694e-06
5.22694e-06
5.22694e-06
5.22694e-06
5.22694e-06
5.22692e-06
5.22688e-06
5.22684e-06
5.2268e-06
5.22677e-06
5.22676e-06
5.22676e-06
5.22677e-06
5.22677e-06
5.22671e-06
5.17495e-06
5.17509e-06
5.17517e-06
5.17522e-06
5.17524e-06
5.17526e-06
5.17527e-06
5.17527e-06
5.17528e-06
5.17529e-06
5.17529e-06
5.1753e-06
5.1753e-06
5.17531e-06
5.17531e-06
5.17532e-06
5.17532e-06
5.17533e-06
5.17533e-06
5.17533e-06
5.17534e-06
5.17534e-06
5.17534e-06
5.17535e-06
5.17535e-06
5.17535e-06
5.17535e-06
5.17535e-06
5.17536e-06
5.17534e-06
5.17531e-06
5.17527e-06
5.17523e-06
5.17519e-06
5.17516e-06
5.17514e-06
5.17514e-06
5.17514e-06
5.17514e-06
5.17509e-06
5.14339e-06
5.14346e-06
5.14349e-06
5.14349e-06
5.14349e-06
5.1435e-06
5.1435e-06
5.14351e-06
5.14351e-06
5.14352e-06
5.14352e-06
5.14353e-06
5.14353e-06
5.14353e-06
5.14354e-06
5.14354e-06
5.14354e-06
5.14355e-06
5.14355e-06
5.14355e-06
5.14355e-06
5.14356e-06
5.14356e-06
5.14356e-06
5.14356e-06
5.14357e-06
5.14357e-06
5.14357e-06
5.14356e-06
5.14354e-06
5.14351e-06
5.14347e-06
5.14343e-06
5.1434e-06
5.14337e-06
5.14335e-06
5.14333e-06
5.14334e-06
5.14333e-06
5.14334e-06
5.12566e-06
5.12572e-06
5.12572e-06
5.12571e-06
5.12571e-06
5.12571e-06
5.12571e-06
5.12571e-06
5.12572e-06
5.12572e-06
5.12572e-06
5.12572e-06
5.12573e-06
5.12573e-06
5.12573e-06
5.12573e-06
5.12573e-06
5.12574e-06
5.12574e-06
5.12574e-06
5.12574e-06
5.12574e-06
5.12574e-06
5.12575e-06
5.12575e-06
5.12575e-06
5.12576e-06
5.12575e-06
5.12574e-06
5.12573e-06
5.12569e-06
5.12566e-06
5.12562e-06
5.12559e-06
5.12556e-06
5.12554e-06
5.12552e-06
5.12552e-06
5.12552e-06
5.12553e-06
5.11721e-06
5.11725e-06
5.11726e-06
5.11726e-06
5.11725e-06
5.11725e-06
5.11725e-06
5.11725e-06
5.11726e-06
5.11726e-06
5.11726e-06
5.11726e-06
5.11726e-06
5.11726e-06
5.11726e-06
5.11726e-06
5.11727e-06
5.11727e-06
5.11727e-06
5.11727e-06
5.11727e-06
5.11727e-06
5.11728e-06
5.11728e-06
5.11728e-06
5.11729e-06
5.11729e-06
5.11729e-06
5.11728e-06
5.11726e-06
5.11723e-06
5.1172e-06
5.11717e-06
5.11714e-06
5.11712e-06
5.11709e-06
5.11707e-06
5.11706e-06
5.11705e-06
5.11707e-06
5.11438e-06
5.11442e-06
5.11444e-06
5.11443e-06
5.11443e-06
5.11442e-06
5.11442e-06
5.11443e-06
5.11443e-06
5.11443e-06
5.11443e-06
5.11443e-06
5.11444e-06
5.11444e-06
5.11444e-06
5.11445e-06
5.11445e-06
5.11445e-06
5.11446e-06
5.11446e-06
5.11446e-06
5.11446e-06
5.11446e-06
5.11447e-06
5.11447e-06
5.11447e-06
5.11447e-06
5.11447e-06
5.11447e-06
5.11445e-06
5.11443e-06
5.11441e-06
5.11438e-06
5.11435e-06
5.11433e-06
5.1143e-06
5.11428e-06
5.11426e-06
5.11425e-06
5.11426e-06
5.11425e-06
5.11429e-06
5.11432e-06
5.11433e-06
5.11433e-06
5.11433e-06
5.11434e-06
5.11434e-06
5.11435e-06
5.11435e-06
5.11436e-06
5.11437e-06
5.11437e-06
5.11438e-06
5.11438e-06
5.11439e-06
5.11439e-06
5.1144e-06
5.1144e-06
5.1144e-06
5.11441e-06
5.11441e-06
5.11441e-06
5.11441e-06
5.11441e-06
5.11441e-06
5.11441e-06
5.11441e-06
5.11441e-06
5.1144e-06
5.11439e-06
5.11437e-06
5.11434e-06
5.11432e-06
5.11429e-06
5.11426e-06
5.11424e-06
5.11422e-06
5.1142e-06
5.11421e-06
5.11469e-06
5.11477e-06
5.11482e-06
5.11486e-06
5.11488e-06
5.11489e-06
5.11491e-06
5.11492e-06
5.11493e-06
5.11493e-06
5.11494e-06
5.11495e-06
5.11496e-06
5.11497e-06
5.11497e-06
5.11498e-06
5.11498e-06
5.11499e-06
5.11499e-06
5.11499e-06
5.115e-06
5.115e-06
5.115e-06
5.115e-06
5.115e-06
5.115e-06
5.115e-06
5.115e-06
5.115e-06
5.115e-06
5.11499e-06
5.11497e-06
5.11495e-06
5.11492e-06
5.11489e-06
5.11487e-06
5.11484e-06
5.11481e-06
5.1148e-06
5.11479e-06
5.11471e-06
5.1148e-06
5.11484e-06
5.11487e-06
5.11489e-06
5.11491e-06
5.11492e-06
5.11493e-06
5.11494e-06
5.11495e-06
5.11496e-06
5.11496e-06
5.11497e-06
5.11498e-06
5.11498e-06
5.11499e-06
5.11499e-06
5.115e-06
5.115e-06
5.115e-06
5.11501e-06
5.11501e-06
5.11501e-06
5.11501e-06
5.11501e-06
5.11501e-06
5.11501e-06
5.11501e-06
5.11501e-06
5.11501e-06
5.11501e-06
5.11499e-06
5.11497e-06
5.11494e-06
5.11491e-06
5.11488e-06
5.11485e-06
5.11482e-06
5.11481e-06
5.1148e-06
5.11433e-06
5.11435e-06
5.11436e-06
5.11436e-06
5.11436e-06
5.11436e-06
5.11437e-06
5.11438e-06
5.11438e-06
5.11439e-06
5.11439e-06
5.1144e-06
5.1144e-06
5.11441e-06
5.11441e-06
5.11442e-06
5.11442e-06
5.11443e-06
5.11443e-06
5.11443e-06
5.11443e-06
5.11443e-06
5.11444e-06
5.11444e-06
5.11444e-06
5.11444e-06
5.11444e-06
5.11444e-06
5.11444e-06
5.11445e-06
5.11444e-06
5.11442e-06
5.11439e-06
5.11435e-06
5.11432e-06
5.11429e-06
5.11426e-06
5.11423e-06
5.11423e-06
5.11424e-06
5.11444e-06
5.11446e-06
5.11447e-06
5.11447e-06
5.11446e-06
5.11446e-06
5.11447e-06
5.11447e-06
5.11447e-06
5.11448e-06
5.11447e-06
5.11448e-06
5.11448e-06
5.11449e-06
5.11449e-06
5.11449e-06
5.11449e-06
5.1145e-06
5.1145e-06
5.1145e-06
5.1145e-06
5.1145e-06
5.11451e-06
5.11451e-06
5.11451e-06
5.11451e-06
5.11451e-06
5.11451e-06
5.11451e-06
5.1145e-06
5.11449e-06
5.11447e-06
5.11444e-06
5.1144e-06
5.11437e-06
5.11433e-06
5.1143e-06
5.11428e-06
5.11428e-06
5.1143e-06
5.11723e-06
5.11727e-06
5.11729e-06
5.1173e-06
5.11729e-06
5.1173e-06
5.1173e-06
5.11731e-06
5.11731e-06
5.1173e-06
5.11731e-06
5.11731e-06
5.11731e-06
5.11731e-06
5.11731e-06
5.11731e-06
5.11732e-06
5.11732e-06
5.11732e-06
5.11732e-06
5.11732e-06
5.11732e-06
5.11733e-06
5.11733e-06
5.11733e-06
5.11733e-06
5.11733e-06
5.11733e-06
5.11731e-06
5.1173e-06
5.11729e-06
5.11727e-06
5.11723e-06
5.11719e-06
5.11716e-06
5.11712e-06
5.11709e-06
5.11707e-06
5.11707e-06
5.11709e-06
5.12568e-06
5.12572e-06
5.12575e-06
5.12576e-06
5.12576e-06
5.12576e-06
5.12577e-06
5.12577e-06
5.12577e-06
5.12577e-06
5.12577e-06
5.12577e-06
5.12577e-06
5.12577e-06
5.12577e-06
5.12577e-06
5.12578e-06
5.12578e-06
5.12578e-06
5.12578e-06
5.12578e-06
5.12578e-06
5.12578e-06
5.12578e-06
5.12578e-06
5.12578e-06
5.12578e-06
5.12577e-06
5.12576e-06
5.12575e-06
5.12574e-06
5.12571e-06
5.12567e-06
5.12563e-06
5.12559e-06
5.12555e-06
5.12552e-06
5.12551e-06
5.12552e-06
5.12554e-06
5.14346e-06
5.14351e-06
5.14354e-06
5.14354e-06
5.14355e-06
5.14355e-06
5.14355e-06
5.14356e-06
5.14356e-06
5.14356e-06
5.14356e-06
5.14356e-06
5.14356e-06
5.14356e-06
5.14356e-06
5.14357e-06
5.14357e-06
5.14356e-06
5.14356e-06
5.14357e-06
5.14357e-06
5.14357e-06
5.14356e-06
5.14356e-06
5.14356e-06
5.14357e-06
5.14356e-06
5.14355e-06
5.14355e-06
5.14354e-06
5.14353e-06
5.14349e-06
5.14345e-06
5.14341e-06
5.14336e-06
5.14333e-06
5.14331e-06
5.1433e-06
5.14331e-06
5.14333e-06
5.17523e-06
5.17527e-06
5.1753e-06
5.1753e-06
5.1753e-06
5.1753e-06
5.17531e-06
5.17531e-06
5.17531e-06
5.1753e-06
5.17531e-06
5.17531e-06
5.17531e-06
5.17531e-06
5.17531e-06
5.17531e-06
5.17531e-06
5.17531e-06
5.17531e-06
5.17531e-06
5.17531e-06
5.17531e-06
5.17531e-06
5.17531e-06
5.17532e-06
5.17532e-06
5.17531e-06
5.17532e-06
5.17532e-06
5.17531e-06
5.17528e-06
5.17524e-06
5.1752e-06
5.17516e-06
5.17512e-06
5.17508e-06
5.17507e-06
5.17507e-06
5.17507e-06
5.17509e-06
5.22682e-06
5.22682e-06
5.22683e-06
5.22684e-06
5.22684e-06
5.22684e-06
5.22684e-06
5.22684e-06
5.22684e-06
5.22684e-06
5.22684e-06
5.22684e-06
5.22684e-06
5.22684e-06
5.22685e-06
5.22685e-06
5.22685e-06
5.22686e-06
5.22686e-06
5.22686e-06
5.22687e-06
5.22687e-06
5.22687e-06
5.22687e-06
5.22687e-06
5.22687e-06
5.22688e-06
5.22688e-06
5.22688e-06
5.22687e-06
5.22684e-06
5.2268e-06
5.22676e-06
5.22672e-06
5.22668e-06
5.22665e-06
5.22664e-06
5.22665e-06
5.22665e-06
5.22667e-06
5.30563e-06
5.30559e-06
5.30562e-06
5.30563e-06
5.30563e-06
5.30564e-06
5.30564e-06
5.30564e-06
5.30564e-06
5.30565e-06
5.30565e-06
5.30566e-06
5.30567e-06
5.30567e-06
5.30568e-06
5.30569e-06
5.30569e-06
5.3057e-06
5.3057e-06
5.30571e-06
5.30571e-06
5.30571e-06
5.30572e-06
5.30572e-06
5.30572e-06
5.30572e-06
5.30572e-06
5.30572e-06
5.30572e-06
5.3057e-06
5.30567e-06
5.30563e-06
5.3056e-06
5.30556e-06
5.30552e-06
5.3055e-06
5.3055e-06
5.3055e-06
5.3055e-06
5.30553e-06
5.42135e-06
5.42144e-06
5.42152e-06
5.42155e-06
5.42156e-06
5.42157e-06
5.42158e-06
5.42159e-06
5.4216e-06
5.42161e-06
5.42162e-06
5.42163e-06
5.42164e-06
5.42165e-06
5.42166e-06
5.42167e-06
5.42168e-06
5.42169e-06
5.4217e-06
5.4217e-06
5.42171e-06
5.42171e-06
5.42171e-06
5.42172e-06
5.42172e-06
5.42172e-06
5.42172e-06
5.42172e-06
5.4217e-06
5.42168e-06
5.42165e-06
5.42162e-06
5.42158e-06
5.42155e-06
5.42152e-06
5.4215e-06
5.4215e-06
5.4215e-06
5.42151e-06
5.42146e-06
5.58789e-06
5.58797e-06
5.58803e-06
5.58807e-06
5.58809e-06
5.5881e-06
5.58812e-06
5.58813e-06
5.58815e-06
5.58816e-06
5.58818e-06
5.5882e-06
5.58821e-06
5.58823e-06
5.58824e-06
5.58825e-06
5.58826e-06
5.58828e-06
5.58829e-06
5.58829e-06
5.5883e-06
5.5883e-06
5.5883e-06
5.58831e-06
5.58831e-06
5.58831e-06
5.58831e-06
5.58828e-06
5.58826e-06
5.58824e-06
5.58821e-06
5.58819e-06
5.58816e-06
5.58813e-06
5.5881e-06
5.58809e-06
5.58809e-06
5.58809e-06
5.58809e-06
5.58805e-06
5.82407e-06
5.82413e-06
5.82418e-06
5.82421e-06
5.82422e-06
5.82424e-06
5.82426e-06
5.82427e-06
5.82429e-06
5.82431e-06
5.82434e-06
5.82436e-06
5.82438e-06
5.82439e-06
5.82441e-06
5.82443e-06
5.82444e-06
5.82446e-06
5.82447e-06
5.82448e-06
5.82448e-06
5.82449e-06
5.82449e-06
5.82449e-06
5.82449e-06
5.82449e-06
5.82447e-06
5.82444e-06
5.82441e-06
5.82439e-06
5.82437e-06
5.82435e-06
5.82433e-06
5.8243e-06
5.82428e-06
5.82427e-06
5.82427e-06
5.82427e-06
5.82427e-06
5.82423e-06
6.15782e-06
6.15787e-06
6.15791e-06
6.15793e-06
6.15795e-06
6.15796e-06
6.15798e-06
6.158e-06
6.15802e-06
6.15804e-06
6.15807e-06
6.15809e-06
6.15811e-06
6.15814e-06
6.15816e-06
6.15818e-06
6.15819e-06
6.15821e-06
6.15822e-06
6.15823e-06
6.15824e-06
6.15824e-06
6.15824e-06
6.15825e-06
6.15824e-06
6.15822e-06
6.15819e-06
6.15817e-06
6.15814e-06
6.15812e-06
6.1581e-06
6.15808e-06
6.15806e-06
6.15804e-06
6.15802e-06
6.15801e-06
6.15801e-06
6.15802e-06
6.15802e-06
6.15798e-06
6.6322e-06
6.63225e-06
6.63229e-06
6.6323e-06
6.63232e-06
6.63233e-06
6.63234e-06
6.63236e-06
6.63238e-06
6.63241e-06
6.63243e-06
6.63246e-06
6.63248e-06
6.63251e-06
6.63253e-06
6.63256e-06
6.63258e-06
6.6326e-06
6.63261e-06
6.63262e-06
6.63263e-06
6.63263e-06
6.63263e-06
6.63263e-06
6.63261e-06
6.63258e-06
6.63255e-06
6.63252e-06
6.6325e-06
6.63248e-06
6.63246e-06
6.63244e-06
6.63243e-06
6.63241e-06
6.63239e-06
6.63239e-06
6.63239e-06
6.63239e-06
6.63239e-06
6.63236e-06
7.31684e-06
7.31688e-06
7.31691e-06
7.31691e-06
7.31692e-06
7.31693e-06
7.31694e-06
7.31695e-06
7.31697e-06
7.317e-06
7.31702e-06
7.31705e-06
7.31708e-06
7.31711e-06
7.31713e-06
7.31716e-06
7.31718e-06
7.3172e-06
7.31722e-06
7.31723e-06
7.31724e-06
7.31724e-06
7.31724e-06
7.31722e-06
7.31719e-06
7.31716e-06
7.31713e-06
7.3171e-06
7.31708e-06
7.31706e-06
7.31704e-06
7.31702e-06
7.31701e-06
7.317e-06
7.31698e-06
7.31698e-06
7.31698e-06
7.31698e-06
7.31698e-06
7.31696e-06
8.33056e-06
8.33061e-06
8.3306e-06
8.33059e-06
8.33059e-06
8.33059e-06
8.33059e-06
8.3306e-06
8.33062e-06
8.33064e-06
8.33067e-06
8.3307e-06
8.33073e-06
8.33077e-06
8.3308e-06
8.33083e-06
8.33085e-06
8.33088e-06
8.33089e-06
8.3309e-06
8.3309e-06
8.3309e-06
8.33089e-06
8.33087e-06
8.33084e-06
8.33081e-06
8.33077e-06
8.33074e-06
8.33071e-06
8.33069e-06
8.33067e-06
8.33066e-06
8.33065e-06
8.33064e-06
8.33063e-06
8.33063e-06
8.33063e-06
8.33063e-06
8.33063e-06
8.33065e-06
9.8892e-06
9.88919e-06
9.88918e-06
9.88917e-06
9.88916e-06
9.88915e-06
9.88916e-06
9.88916e-06
9.88918e-06
9.8892e-06
9.88923e-06
9.88927e-06
9.8893e-06
9.88934e-06
9.88938e-06
9.88941e-06
9.88944e-06
9.88946e-06
9.88948e-06
9.88948e-06
9.88948e-06
9.88948e-06
9.88946e-06
9.88943e-06
9.88939e-06
9.88936e-06
9.88932e-06
9.88928e-06
9.88925e-06
9.88923e-06
9.88921e-06
9.8892e-06
9.88919e-06
9.88918e-06
9.88918e-06
9.88918e-06
9.88918e-06
9.88918e-06
9.88919e-06
9.88921e-06
1.24105e-05
1.24105e-05
1.24105e-05
1.24105e-05
1.24105e-05
1.24105e-05
1.24105e-05
1.24105e-05
1.24105e-05
1.24106e-05
1.24106e-05
1.24106e-05
1.24107e-05
1.24107e-05
1.24108e-05
1.24108e-05
1.24108e-05
1.24109e-05
1.24109e-05
1.24109e-05
1.24109e-05
1.24109e-05
1.24108e-05
1.24108e-05
1.24108e-05
1.24107e-05
1.24107e-05
1.24106e-05
1.24106e-05
1.24106e-05
1.24105e-05
1.24105e-05
1.24105e-05
1.24105e-05
1.24105e-05
1.24105e-05
1.24105e-05
1.24105e-05
1.24105e-05
1.24106e-05
1.67163e-05
1.67163e-05
1.67163e-05
1.67163e-05
1.67163e-05
1.67163e-05
1.67163e-05
1.67163e-05
1.67163e-05
1.67164e-05
1.67164e-05
1.67165e-05
1.67165e-05
1.67166e-05
1.67166e-05
1.67167e-05
1.67167e-05
1.67167e-05
1.67167e-05
1.67167e-05
1.67167e-05
1.67167e-05
1.67167e-05
1.67166e-05
1.67166e-05
1.67165e-05
1.67164e-05
1.67164e-05
1.67163e-05
1.67163e-05
1.67163e-05
1.67163e-05
1.67163e-05
1.67163e-05
1.67163e-05
1.67163e-05
1.67163e-05
1.67163e-05
1.67163e-05
1.67164e-05
2.17978e-05
2.17977e-05
2.17977e-05
2.17977e-05
2.17976e-05
2.17976e-05
2.17976e-05
2.17976e-05
2.17977e-05
2.17979e-05
2.1798e-05
2.17982e-05
2.17984e-05
2.17985e-05
2.17986e-05
2.17987e-05
2.17988e-05
2.17988e-05
2.17988e-05
2.17988e-05
2.17988e-05
2.17987e-05
2.17986e-05
2.17984e-05
2.17983e-05
2.17981e-05
2.17979e-05
2.17978e-05
2.17977e-05
2.17976e-05
2.17976e-05
2.17976e-05
2.17976e-05
2.17976e-05
2.17976e-05
2.17977e-05
2.17977e-05
2.17977e-05
2.17977e-05
2.17978e-05
)
;

boundaryField
{
    bottomWall
    {
        type            epsilonWallFunction;
        value           nonuniform List<scalar> 
40
(
2.17993e-05
2.17993e-05
2.17993e-05
2.17993e-05
2.17994e-05
2.17995e-05
2.17995e-05
2.17996e-05
2.17996e-05
2.17997e-05
2.17997e-05
2.17998e-05
2.17998e-05
2.17999e-05
2.17999e-05
2.18e-05
2.18e-05
2.18001e-05
2.18001e-05
2.18001e-05
2.18001e-05
2.18001e-05
2.18e-05
2.17999e-05
2.17998e-05
2.17997e-05
2.17996e-05
2.17995e-05
2.17994e-05
2.17992e-05
2.17992e-05
2.17992e-05
2.17992e-05
2.17992e-05
2.17992e-05
2.17992e-05
2.17992e-05
2.17992e-05
2.17992e-05
2.17993e-05
)
;
    }
    topWall
    {
        type            epsilonWallFunction;
        value           nonuniform List<scalar> 
40
(
2.17978e-05
2.17977e-05
2.17977e-05
2.17977e-05
2.17976e-05
2.17976e-05
2.17976e-05
2.17976e-05
2.17977e-05
2.17979e-05
2.1798e-05
2.17982e-05
2.17984e-05
2.17985e-05
2.17986e-05
2.17987e-05
2.17988e-05
2.17988e-05
2.17988e-05
2.17988e-05
2.17988e-05
2.17987e-05
2.17986e-05
2.17984e-05
2.17983e-05
2.17981e-05
2.17979e-05
2.17978e-05
2.17977e-05
2.17976e-05
2.17976e-05
2.17976e-05
2.17976e-05
2.17976e-05
2.17976e-05
2.17977e-05
2.17977e-05
2.17977e-05
2.17977e-05
2.17978e-05
)
;
    }
    sides1_half0
    {
        type            empty;
    }
    sides1_half1
    {
        type            empty;
    }
    sides2_half0
    {
        type            empty;
    }
    sides2_half1
    {
        type            empty;
    }
    inout1_half0
    {
        type            cyclic;
    }
    inout1_half1
    {
        type            cyclic;
    }
    inout2_half0
    {
        type            cyclic;
    }
    inout2_half1
    {
        type            cyclic;
    }
}


// ************************************************************************* //
