/*--------------------------------*- C++ -*----------------------------------*\
  =========                 |
  \\      /  F ield         | OpenFOAM: The Open Source CFD Toolbox
   \\    /   O peration     | Website:  https://openfoam.org
    \\  /    A nd           | Version:  dev
     \\/     M anipulation  |

   OpenFOAM for Windows 20.09 (v1)
   Built by CFD Support, www.cfdsupport.com (based on Symscape).
\*---------------------------------------------------------------------------*/
FoamFile
{
    version     2.0;
    format      ascii;
    class       volScalarField;
    location    "90";
    object      k;
}
// * * * * * * * * * * * * * * * * * * * * * * * * * * * * * * * * * * * * * //

dimensions      [0 2 -2 0 0 0 0];

internalField   nonuniform List<scalar> 
1600
(
0.000162494
0.000162494
0.000162494
0.000162494
0.000162495
0.000162496
0.000162496
0.000162497
0.000162497
0.000162497
0.000162498
0.000162498
0.000162498
0.000162499
0.000162499
0.0001625
0.0001625
0.0001625
0.0001625
0.0001625
0.0001625
0.0001625
0.0001625
0.000162499
0.000162498
0.000162498
0.000162497
0.000162496
0.000162495
0.000162494
0.000162494
0.000162493
0.000162493
0.000162493
0.000162493
0.000162493
0.000162493
0.000162494
0.000162494
0.000162495
0.00025935
0.00025935
0.000259351
0.000259351
0.000259352
0.000259353
0.000259354
0.000259355
0.000259356
0.000259356
0.000259356
0.000259357
0.000259357
0.000259357
0.000259357
0.000259358
0.000259358
0.000259358
0.000259358
0.000259358
0.000259358
0.000259358
0.000259357
0.000259356
0.000259354
0.000259353
0.000259352
0.000259351
0.00025935
0.00025935
0.000259349
0.000259349
0.00025935
0.00025935
0.00025935
0.00025935
0.00025935
0.00025935
0.00025935
0.000259351
0.000281846
0.000281846
0.000281847
0.000281848
0.000281849
0.000281851
0.000281852
0.000281853
0.000281853
0.000281854
0.000281854
0.000281854
0.000281855
0.000281855
0.000281855
0.000281855
0.000281856
0.000281856
0.000281856
0.000281856
0.000281856
0.000281856
0.000281855
0.000281853
0.000281851
0.000281849
0.000281848
0.000281847
0.000281846
0.000281845
0.000281845
0.000281845
0.000281845
0.000281845
0.000281845
0.000281845
0.000281846
0.000281846
0.000281846
0.000281846
0.000295137
0.00029514
0.000295142
0.000295144
0.000295145
0.000295147
0.000295148
0.000295149
0.000295149
0.00029515
0.00029515
0.00029515
0.00029515
0.000295151
0.000295151
0.000295151
0.000295151
0.000295151
0.000295152
0.000295152
0.000295152
0.000295152
0.00029515
0.000295148
0.000295145
0.000295143
0.000295141
0.00029514
0.000295139
0.000295139
0.000295139
0.000295139
0.000295139
0.000295139
0.000295139
0.000295139
0.000295139
0.000295139
0.000295139
0.000295139
0.000305893
0.000305896
0.000305898
0.0003059
0.000305901
0.000305902
0.000305903
0.000305903
0.000305904
0.000305904
0.000305905
0.000305905
0.000305905
0.000305905
0.000305905
0.000305906
0.000305906
0.000305906
0.000305906
0.000305906
0.000305906
0.000305906
0.000305905
0.000305901
0.000305897
0.000305895
0.000305893
0.000305892
0.000305892
0.000305892
0.000305892
0.000305892
0.000305892
0.000305892
0.000305892
0.000305892
0.000305892
0.000305892
0.000305892
0.000305892
0.000315683
0.000315686
0.000315688
0.000315689
0.00031569
0.000315691
0.000315692
0.000315692
0.000315693
0.000315693
0.000315693
0.000315694
0.000315694
0.000315694
0.000315694
0.000315694
0.000315694
0.000315695
0.000315695
0.000315695
0.000315695
0.000315695
0.000315693
0.000315688
0.000315684
0.000315681
0.000315679
0.000315678
0.000315678
0.000315678
0.000315678
0.000315678
0.000315679
0.000315679
0.000315679
0.000315679
0.000315679
0.000315679
0.000315679
0.000315679
0.000324971
0.000324975
0.000324977
0.000324978
0.000324979
0.000324979
0.00032498
0.00032498
0.00032498
0.000324981
0.000324981
0.000324981
0.000324981
0.000324981
0.000324982
0.000324982
0.000324982
0.000324982
0.000324982
0.000324983
0.000324983
0.000324982
0.000324979
0.000324974
0.000324969
0.000324966
0.000324964
0.000324964
0.000324964
0.000324964
0.000324964
0.000324964
0.000324964
0.000324965
0.000324965
0.000324964
0.000324964
0.000324965
0.000324965
0.000324965
0.000333903
0.000333906
0.000333909
0.00033391
0.00033391
0.00033391
0.000333911
0.000333911
0.000333911
0.000333912
0.000333912
0.000333912
0.000333912
0.000333912
0.000333913
0.000333913
0.000333913
0.000333913
0.000333914
0.000333914
0.000333914
0.000333913
0.00033391
0.000333904
0.000333898
0.000333894
0.000333892
0.000333892
0.000333893
0.000333893
0.000333893
0.000333893
0.000333893
0.000333894
0.000333893
0.000333893
0.000333894
0.000333894
0.000333894
0.000333895
0.000342511
0.000342516
0.000342518
0.000342519
0.000342519
0.000342519
0.00034252
0.00034252
0.00034252
0.00034252
0.00034252
0.00034252
0.000342521
0.000342521
0.000342521
0.000342522
0.000342522
0.000342522
0.000342522
0.000342523
0.000342523
0.000342522
0.000342518
0.000342511
0.000342505
0.000342501
0.000342499
0.000342499
0.000342499
0.000342499
0.0003425
0.0003425
0.0003425
0.0003425
0.0003425
0.0003425
0.000342501
0.000342501
0.000342501
0.000342502
0.000350786
0.000350791
0.000350794
0.000350795
0.000350795
0.000350795
0.000350795
0.000350795
0.000350796
0.000350796
0.000350796
0.000350796
0.000350796
0.000350797
0.000350797
0.000350798
0.000350798
0.000350798
0.000350798
0.000350799
0.000350799
0.000350798
0.000350793
0.000350786
0.00035078
0.000350776
0.000350773
0.000350773
0.000350773
0.000350774
0.000350774
0.000350774
0.000350775
0.000350774
0.000350775
0.000350775
0.000350775
0.000350775
0.000350776
0.000350777
0.000358696
0.000358702
0.000358704
0.000358705
0.000358705
0.000358705
0.000358705
0.000358706
0.000358706
0.000358706
0.000358706
0.000358706
0.000358707
0.000358707
0.000358707
0.000358708
0.000358708
0.000358708
0.000358709
0.000358709
0.000358709
0.000358708
0.000358703
0.000358696
0.00035869
0.000358685
0.000358682
0.000358682
0.000358682
0.000358683
0.000358683
0.000358683
0.000358683
0.000358683
0.000358684
0.000358684
0.000358684
0.000358684
0.000358684
0.000358686
0.000366194
0.000366199
0.000366202
0.000366202
0.000366202
0.000366203
0.000366203
0.000366203
0.000366203
0.000366203
0.000366204
0.000366204
0.000366204
0.000366205
0.000366205
0.000366205
0.000366206
0.000366206
0.000366206
0.000366207
0.000366207
0.000366206
0.000366201
0.000366194
0.000366188
0.000366183
0.00036618
0.000366179
0.000366179
0.000366179
0.00036618
0.00036618
0.00036618
0.00036618
0.000366181
0.000366181
0.000366181
0.000366181
0.000366181
0.000366183
0.000373222
0.000373226
0.000373229
0.000373229
0.000373229
0.00037323
0.00037323
0.00037323
0.00037323
0.00037323
0.00037323
0.000373231
0.000373231
0.000373231
0.000373232
0.000373232
0.000373233
0.000373233
0.000373233
0.000373233
0.000373233
0.000373233
0.000373229
0.000373222
0.000373216
0.00037321
0.000373207
0.000373205
0.000373206
0.000373206
0.000373206
0.000373206
0.000373206
0.000373207
0.000373207
0.000373207
0.000373207
0.000373207
0.000373208
0.00037321
0.000379711
0.000379715
0.000379717
0.000379718
0.000379718
0.000379718
0.000379718
0.000379718
0.000379718
0.000379718
0.000379719
0.000379719
0.000379719
0.000379719
0.00037972
0.00037972
0.00037972
0.00037972
0.000379721
0.000379721
0.000379722
0.000379721
0.000379718
0.000379712
0.000379705
0.0003797
0.000379696
0.000379694
0.000379694
0.000379694
0.000379694
0.000379694
0.000379695
0.000379695
0.000379695
0.000379695
0.000379696
0.000379696
0.000379696
0.000379699
0.000385583
0.000385587
0.000385589
0.00038559
0.00038559
0.00038559
0.00038559
0.00038559
0.00038559
0.00038559
0.00038559
0.00038559
0.000385591
0.000385591
0.000385591
0.000385592
0.000385592
0.000385592
0.000385593
0.000385593
0.000385594
0.000385594
0.000385591
0.000385585
0.000385579
0.000385573
0.000385569
0.000385567
0.000385566
0.000385567
0.000385567
0.000385567
0.000385567
0.000385567
0.000385567
0.000385568
0.000385568
0.000385569
0.000385569
0.000385571
0.000390752
0.000390756
0.000390758
0.000390758
0.000390758
0.000390759
0.000390759
0.000390759
0.000390759
0.000390759
0.000390759
0.000390759
0.000390759
0.00039076
0.00039076
0.00039076
0.000390761
0.000390761
0.000390761
0.000390762
0.000390763
0.000390763
0.000390761
0.000390756
0.00039075
0.000390744
0.000390739
0.000390736
0.000390735
0.000390736
0.000390736
0.000390737
0.000390736
0.000390737
0.000390737
0.000390737
0.000390738
0.000390738
0.000390738
0.00039074
0.000395121
0.000395124
0.000395126
0.000395127
0.000395127
0.000395127
0.000395127
0.000395127
0.000395127
0.000395127
0.000395128
0.000395128
0.000395128
0.000395129
0.000395129
0.000395129
0.00039513
0.00039513
0.000395131
0.000395131
0.000395132
0.000395132
0.000395131
0.000395126
0.00039512
0.000395115
0.00039511
0.000395106
0.000395105
0.000395105
0.000395106
0.000395106
0.000395106
0.000395106
0.000395106
0.000395107
0.000395107
0.000395107
0.000395107
0.000395109
0.000398582
0.000398586
0.000398588
0.000398589
0.000398589
0.000398589
0.000398589
0.00039859
0.00039859
0.00039859
0.00039859
0.00039859
0.000398591
0.000398591
0.000398591
0.000398592
0.000398592
0.000398593
0.000398593
0.000398593
0.000398594
0.000398594
0.000398593
0.000398589
0.000398584
0.000398579
0.000398574
0.00039857
0.000398568
0.000398568
0.000398568
0.000398569
0.000398569
0.000398569
0.00039857
0.000398569
0.00039857
0.00039857
0.00039857
0.000398572
0.000401021
0.000401024
0.000401026
0.000401027
0.000401028
0.000401028
0.000401028
0.000401029
0.000401029
0.000401029
0.000401029
0.00040103
0.00040103
0.00040103
0.000401031
0.000401031
0.000401031
0.000401032
0.000401032
0.000401032
0.000401033
0.000401033
0.000401032
0.000401029
0.000401024
0.000401019
0.000401014
0.00040101
0.000401008
0.000401008
0.000401008
0.000401008
0.000401008
0.000401009
0.000401009
0.000401009
0.000401009
0.000401009
0.000401009
0.000401011
0.000402309
0.000402312
0.000402315
0.000402316
0.000402316
0.000402317
0.000402317
0.000402317
0.000402317
0.000402318
0.000402318
0.000402318
0.000402318
0.000402319
0.000402319
0.000402319
0.00040232
0.00040232
0.00040232
0.000402321
0.000402321
0.000402321
0.000402321
0.000402318
0.000402313
0.000402308
0.000402303
0.000402299
0.000402297
0.000402297
0.000402297
0.000402297
0.000402297
0.000402298
0.000402298
0.000402298
0.000402298
0.000402297
0.000402298
0.0004023
0.000402309
0.000402312
0.000402314
0.000402316
0.000402316
0.000402316
0.000402317
0.000402317
0.000402317
0.000402318
0.000402318
0.000402318
0.000402318
0.000402318
0.000402319
0.000402319
0.000402319
0.000402319
0.00040232
0.00040232
0.00040232
0.000402321
0.00040232
0.000402318
0.000402313
0.000402308
0.000402303
0.000402299
0.000402297
0.000402297
0.000402296
0.000402297
0.000402297
0.000402297
0.000402297
0.000402297
0.000402297
0.000402297
0.000402298
0.0004023
0.000401019
0.000401023
0.000401026
0.000401027
0.000401027
0.000401027
0.000401028
0.000401028
0.000401028
0.000401028
0.000401028
0.000401029
0.000401029
0.000401029
0.000401029
0.000401029
0.00040103
0.00040103
0.00040103
0.00040103
0.000401031
0.000401031
0.000401031
0.000401029
0.000401023
0.000401018
0.000401012
0.000401009
0.000401007
0.000401007
0.000401007
0.000401007
0.000401008
0.000401007
0.000401008
0.000401008
0.000401008
0.000401008
0.000401008
0.00040101
0.000398579
0.000398583
0.000398586
0.000398587
0.000398587
0.000398587
0.000398587
0.000398588
0.000398588
0.000398588
0.000398588
0.000398589
0.000398589
0.000398589
0.000398589
0.000398589
0.000398589
0.000398589
0.000398589
0.00039859
0.00039859
0.000398591
0.00039859
0.000398588
0.000398582
0.000398576
0.000398571
0.000398567
0.000398566
0.000398566
0.000398566
0.000398566
0.000398567
0.000398567
0.000398567
0.000398567
0.000398567
0.000398567
0.000398567
0.000398569
0.000395115
0.00039512
0.000395122
0.000395122
0.000395122
0.000395123
0.000395123
0.000395123
0.000395124
0.000395124
0.000395124
0.000395124
0.000395125
0.000395125
0.000395125
0.000395124
0.000395125
0.000395125
0.000395125
0.000395125
0.000395126
0.000395126
0.000395126
0.000395123
0.000395117
0.000395111
0.000395106
0.000395102
0.000395101
0.000395101
0.000395101
0.000395102
0.000395102
0.000395102
0.000395102
0.000395102
0.000395102
0.000395102
0.000395103
0.000395105
0.000390743
0.000390748
0.000390751
0.000390751
0.000390751
0.000390751
0.000390752
0.000390752
0.000390752
0.000390752
0.000390752
0.000390753
0.000390753
0.000390753
0.000390753
0.000390753
0.000390753
0.000390753
0.000390754
0.000390754
0.000390754
0.000390755
0.000390754
0.000390751
0.000390745
0.000390738
0.000390733
0.00039073
0.000390729
0.00039073
0.00039073
0.00039073
0.00039073
0.00039073
0.00039073
0.00039073
0.000390731
0.000390731
0.000390731
0.000390733
0.000385572
0.000385576
0.000385579
0.000385579
0.000385579
0.000385579
0.000385579
0.00038558
0.00038558
0.00038558
0.00038558
0.00038558
0.00038558
0.00038558
0.00038558
0.000385581
0.000385581
0.000385581
0.000385582
0.000385582
0.000385582
0.000385583
0.000385582
0.000385579
0.000385572
0.000385566
0.000385561
0.000385557
0.000385557
0.000385557
0.000385558
0.000385557
0.000385557
0.000385557
0.000385558
0.000385558
0.000385559
0.000385558
0.000385559
0.000385561
0.000379697
0.000379701
0.000379703
0.000379703
0.000379703
0.000379703
0.000379704
0.000379704
0.000379704
0.000379704
0.000379704
0.000379704
0.000379704
0.000379705
0.000379705
0.000379705
0.000379705
0.000379706
0.000379706
0.000379706
0.000379707
0.000379707
0.000379706
0.000379703
0.000379697
0.00037969
0.000379685
0.000379682
0.000379682
0.000379682
0.000379682
0.000379682
0.000379682
0.000379682
0.000379682
0.000379683
0.000379683
0.000379683
0.000379683
0.000379685
0.000373204
0.000373209
0.000373211
0.000373211
0.000373211
0.000373211
0.000373212
0.000373212
0.000373212
0.000373212
0.000373212
0.000373212
0.000373212
0.000373213
0.000373213
0.000373213
0.000373214
0.000373214
0.000373214
0.000373214
0.000373214
0.000373215
0.000373214
0.000373211
0.000373205
0.000373198
0.000373193
0.00037319
0.00037319
0.00037319
0.00037319
0.00037319
0.00037319
0.000373191
0.000373191
0.000373191
0.000373191
0.000373192
0.000373192
0.000373194
0.000366173
0.000366178
0.00036618
0.00036618
0.00036618
0.000366181
0.000366181
0.000366181
0.000366181
0.000366181
0.000366181
0.000366181
0.000366182
0.000366182
0.000366182
0.000366183
0.000366183
0.000366183
0.000366183
0.000366183
0.000366183
0.000366184
0.000366184
0.000366181
0.000366175
0.000366168
0.000366163
0.000366161
0.00036616
0.00036616
0.00036616
0.00036616
0.000366161
0.000366161
0.000366161
0.000366161
0.000366162
0.000366162
0.000366162
0.000366163
0.000358672
0.000358677
0.000358679
0.000358679
0.000358679
0.000358679
0.000358679
0.000358679
0.000358679
0.00035868
0.00035868
0.00035868
0.00035868
0.000358681
0.000358681
0.000358681
0.000358681
0.000358682
0.000358682
0.000358682
0.000358682
0.000358683
0.000358683
0.000358681
0.000358675
0.000358669
0.000358663
0.000358661
0.00035866
0.00035866
0.000358661
0.000358661
0.000358661
0.000358661
0.000358661
0.000358662
0.000358662
0.000358662
0.000358662
0.000358663
0.000350759
0.000350763
0.000350765
0.000350765
0.000350765
0.000350765
0.000350765
0.000350766
0.000350766
0.000350766
0.000350767
0.000350767
0.000350767
0.000350768
0.000350768
0.000350768
0.000350769
0.000350769
0.000350769
0.00035077
0.00035077
0.000350771
0.000350771
0.000350769
0.000350763
0.000350757
0.000350752
0.000350749
0.000350749
0.000350749
0.000350749
0.000350749
0.000350749
0.00035075
0.00035075
0.00035075
0.00035075
0.00035075
0.00035075
0.000350751
0.000342481
0.000342483
0.000342485
0.000342486
0.000342486
0.000342486
0.000342486
0.000342487
0.000342488
0.000342488
0.000342489
0.000342489
0.00034249
0.00034249
0.000342491
0.000342491
0.000342492
0.000342492
0.000342492
0.000342493
0.000342493
0.000342494
0.000342494
0.000342492
0.000342487
0.000342481
0.000342476
0.000342474
0.000342473
0.000342473
0.000342473
0.000342473
0.000342473
0.000342474
0.000342474
0.000342474
0.000342474
0.000342474
0.000342474
0.000342475
0.00033387
0.000333871
0.000333873
0.000333874
0.000333874
0.000333875
0.000333876
0.000333877
0.000333878
0.000333878
0.000333879
0.00033388
0.000333881
0.000333881
0.000333882
0.000333883
0.000333883
0.000333884
0.000333884
0.000333885
0.000333885
0.000333886
0.000333886
0.000333883
0.000333878
0.000333873
0.000333869
0.000333866
0.000333865
0.000333865
0.000333865
0.000333866
0.000333866
0.000333866
0.000333866
0.000333866
0.000333866
0.000333866
0.000333866
0.000333867
0.000324931
0.000324935
0.000324939
0.00032494
0.000324942
0.000324943
0.000324944
0.000324945
0.000324946
0.000324947
0.000324949
0.00032495
0.00032495
0.000324951
0.000324952
0.000324953
0.000324953
0.000324954
0.000324955
0.000324955
0.000324955
0.000324956
0.000324956
0.000324953
0.000324948
0.000324944
0.00032494
0.000324938
0.000324936
0.000324936
0.000324936
0.000324936
0.000324936
0.000324936
0.000324937
0.000324937
0.000324937
0.000324937
0.000324937
0.000324935
0.000315645
0.000315647
0.00031565
0.000315652
0.000315654
0.000315655
0.000315657
0.000315658
0.00031566
0.000315661
0.000315662
0.000315663
0.000315665
0.000315666
0.000315666
0.000315667
0.000315668
0.000315669
0.000315669
0.00031567
0.00031567
0.00031567
0.00031567
0.000315667
0.000315663
0.000315659
0.000315656
0.000315653
0.000315652
0.000315651
0.000315651
0.000315651
0.000315651
0.000315652
0.000315652
0.000315652
0.000315652
0.000315652
0.000315652
0.00031565
0.000305861
0.000305862
0.000305864
0.000305865
0.000305867
0.000305868
0.000305869
0.000305871
0.000305873
0.000305874
0.000305876
0.000305877
0.000305878
0.00030588
0.000305881
0.000305881
0.000305882
0.000305883
0.000305883
0.000305884
0.000305884
0.000305884
0.000305883
0.00030588
0.000305877
0.000305874
0.000305871
0.000305869
0.000305867
0.000305867
0.000305866
0.000305866
0.000305866
0.000305867
0.000305867
0.000305867
0.000305867
0.000305867
0.000305867
0.000305866
0.000295113
0.000295114
0.000295114
0.000295115
0.000295116
0.000295117
0.000295118
0.000295119
0.000295121
0.000295123
0.000295124
0.000295126
0.000295127
0.000295128
0.000295129
0.00029513
0.000295131
0.000295132
0.000295132
0.000295132
0.000295132
0.000295132
0.000295131
0.000295129
0.000295126
0.000295124
0.000295121
0.000295119
0.000295118
0.000295117
0.000295117
0.000295117
0.000295117
0.000295117
0.000295117
0.000295117
0.000295117
0.000295117
0.000295117
0.000295117
0.000281827
0.000281826
0.000281826
0.000281825
0.000281825
0.000281826
0.000281827
0.000281828
0.00028183
0.000281831
0.000281833
0.000281834
0.000281836
0.000281837
0.000281838
0.000281839
0.000281839
0.00028184
0.00028184
0.00028184
0.00028184
0.00028184
0.000281839
0.000281837
0.000281835
0.000281833
0.00028183
0.000281829
0.000281828
0.000281827
0.000281827
0.000281827
0.000281827
0.000281827
0.000281827
0.000281827
0.000281827
0.000281827
0.000281828
0.000281828
0.000259336
0.000259336
0.000259335
0.000259335
0.000259334
0.000259335
0.000259335
0.000259336
0.000259337
0.000259339
0.00025934
0.000259341
0.000259343
0.000259344
0.000259345
0.000259345
0.000259346
0.000259346
0.000259346
0.000259346
0.000259346
0.000259346
0.000259345
0.000259343
0.000259342
0.00025934
0.000259338
0.000259337
0.000259336
0.000259336
0.000259335
0.000259335
0.000259336
0.000259336
0.000259336
0.000259336
0.000259336
0.000259336
0.000259336
0.000259337
0.000162483
0.000162483
0.000162482
0.000162482
0.000162482
0.000162481
0.000162482
0.000162482
0.000162482
0.000162483
0.000162485
0.000162486
0.000162487
0.000162488
0.000162489
0.00016249
0.00016249
0.000162491
0.000162491
0.000162491
0.000162491
0.00016249
0.000162489
0.000162488
0.000162487
0.000162486
0.000162484
0.000162483
0.000162482
0.000162482
0.000162482
0.000162482
0.000162482
0.000162482
0.000162482
0.000162482
0.000162482
0.000162482
0.000162482
0.000162483
)
;

boundaryField
{
    bottomWall
    {
        type            kqRWallFunction;
        value           nonuniform List<scalar> 
40
(
0.000162494
0.000162494
0.000162494
0.000162494
0.000162495
0.000162496
0.000162496
0.000162497
0.000162497
0.000162497
0.000162498
0.000162498
0.000162498
0.000162499
0.000162499
0.0001625
0.0001625
0.0001625
0.0001625
0.0001625
0.0001625
0.0001625
0.0001625
0.000162499
0.000162498
0.000162498
0.000162497
0.000162496
0.000162495
0.000162494
0.000162494
0.000162493
0.000162493
0.000162493
0.000162493
0.000162493
0.000162493
0.000162494
0.000162494
0.000162495
)
;
    }
    topWall
    {
        type            kqRWallFunction;
        value           nonuniform List<scalar> 
40
(
0.000162483
0.000162483
0.000162482
0.000162482
0.000162482
0.000162481
0.000162482
0.000162482
0.000162482
0.000162483
0.000162485
0.000162486
0.000162487
0.000162488
0.000162489
0.00016249
0.00016249
0.000162491
0.000162491
0.000162491
0.000162491
0.00016249
0.000162489
0.000162488
0.000162487
0.000162486
0.000162484
0.000162483
0.000162482
0.000162482
0.000162482
0.000162482
0.000162482
0.000162482
0.000162482
0.000162482
0.000162482
0.000162482
0.000162482
0.000162483
)
;
    }
    sides1_half0
    {
        type            empty;
    }
    sides1_half1
    {
        type            empty;
    }
    sides2_half0
    {
        type            empty;
    }
    sides2_half1
    {
        type            empty;
    }
    inout1_half0
    {
        type            cyclic;
    }
    inout1_half1
    {
        type            cyclic;
    }
    inout2_half0
    {
        type            cyclic;
    }
    inout2_half1
    {
        type            cyclic;
    }
}


// ************************************************************************* //
