/*--------------------------------*- C++ -*----------------------------------*\
  =========                 |
  \\      /  F ield         | OpenFOAM: The Open Source CFD Toolbox
   \\    /   O peration     | Website:  https://openfoam.org
    \\  /    A nd           | Version:  dev
     \\/     M anipulation  |

   OpenFOAM for Windows 20.09 (v1)
   Built by CFD Support, www.cfdsupport.com (based on Symscape).
\*---------------------------------------------------------------------------*/
FoamFile
{
    version     2.0;
    format      ascii;
    class       volScalarField;
    location    "90";
    object      nut;
}
// * * * * * * * * * * * * * * * * * * * * * * * * * * * * * * * * * * * * * //

dimensions      [0 2 -1 0 0 0 0];

internalField   nonuniform List<scalar> 
1600
(
0.000109012
0.000109012
0.000109012
0.000109012
0.000109013
0.000109013
0.000109014
0.000109014
0.000109014
0.000109015
0.000109015
0.000109015
0.000109015
0.000109016
0.000109016
0.000109016
0.000109016
0.000109016
0.000109017
0.000109017
0.000109017
0.000109017
0.000109016
0.000109016
0.000109015
0.000109015
0.000109014
0.000109014
0.000109013
0.000109012
0.000109012
0.000109012
0.000109012
0.000109012
0.000109012
0.000109012
0.000109012
0.000109012
0.000109012
0.000109013
0.000362124
0.000362127
0.000362127
0.000362129
0.000362131
0.000362134
0.000362136
0.000362137
0.000362138
0.000362139
0.00036214
0.00036214
0.00036214
0.00036214
0.000362141
0.000362141
0.000362141
0.000362141
0.000362141
0.000362141
0.000362141
0.000362141
0.00036214
0.000362136
0.000362133
0.000362131
0.000362129
0.000362127
0.000362125
0.000362124
0.000362124
0.000362125
0.000362125
0.000362125
0.000362125
0.000362125
0.000362126
0.000362126
0.000362126
0.000362128
0.000576047
0.000576048
0.000576052
0.000576056
0.000576061
0.000576066
0.00057607
0.000576072
0.000576074
0.000576075
0.000576076
0.000576077
0.000576077
0.000576077
0.000576078
0.000576078
0.000576078
0.000576078
0.000576079
0.000576079
0.000576079
0.000576078
0.000576075
0.000576068
0.000576061
0.000576055
0.00057605
0.000576046
0.000576044
0.000576044
0.000576045
0.000576046
0.000576046
0.000576046
0.000576046
0.000576046
0.000576047
0.000576047
0.000576047
0.000576047
0.000792696
0.000792716
0.000792727
0.000792736
0.000792743
0.00079275
0.000792754
0.000792758
0.00079276
0.000792762
0.000792763
0.000792764
0.000792764
0.000792765
0.000792765
0.000792765
0.000792765
0.000792765
0.000792766
0.000792766
0.000792766
0.000792765
0.00079276
0.000792746
0.000792733
0.000792722
0.000792714
0.000792709
0.000792708
0.00079271
0.000792712
0.000792712
0.000792712
0.000792712
0.000792713
0.000792713
0.000792713
0.000792713
0.000792714
0.000792709
0.00101083
0.00101086
0.00101087
0.00101088
0.00101088
0.00101089
0.00101089
0.0010109
0.0010109
0.0010109
0.0010109
0.0010109
0.00101091
0.00101091
0.00101091
0.00101091
0.00101091
0.00101091
0.00101091
0.00101091
0.00101091
0.00101091
0.0010109
0.00101087
0.00101085
0.00101084
0.00101082
0.00101082
0.00101082
0.00101082
0.00101083
0.00101083
0.00101083
0.00101083
0.00101083
0.00101083
0.00101083
0.00101083
0.00101083
0.00101083
0.00122573
0.00122574
0.00122575
0.00122576
0.00122576
0.00122577
0.00122577
0.00122578
0.00122578
0.00122578
0.00122578
0.00122578
0.00122578
0.00122578
0.00122578
0.00122578
0.00122578
0.00122578
0.00122578
0.00122579
0.00122579
0.00122578
0.00122577
0.00122573
0.0012257
0.00122568
0.00122566
0.00122566
0.00122567
0.00122567
0.00122567
0.00122567
0.00122567
0.00122567
0.00122567
0.00122568
0.00122568
0.00122568
0.00122568
0.00122568
0.001433
0.00143302
0.00143303
0.00143303
0.00143303
0.00143303
0.00143304
0.00143304
0.00143304
0.00143304
0.00143304
0.00143305
0.00143305
0.00143305
0.00143305
0.00143305
0.00143305
0.00143305
0.00143305
0.00143305
0.00143305
0.00143305
0.00143302
0.00143297
0.00143293
0.0014329
0.00143289
0.00143289
0.00143289
0.00143289
0.00143289
0.00143289
0.0014329
0.0014329
0.0014329
0.0014329
0.0014329
0.0014329
0.00143291
0.00143292
0.0016294
0.00162942
0.00162943
0.00162943
0.00162943
0.00162943
0.00162943
0.00162944
0.00162943
0.00162944
0.00162944
0.00162944
0.00162944
0.00162944
0.00162944
0.00162944
0.00162944
0.00162944
0.00162944
0.00162944
0.00162944
0.00162944
0.0016294
0.00162934
0.00162929
0.00162925
0.00162924
0.00162924
0.00162924
0.00162924
0.00162924
0.00162925
0.00162925
0.00162925
0.00162926
0.00162926
0.00162926
0.00162926
0.00162926
0.00162929
0.00181276
0.00181279
0.0018128
0.0018128
0.00181279
0.00181279
0.00181279
0.00181279
0.00181279
0.00181279
0.00181279
0.00181279
0.00181279
0.00181279
0.00181279
0.00181279
0.0018128
0.0018128
0.0018128
0.0018128
0.0018128
0.00181279
0.00181274
0.00181268
0.00181261
0.00181257
0.00181255
0.00181255
0.00181255
0.00181255
0.00181256
0.00181256
0.00181257
0.00181257
0.00181258
0.00181259
0.00181259
0.00181259
0.00181259
0.00181262
0.00198179
0.00198183
0.00198184
0.00198183
0.00198183
0.00198183
0.00198183
0.00198182
0.00198183
0.00198183
0.00198182
0.00198182
0.00198182
0.00198182
0.00198182
0.00198183
0.00198183
0.00198183
0.00198183
0.00198183
0.00198183
0.00198182
0.00198177
0.00198169
0.00198162
0.00198157
0.00198154
0.00198154
0.00198154
0.00198154
0.00198155
0.00198156
0.00198156
0.00198157
0.00198158
0.00198159
0.0019816
0.0019816
0.0019816
0.00198162
0.00213587
0.00213591
0.00213592
0.00213591
0.0021359
0.0021359
0.0021359
0.00213589
0.0021359
0.00213589
0.00213589
0.00213589
0.00213589
0.00213589
0.00213589
0.00213589
0.0021359
0.0021359
0.0021359
0.0021359
0.0021359
0.00213589
0.00213583
0.00213575
0.00213567
0.00213561
0.00213558
0.00213558
0.00213557
0.00213558
0.00213559
0.0021356
0.0021356
0.00213562
0.00213564
0.00213565
0.00213565
0.00213564
0.00213564
0.00213568
0.0022748
0.00227483
0.00227484
0.00227482
0.00227481
0.0022748
0.0022748
0.0022748
0.0022748
0.00227479
0.00227479
0.00227479
0.00227479
0.00227479
0.0022748
0.0022748
0.0022748
0.0022748
0.0022748
0.0022748
0.0022748
0.00227479
0.00227473
0.00227465
0.00227457
0.0022745
0.00227446
0.00227445
0.00227445
0.00227446
0.00227447
0.00227448
0.0022745
0.00227452
0.00227453
0.00227454
0.00227454
0.00227454
0.00227454
0.00227459
0.00239863
0.00239864
0.00239864
0.00239862
0.0023986
0.00239859
0.00239859
0.00239859
0.00239858
0.00239858
0.00239858
0.00239858
0.00239858
0.00239859
0.00239859
0.00239859
0.00239859
0.00239859
0.00239859
0.00239859
0.0023986
0.00239858
0.00239853
0.00239845
0.00239837
0.00239829
0.00239825
0.00239823
0.00239823
0.00239824
0.00239825
0.00239827
0.00239829
0.00239831
0.00239833
0.00239833
0.00239833
0.00239834
0.00239834
0.0023984
0.00250751
0.0025075
0.00250748
0.00250747
0.00250745
0.00250745
0.00250745
0.00250745
0.00250745
0.00250744
0.00250744
0.00250744
0.00250744
0.00250745
0.00250745
0.00250745
0.00250745
0.00250745
0.00250745
0.00250746
0.00250746
0.00250745
0.00250741
0.00250733
0.00250724
0.00250717
0.00250711
0.00250709
0.00250709
0.0025071
0.00250712
0.00250714
0.00250716
0.00250718
0.00250719
0.00250721
0.00250721
0.00250722
0.00250722
0.00250728
0.00260153
0.00260155
0.00260156
0.00260157
0.00260157
0.00260157
0.00260157
0.00260157
0.00260156
0.00260156
0.00260156
0.00260156
0.00260156
0.00260157
0.00260157
0.00260157
0.00260157
0.00260157
0.00260158
0.00260159
0.00260159
0.00260159
0.00260155
0.00260148
0.00260139
0.00260131
0.00260125
0.00260122
0.00260121
0.00260123
0.00260125
0.00260127
0.00260129
0.00260131
0.00260133
0.00260135
0.00260136
0.00260136
0.00260137
0.0026014
0.00268099
0.00268101
0.00268104
0.00268105
0.00268105
0.00268105
0.00268106
0.00268105
0.00268105
0.00268105
0.00268105
0.00268105
0.00268105
0.00268106
0.00268106
0.00268107
0.00268107
0.00268107
0.00268108
0.00268109
0.00268109
0.00268109
0.00268107
0.00268099
0.00268091
0.00268083
0.00268076
0.00268073
0.00268072
0.00268073
0.00268076
0.00268078
0.0026808
0.00268081
0.00268083
0.00268085
0.00268087
0.00268087
0.00268088
0.00268089
0.0027458
0.00274583
0.00274585
0.00274586
0.00274586
0.00274587
0.00274587
0.00274587
0.00274587
0.00274587
0.00274587
0.00274587
0.00274588
0.00274588
0.00274588
0.00274589
0.00274589
0.0027459
0.0027459
0.00274591
0.00274592
0.00274592
0.0027459
0.00274583
0.00274576
0.00274567
0.00274561
0.00274556
0.00274555
0.00274556
0.00274558
0.0027456
0.00274561
0.00274563
0.00274565
0.00274567
0.00274568
0.0027457
0.0027457
0.00274571
0.00279566
0.0027957
0.00279572
0.00279573
0.00279574
0.00279574
0.00279574
0.00279574
0.00279574
0.00279575
0.00279575
0.00279575
0.00279575
0.00279576
0.00279576
0.00279576
0.00279577
0.00279577
0.00279578
0.00279578
0.00279579
0.00279579
0.00279578
0.00279572
0.00279565
0.00279557
0.0027955
0.00279545
0.00279542
0.00279543
0.00279545
0.00279546
0.00279548
0.0027955
0.00279552
0.00279553
0.00279555
0.00279556
0.00279557
0.00279558
0.00283005
0.00283008
0.00283009
0.0028301
0.00283011
0.00283011
0.00283011
0.00283011
0.00283011
0.00283011
0.00283011
0.00283011
0.00283011
0.00283011
0.00283011
0.00283012
0.00283012
0.00283012
0.00283013
0.00283013
0.00283014
0.00283014
0.00283013
0.00283008
0.00283001
0.00282993
0.00282987
0.00282981
0.00282978
0.00282979
0.0028298
0.00282981
0.00282982
0.00282985
0.00282986
0.00282988
0.00282989
0.00282991
0.00282991
0.00282994
0.00284802
0.00284802
0.00284802
0.00284802
0.00284802
0.00284801
0.00284801
0.00284801
0.00284801
0.00284801
0.002848
0.002848
0.002848
0.002848
0.002848
0.002848
0.00284801
0.00284801
0.00284801
0.00284801
0.00284802
0.00284802
0.00284801
0.00284798
0.00284791
0.00284783
0.00284776
0.0028477
0.00284767
0.00284767
0.00284768
0.00284769
0.00284771
0.00284773
0.00284774
0.00284776
0.00284778
0.00284778
0.0028478
0.00284783
0.002848
0.002848
0.00284801
0.00284801
0.00284801
0.002848
0.002848
0.002848
0.002848
0.00284799
0.00284799
0.00284799
0.00284799
0.00284799
0.00284799
0.00284799
0.00284799
0.00284799
0.002848
0.002848
0.002848
0.00284801
0.002848
0.00284797
0.0028479
0.00284782
0.00284775
0.00284769
0.00284766
0.00284766
0.00284766
0.00284768
0.0028477
0.00284772
0.00284773
0.00284775
0.00284776
0.00284778
0.00284779
0.00284782
0.00282998
0.00283003
0.00283006
0.00283007
0.00283007
0.00283008
0.00283008
0.00283008
0.00283008
0.00283008
0.00283008
0.00283008
0.00283008
0.00283008
0.00283008
0.00283008
0.00283008
0.00283008
0.00283008
0.00283009
0.00283009
0.00283009
0.00283009
0.00283006
0.00282999
0.0028299
0.00282983
0.00282977
0.00282975
0.00282974
0.00282975
0.00282977
0.00282979
0.0028298
0.00282983
0.00282984
0.00282986
0.00282988
0.00282989
0.0028299
0.00279558
0.00279564
0.00279567
0.00279568
0.00279568
0.00279569
0.00279569
0.00279569
0.00279569
0.0027957
0.0027957
0.0027957
0.0027957
0.0027957
0.0027957
0.0027957
0.0027957
0.0027957
0.0027957
0.00279571
0.00279571
0.00279572
0.00279571
0.00279568
0.0027956
0.00279551
0.00279544
0.00279539
0.00279536
0.00279537
0.00279538
0.0027954
0.00279541
0.00279543
0.00279546
0.00279548
0.00279549
0.00279551
0.00279551
0.00279553
0.0027457
0.00274575
0.00274577
0.00274578
0.00274578
0.00274578
0.00274578
0.00274578
0.00274579
0.00274579
0.00274579
0.0027458
0.0027458
0.0027458
0.0027458
0.0027458
0.0027458
0.0027458
0.0027458
0.0027458
0.00274581
0.00274581
0.00274581
0.00274577
0.00274569
0.0027456
0.00274553
0.00274548
0.00274547
0.00274548
0.00274549
0.0027455
0.00274552
0.00274554
0.00274557
0.00274559
0.00274561
0.00274562
0.00274562
0.00274564
0.00268086
0.0026809
0.00268092
0.00268092
0.00268093
0.00268093
0.00268093
0.00268093
0.00268093
0.00268093
0.00268094
0.00268094
0.00268094
0.00268095
0.00268094
0.00268094
0.00268094
0.00268094
0.00268095
0.00268095
0.00268096
0.00268096
0.00268096
0.00268092
0.00268083
0.00268074
0.00268067
0.00268063
0.00268063
0.00268063
0.00268064
0.00268066
0.00268068
0.0026807
0.00268072
0.00268075
0.00268077
0.00268077
0.00268077
0.00268079
0.00260134
0.00260138
0.00260139
0.00260139
0.00260139
0.0026014
0.0026014
0.0026014
0.0026014
0.0026014
0.00260141
0.0026014
0.00260141
0.00260141
0.00260141
0.00260141
0.00260141
0.00260142
0.00260142
0.00260143
0.00260143
0.00260144
0.00260144
0.00260139
0.0026013
0.00260121
0.00260114
0.0026011
0.0026011
0.00260111
0.00260112
0.00260113
0.00260115
0.00260118
0.0026012
0.00260123
0.00260124
0.00260124
0.00260124
0.00260126
0.00250718
0.00250722
0.00250724
0.00250724
0.00250724
0.00250724
0.00250724
0.00250725
0.00250724
0.00250725
0.00250725
0.00250725
0.00250725
0.00250725
0.00250726
0.00250726
0.00250726
0.00250727
0.00250727
0.00250727
0.00250728
0.00250728
0.00250727
0.00250723
0.00250714
0.00250706
0.00250699
0.00250695
0.00250695
0.00250695
0.00250697
0.00250698
0.002507
0.00250703
0.00250705
0.00250707
0.00250708
0.00250708
0.00250709
0.0025071
0.00239827
0.00239833
0.00239835
0.00239835
0.00239835
0.00239835
0.00239836
0.00239836
0.00239836
0.00239836
0.00239836
0.00239836
0.00239836
0.00239837
0.00239837
0.00239837
0.00239838
0.00239838
0.00239838
0.00239838
0.00239838
0.00239838
0.00239837
0.00239834
0.00239825
0.00239817
0.0023981
0.00239806
0.00239806
0.00239807
0.00239808
0.0023981
0.00239812
0.00239814
0.00239816
0.00239818
0.00239819
0.00239819
0.00239819
0.0023982
0.00227446
0.00227454
0.00227455
0.00227455
0.00227455
0.00227455
0.00227455
0.00227455
0.00227455
0.00227455
0.00227455
0.00227455
0.00227455
0.00227455
0.00227455
0.00227456
0.00227456
0.00227456
0.00227456
0.00227455
0.00227455
0.00227456
0.00227455
0.00227452
0.00227444
0.00227436
0.0022743
0.00227426
0.00227426
0.00227427
0.00227428
0.0022743
0.00227432
0.00227434
0.00227435
0.00227437
0.00227438
0.00227437
0.00227438
0.00227438
0.00213565
0.00213567
0.00213566
0.00213565
0.00213565
0.00213565
0.00213564
0.00213564
0.00213564
0.00213564
0.00213564
0.00213564
0.00213564
0.00213563
0.00213563
0.00213563
0.00213563
0.00213563
0.00213563
0.00213563
0.00213563
0.00213564
0.00213564
0.00213561
0.00213554
0.00213546
0.0021354
0.00213537
0.00213537
0.00213538
0.0021354
0.00213541
0.00213542
0.00213544
0.00213546
0.00213547
0.00213547
0.00213547
0.00213547
0.0021355
0.00198158
0.0019816
0.0019816
0.00198159
0.00198158
0.00198158
0.00198157
0.00198157
0.00198157
0.00198157
0.00198157
0.00198156
0.00198156
0.00198156
0.00198156
0.00198156
0.00198156
0.00198156
0.00198156
0.00198156
0.00198156
0.00198157
0.00198157
0.00198155
0.00198148
0.00198141
0.00198136
0.00198133
0.00198133
0.00198135
0.00198136
0.00198137
0.00198138
0.00198139
0.00198141
0.00198142
0.00198141
0.00198141
0.00198141
0.00198144
0.00181255
0.00181255
0.00181256
0.00181255
0.00181255
0.00181255
0.00181255
0.00181255
0.00181254
0.00181254
0.00181254
0.00181254
0.00181254
0.00181254
0.00181254
0.00181254
0.00181254
0.00181254
0.00181254
0.00181255
0.00181255
0.00181256
0.00181255
0.00181253
0.00181247
0.00181241
0.00181237
0.00181235
0.00181235
0.00181236
0.00181237
0.00181238
0.00181239
0.0018124
0.00181241
0.00181241
0.00181241
0.00181241
0.00181241
0.00181243
0.00162918
0.00162918
0.00162919
0.00162919
0.00162919
0.0016292
0.0016292
0.0016292
0.0016292
0.00162921
0.00162921
0.00162921
0.00162921
0.00162921
0.00162921
0.00162921
0.00162921
0.00162921
0.00162922
0.00162922
0.00162922
0.00162923
0.00162922
0.0016292
0.00162915
0.00162911
0.00162908
0.00162906
0.00162905
0.00162906
0.00162906
0.00162907
0.00162908
0.00162909
0.00162909
0.00162909
0.00162909
0.00162909
0.0016291
0.00162911
0.00143274
0.00143276
0.00143279
0.0014328
0.00143281
0.00143281
0.00143282
0.00143283
0.00143283
0.00143284
0.00143284
0.00143285
0.00143285
0.00143285
0.00143285
0.00143285
0.00143286
0.00143286
0.00143286
0.00143286
0.00143286
0.00143287
0.00143286
0.00143284
0.0014328
0.00143277
0.00143274
0.00143273
0.00143272
0.00143272
0.00143273
0.00143273
0.00143274
0.00143274
0.00143275
0.00143275
0.00143275
0.00143275
0.00143275
0.00143274
0.00122551
0.00122552
0.00122554
0.00122555
0.00122556
0.00122557
0.00122558
0.00122559
0.0012256
0.00122561
0.00122561
0.00122562
0.00122562
0.00122563
0.00122563
0.00122563
0.00122563
0.00122563
0.00122563
0.00122564
0.00122564
0.00122564
0.00122563
0.00122562
0.00122559
0.00122557
0.00122554
0.00122553
0.00122552
0.00122552
0.00122553
0.00122553
0.00122553
0.00122553
0.00122554
0.00122554
0.00122554
0.00122554
0.00122554
0.00122553
0.00101068
0.00101069
0.0010107
0.00101071
0.00101072
0.00101073
0.00101074
0.00101075
0.00101076
0.00101076
0.00101077
0.00101078
0.00101078
0.00101078
0.00101079
0.00101079
0.00101079
0.00101079
0.00101079
0.0010108
0.0010108
0.0010108
0.00101079
0.00101078
0.00101076
0.00101074
0.00101073
0.00101072
0.00101071
0.00101071
0.00101071
0.00101071
0.00101071
0.00101071
0.00101072
0.00101072
0.00101072
0.00101072
0.00101072
0.00101071
0.000792608
0.000792613
0.000792616
0.00079262
0.000792625
0.000792631
0.000792638
0.000792645
0.000792652
0.000792659
0.000792665
0.00079267
0.000792675
0.000792679
0.000792682
0.000792684
0.000792686
0.000792687
0.000792688
0.000792689
0.000792689
0.000792688
0.000792684
0.000792674
0.000792663
0.000792651
0.000792641
0.000792633
0.000792628
0.000792626
0.000792626
0.000792626
0.000792627
0.000792629
0.00079263
0.000792631
0.000792632
0.000792632
0.000792632
0.000792626
0.000575995
0.00057599
0.000575987
0.000575986
0.000575988
0.00057599
0.000575994
0.000575998
0.000576003
0.000576008
0.000576013
0.000576017
0.000576021
0.000576024
0.000576026
0.000576028
0.00057603
0.000576031
0.000576031
0.000576031
0.000576031
0.00057603
0.000576027
0.000576021
0.000576014
0.000576007
0.000576001
0.000575996
0.000575993
0.000575991
0.000575991
0.000575991
0.000575991
0.000575992
0.000575993
0.000575994
0.000575994
0.000575994
0.000575995
0.000575992
0.0003621
0.000362099
0.000362097
0.000362096
0.000362096
0.000362097
0.000362098
0.0003621
0.000362103
0.000362105
0.000362108
0.00036211
0.000362113
0.000362114
0.000362116
0.000362117
0.000362118
0.000362118
0.000362119
0.000362119
0.000362119
0.000362118
0.000362116
0.000362113
0.00036211
0.000362106
0.000362103
0.000362101
0.000362099
0.000362098
0.000362098
0.000362098
0.000362098
0.000362099
0.000362099
0.000362099
0.0003621
0.0003621
0.0003621
0.0003621
0.000109005
0.000109005
0.000109005
0.000109004
0.000109004
0.000109004
0.000109004
0.000109004
0.000109004
0.000109005
0.000109006
0.000109007
0.000109007
0.000109008
0.000109009
0.000109009
0.00010901
0.00010901
0.00010901
0.00010901
0.00010901
0.00010901
0.000109009
0.000109009
0.000109008
0.000109007
0.000109006
0.000109005
0.000109005
0.000109004
0.000109004
0.000109004
0.000109004
0.000109004
0.000109004
0.000109004
0.000109004
0.000109004
0.000109005
0.000109005
)
;

boundaryField
{
    bottomWall
    {
        type            nutkWallFunction;
        Cmu             0.09;
        kappa           0.41;
        E               9.8;
        value           uniform 0;
    }
    topWall
    {
        type            nutkWallFunction;
        Cmu             0.09;
        kappa           0.41;
        E               9.8;
        value           uniform 0;
    }
    sides1_half0
    {
        type            empty;
    }
    sides1_half1
    {
        type            empty;
    }
    sides2_half0
    {
        type            empty;
    }
    sides2_half1
    {
        type            empty;
    }
    inout1_half0
    {
        type            cyclic;
    }
    inout1_half1
    {
        type            cyclic;
    }
    inout2_half0
    {
        type            cyclic;
    }
    inout2_half1
    {
        type            cyclic;
    }
}


// ************************************************************************* //
