/*--------------------------------*- C++ -*----------------------------------*\
  =========                 |
  \\      /  F ield         | OpenFOAM: The Open Source CFD Toolbox
   \\    /   O peration     | Website:  https://openfoam.org
    \\  /    A nd           | Version:  dev
     \\/     M anipulation  |

   OpenFOAM for Windows 20.09 (v1)
   Built by CFD Support, www.cfdsupport.com (based on Symscape).
\*---------------------------------------------------------------------------*/
FoamFile
{
    version     2.0;
    format      ascii;
    class       volScalarField;
    location    "90";
    object      p;
}
// * * * * * * * * * * * * * * * * * * * * * * * * * * * * * * * * * * * * * //

dimensions      [0 2 -2 0 0 0 0];

internalField   nonuniform List<scalar> 
1600
(
4.00673e-09
1.68874e-09
-2.51207e-09
-1.01899e-09
2.75275e-09
4.72927e-09
5.13788e-09
5.33492e-09
5.77258e-09
6.278e-09
6.71805e-09
7.11071e-09
7.51627e-09
7.94719e-09
8.38608e-09
8.81083e-09
9.25079e-09
9.71099e-09
1.02633e-08
1.10034e-08
1.21192e-08
1.36566e-08
1.51755e-08
1.55726e-08
1.48058e-08
1.34458e-08
1.20014e-08
1.03247e-08
8.72578e-09
7.17639e-09
6.22402e-09
5.48389e-09
5.13996e-09
4.69272e-09
4.4995e-09
4.26874e-09
3.98583e-09
4.12161e-09
9.51267e-10
5.75305e-10
4.45153e-09
6.16223e-10
-2.60306e-09
5.85817e-11
3.70011e-09
5.21981e-09
5.49839e-09
5.62674e-09
5.98128e-09
6.44153e-09
6.88005e-09
7.28528e-09
7.6943e-09
8.10733e-09
8.52497e-09
8.92723e-09
9.3438e-09
9.76192e-09
1.02555e-08
1.09192e-08
1.19407e-08
1.32926e-08
1.44948e-08
1.49149e-08
1.43378e-08
1.30897e-08
1.15101e-08
9.71287e-09
8.13386e-09
6.86572e-09
6.13987e-09
5.54528e-09
5.2492e-09
4.75479e-09
4.65572e-09
4.1663e-09
4.2923e-09
3.9997e-09
3.50876e-10
1.54025e-09
4.7969e-09
-6.13393e-10
-2.43069e-09
1.29869e-09
4.42731e-09
5.42759e-09
5.63074e-09
5.77896e-09
6.08043e-09
6.45625e-09
6.83411e-09
7.20857e-09
7.60108e-09
8.00199e-09
8.41767e-09
8.82621e-09
9.2486e-09
9.66429e-09
1.01424e-08
1.07732e-08
1.1746e-08
1.3054e-08
1.42351e-08
1.45258e-08
1.39844e-08
1.27632e-08
1.12082e-08
9.53073e-09
8.15174e-09
7.06404e-09
6.40498e-09
5.75252e-09
5.41295e-09
4.82783e-09
4.78227e-09
4.08089e-09
4.5951e-09
3.67442e-09
-3.68621e-10
2.77186e-09
4.92278e-09
-1.50453e-09
-1.81266e-09
2.64527e-09
5.11459e-09
5.64662e-09
5.78648e-09
5.93916e-09
6.17757e-09
6.47122e-09
6.79944e-09
7.15259e-09
7.52972e-09
7.91732e-09
8.32895e-09
8.74185e-09
9.16577e-09
9.57867e-09
1.00403e-08
1.06374e-08
1.15626e-08
1.27839e-08
1.38058e-08
1.40154e-08
1.35041e-08
1.23388e-08
1.08592e-08
9.33639e-09
8.17276e-09
7.22993e-09
6.59476e-09
5.88586e-09
5.53752e-09
4.86284e-09
4.89659e-09
4.01257e-09
4.88057e-09
3.19095e-09
-1.00443e-09
3.97174e-09
4.92293e-09
-2.05964e-09
-9.51122e-10
3.89665e-09
5.70673e-09
5.84974e-09
5.93924e-09
6.09216e-09
6.27408e-09
6.50225e-09
6.79752e-09
7.13362e-09
7.48841e-09
7.85709e-09
8.26097e-09
8.67349e-09
9.09237e-09
9.49795e-09
9.9385e-09
1.04953e-08
1.13481e-08
1.24295e-08
1.32491e-08
1.33693e-08
1.28983e-08
1.18149e-08
1.04523e-08
9.14837e-09
8.19359e-09
7.32901e-09
6.71199e-09
5.97206e-09
5.62212e-09
4.8814e-09
5.01016e-09
3.98198e-09
5.12865e-09
2.66234e-09
-1.27979e-09
5.28039e-09
5.06969e-09
-2.50364e-09
-1.52677e-10
4.87433e-09
6.12371e-09
5.98154e-09
6.05464e-09
6.2188e-09
6.35505e-09
6.53735e-09
6.81349e-09
7.12721e-09
7.44986e-09
7.79859e-09
8.19469e-09
8.60246e-09
9.01158e-09
9.40456e-09
9.82017e-09
1.03275e-08
1.10765e-08
1.19663e-08
1.25657e-08
1.26104e-08
1.21993e-08
1.12351e-08
1.00732e-08
9.02011e-09
8.20051e-09
7.37619e-09
6.78134e-09
6.02252e-09
5.67968e-09
4.90451e-09
5.12559e-09
4.01871e-09
5.32748e-09
2.20297e-09
-1.02992e-09
7.01705e-09
5.38228e-09
-2.66791e-09
5.7853e-10
5.58408e-09
6.38114e-09
6.04881e-09
6.13754e-09
6.31349e-09
6.41241e-09
6.57352e-09
6.83621e-09
7.11483e-09
7.40386e-09
7.73893e-09
8.12627e-09
8.52401e-09
8.91878e-09
9.2931e-09
9.67896e-09
1.012e-08
1.07274e-08
1.1382e-08
1.17656e-08
1.17608e-08
1.14353e-08
1.06634e-08
9.76498e-09
8.91097e-09
8.16253e-09
7.38303e-09
6.78888e-09
6.03965e-09
5.72995e-09
4.95587e-09
5.27063e-09
4.13379e-09
5.47474e-09
1.92237e-09
-3.23243e-10
8.85251e-09
5.80544e-09
-2.49391e-09
1.28238e-09
6.12516e-09
6.54628e-09
6.09463e-09
6.20378e-09
6.37279e-09
6.45252e-09
6.61394e-09
6.8529e-09
7.09049e-09
7.35971e-09
7.68599e-09
8.05885e-09
8.44283e-09
8.81545e-09
9.16517e-09
9.50484e-09
9.85299e-09
1.0292e-08
1.06881e-08
1.08719e-08
1.08495e-08
1.06459e-08
1.01338e-08
9.48965e-09
8.77347e-09
8.08007e-09
7.32788e-09
6.75998e-09
6.05903e-09
5.77549e-09
5.07796e-09
5.46366e-09
4.30586e-09
5.61231e-09
1.87692e-09
6.69865e-10
1.04962e-08
6.32896e-09
-2.0831e-09
1.92795e-09
6.54276e-09
6.68163e-09
6.15038e-09
6.25151e-09
6.39856e-09
6.48727e-09
6.65194e-09
6.85112e-09
7.06332e-09
7.32932e-09
7.64834e-09
8.00327e-09
8.36805e-09
8.70181e-09
9.00634e-09
9.28093e-09
9.52195e-09
9.7818e-09
9.91973e-09
9.9342e-09
9.92393e-09
9.86573e-09
9.61779e-09
9.18988e-09
8.59104e-09
7.95974e-09
7.25502e-09
6.73822e-09
6.08564e-09
5.86198e-09
5.2835e-09
5.67266e-09
4.50922e-09
5.76256e-09
2.06696e-09
1.80154e-09
1.18901e-08
6.92197e-09
-1.54574e-09
2.4858e-09
6.86781e-09
6.8162e-09
6.21484e-09
6.27448e-09
6.40846e-09
6.52044e-09
6.6721e-09
6.83417e-09
7.04464e-09
7.31709e-09
7.62862e-09
7.96161e-09
8.27914e-09
8.56895e-09
8.82121e-09
9.01074e-09
9.14855e-09
9.22619e-09
9.13228e-09
9.01668e-09
9.02773e-09
9.1097e-09
9.08097e-09
8.84374e-09
8.37511e-09
7.81761e-09
7.20002e-09
6.72361e-09
6.14259e-09
6.02281e-09
5.53341e-09
5.86309e-09
4.72475e-09
5.9263e-09
2.46554e-09
2.99846e-09
1.30377e-08
7.55699e-09
-9.49558e-10
2.93763e-09
7.10626e-09
6.93988e-09
6.27176e-09
6.28069e-09
6.42265e-09
6.54527e-09
6.66986e-09
6.82267e-09
7.04258e-09
7.319e-09
7.61432e-09
7.91173e-09
8.17175e-09
8.41852e-09
8.61357e-09
8.71903e-09
8.76435e-09
8.66654e-09
8.38064e-09
8.16835e-09
8.19402e-09
8.38241e-09
8.52469e-09
8.46636e-09
8.12649e-09
7.6793e-09
7.1555e-09
6.71932e-09
6.27118e-09
6.23549e-09
5.79914e-09
6.01807e-09
4.94423e-09
6.12063e-09
3.01211e-09
4.17921e-09
1.39528e-08
8.23663e-09
-3.26021e-10
3.25359e-09
7.24156e-09
7.03426e-09
6.31274e-09
6.28157e-09
6.4388e-09
6.56242e-09
6.6752e-09
6.8379e-09
7.06224e-09
7.32321e-09
7.58626e-09
7.83285e-09
8.06127e-09
8.25645e-09
8.37875e-09
8.43813e-09
8.39624e-09
8.1417e-09
7.70603e-09
7.4208e-09
7.44812e-09
7.69383e-09
7.96913e-09
8.06351e-09
7.86404e-09
7.5509e-09
7.11443e-09
6.76885e-09
6.47334e-09
6.46526e-09
6.03315e-09
6.14853e-09
5.19805e-09
6.35682e-09
3.64871e-09
5.22887e-09
1.46098e-08
8.93871e-09
2.61412e-10
3.39705e-09
7.26758e-09
7.10073e-09
6.35054e-09
6.29279e-09
6.45833e-09
6.58907e-09
6.71062e-09
6.87704e-09
7.0885e-09
7.31536e-09
7.5411e-09
7.74888e-09
7.93569e-09
8.07524e-09
8.15954e-09
8.18614e-09
8.05934e-09
7.68359e-09
7.13981e-09
6.7935e-09
6.81011e-09
7.07267e-09
7.42961e-09
7.65036e-09
7.61361e-09
7.41534e-09
7.08748e-09
6.89477e-09
6.69804e-09
6.65492e-09
6.22737e-09
6.30587e-09
5.50622e-09
6.61619e-09
4.29855e-09
6.07915e-09
1.50391e-08
9.53464e-09
7.58498e-10
3.41747e-09
7.24175e-09
7.17636e-09
6.4166e-09
6.33004e-09
6.4959e-09
6.63372e-09
6.75769e-09
6.91606e-09
7.10152e-09
7.29925e-09
7.49702e-09
7.66926e-09
7.80688e-09
7.91226e-09
7.97952e-09
7.9605e-09
7.76515e-09
7.31383e-09
6.70576e-09
6.30746e-09
6.28757e-09
6.53069e-09
6.91411e-09
7.25365e-09
7.36829e-09
7.27838e-09
7.10371e-09
7.03208e-09
6.87474e-09
6.80735e-09
6.43478e-09
6.50976e-09
5.83548e-09
6.86172e-09
4.88363e-09
6.69856e-09
1.52191e-08
9.88209e-09
1.39652e-09
3.55135e-09
7.27858e-09
7.30979e-09
6.52899e-09
6.39764e-09
6.54693e-09
6.67784e-09
6.79645e-09
6.9425e-09
7.10774e-09
7.28688e-09
7.46077e-09
7.60126e-09
7.71417e-09
7.79876e-09
7.83091e-09
7.76586e-09
7.52281e-09
7.04077e-09
6.41309e-09
5.96059e-09
5.86818e-09
6.06509e-09
6.44923e-09
6.87487e-09
7.11696e-09
7.16357e-09
7.13527e-09
7.12867e-09
7.00906e-09
6.95478e-09
6.65069e-09
6.72565e-09
6.14812e-09
7.06769e-09
5.36674e-09
6.99654e-09
1.48522e-08
1.00471e-08
2.13615e-09
3.75146e-09
7.3531e-09
7.47996e-09
6.67106e-09
6.4774e-09
6.59233e-09
6.71373e-09
6.82961e-09
6.96564e-09
7.11913e-09
7.28291e-09
7.43839e-09
7.566e-09
7.66225e-09
7.71787e-09
7.71251e-09
7.60875e-09
7.33678e-09
6.85526e-09
6.2326e-09
5.72792e-09
5.55104e-09
5.6861e-09
6.05388e-09
6.51829e-09
6.86144e-09
7.05595e-09
7.14433e-09
7.18656e-09
7.117e-09
7.08314e-09
6.84279e-09
6.9153e-09
6.42039e-09
7.22731e-09
5.73928e-09
7.04752e-09
1.41001e-08
1.01853e-08
2.71045e-09
3.83637e-09
7.3594e-09
7.62737e-09
6.80821e-09
6.54784e-09
6.63325e-09
6.75256e-09
6.86352e-09
6.99094e-09
7.13616e-09
7.28947e-09
7.43284e-09
7.54813e-09
7.62641e-09
7.65729e-09
7.62178e-09
7.48759e-09
7.20141e-09
6.73346e-09
6.12912e-09
5.59113e-09
5.33791e-09
5.40528e-09
5.73021e-09
6.19221e-09
6.61529e-09
6.92954e-09
7.11208e-09
7.20875e-09
7.1866e-09
7.17822e-09
6.99243e-09
7.05596e-09
6.64001e-09
7.35033e-09
6.04216e-09
7.03816e-09
1.34275e-08
1.03358e-08
3.16774e-09
3.81806e-09
7.28667e-09
7.73001e-09
6.9223e-09
6.60808e-09
6.67192e-09
6.78715e-09
6.89214e-09
7.01262e-09
7.15125e-09
7.29499e-09
7.42692e-09
7.53088e-09
7.59533e-09
7.60884e-09
7.5517e-09
7.39756e-09
7.10773e-09
6.66053e-09
6.08627e-09
5.53598e-09
5.21803e-09
5.21334e-09
5.47773e-09
5.91475e-09
6.38628e-09
6.78554e-09
7.04467e-09
7.19617e-09
7.22009e-09
7.23821e-09
7.08865e-09
7.14734e-09
6.80535e-09
7.44448e-09
6.3021e-09
7.00733e-09
1.2865e-08
1.04845e-08
3.56426e-09
3.7469e-09
7.15787e-09
7.77638e-09
6.99805e-09
6.64608e-09
6.69143e-09
6.80396e-09
6.90663e-09
7.0225e-09
7.15518e-09
7.29126e-09
7.41569e-09
7.51309e-09
7.57019e-09
7.57306e-09
7.50337e-09
7.33991e-09
7.05538e-09
6.63251e-09
6.09003e-09
5.53726e-09
5.1662e-09
5.0899e-09
5.29546e-09
5.70604e-09
6.19447e-09
6.64553e-09
6.9643e-09
7.16258e-09
7.22794e-09
7.26444e-09
7.14278e-09
7.20519e-09
6.92199e-09
7.5016e-09
6.49207e-09
6.94843e-09
1.23793e-08
1.05553e-08
3.77947e-09
3.63716e-09
6.99824e-09
7.74724e-09
7.01234e-09
6.64705e-09
6.68718e-09
6.80327e-09
6.90748e-09
7.02209e-09
7.15248e-09
7.286e-09
7.40865e-09
7.50463e-09
7.55965e-09
7.55899e-09
7.4856e-09
7.3215e-09
7.047e-09
6.6471e-09
6.13142e-09
5.57658e-09
5.15624e-09
5.01878e-09
5.18026e-09
5.56982e-09
6.06573e-09
6.54372e-09
6.89738e-09
7.12774e-09
7.22031e-09
7.27268e-09
7.17491e-09
7.23819e-09
6.98143e-09
7.51336e-09
6.58073e-09
6.88019e-09
1.20455e-08
1.04255e-08
3.65602e-09
3.49857e-09
6.88609e-09
7.67895e-09
6.96891e-09
6.61864e-09
6.67033e-09
6.79499e-09
6.904e-09
7.0215e-09
7.15363e-09
7.28884e-09
7.41512e-09
7.51464e-09
7.57328e-09
7.5762e-09
7.50668e-09
7.34861e-09
7.08631e-09
6.7045e-09
6.20426e-09
5.63886e-09
5.17285e-09
4.98923e-09
5.12779e-09
5.51408e-09
6.01845e-09
6.50444e-09
6.86545e-09
7.10793e-09
7.21426e-09
7.27651e-09
7.18284e-09
7.24173e-09
6.97372e-09
7.48231e-09
6.52534e-09
6.78293e-09
1.19074e-08
1.01045e-08
3.17763e-09
3.31423e-09
6.81966e-09
7.57073e-09
6.87182e-09
6.5632e-09
6.6432e-09
6.78055e-09
6.8971e-09
7.02159e-09
7.15993e-09
7.30396e-09
7.43812e-09
7.54647e-09
7.61477e-09
7.62676e-09
7.56674e-09
7.42042e-09
7.17169e-09
6.80373e-09
6.30728e-09
5.71911e-09
5.21291e-09
5.00339e-09
5.14089e-09
5.54047e-09
6.05116e-09
6.52931e-09
6.87373e-09
7.10793e-09
7.2102e-09
7.26886e-09
7.15605e-09
7.20695e-09
6.89416e-09
7.41081e-09
6.33154e-09
6.65908e-09
1.19697e-08
9.66585e-09
2.4531e-09
3.07887e-09
6.75059e-09
7.415e-09
6.72571e-09
6.47739e-09
6.59341e-09
6.74685e-09
6.87563e-09
7.01396e-09
7.17117e-09
7.33015e-09
7.47635e-09
7.59894e-09
7.68094e-09
7.7035e-09
7.65673e-09
7.52821e-09
7.29689e-09
6.94404e-09
6.44472e-09
5.8308e-09
5.29407e-09
5.07334e-09
5.22292e-09
5.63635e-09
6.14525e-09
6.59595e-09
6.90124e-09
7.1123e-09
7.19381e-09
7.23856e-09
7.09109e-09
7.1337e-09
6.7546e-09
7.2962e-09
6.04139e-09
6.53876e-09
1.21975e-08
9.15938e-09
1.59654e-09
2.80715e-09
6.66872e-09
7.23735e-09
6.55498e-09
6.36518e-09
6.51659e-09
6.68942e-09
6.8385e-09
7.00162e-09
7.18642e-09
7.36941e-09
7.53359e-09
7.6686e-09
7.76094e-09
7.79436e-09
7.76671e-09
7.66343e-09
7.45717e-09
7.12377e-09
6.62776e-09
5.99436e-09
5.4341e-09
5.21346e-09
5.37273e-09
5.77925e-09
6.26672e-09
6.67155e-09
6.92426e-09
7.11404e-09
7.16132e-09
7.18371e-09
6.99451e-09
7.02704e-09
6.55162e-09
7.13177e-09
5.67655e-09
6.4032e-09
1.24957e-08
8.67205e-09
7.41782e-10
2.50345e-09
6.57422e-09
7.05347e-09
6.37435e-09
6.24171e-09
6.43108e-09
6.62377e-09
6.79803e-09
6.99335e-09
7.20889e-09
7.41591e-09
7.59697e-09
7.74127e-09
7.83843e-09
7.89015e-09
7.89442e-09
7.81785e-09
7.64372e-09
7.34005e-09
6.85403e-09
6.22033e-09
5.65852e-09
5.43704e-09
5.5795e-09
5.95572e-09
6.39987e-09
6.74926e-09
6.96131e-09
7.11827e-09
7.10359e-09
7.09392e-09
6.84712e-09
6.86872e-09
6.29378e-09
6.94514e-09
5.26283e-09
6.2345e-09
1.28349e-08
8.23833e-09
1.02074e-14
2.27139e-09
6.49454e-09
6.8681e-09
6.19363e-09
6.1251e-09
6.35382e-09
6.56619e-09
6.76518e-09
6.99106e-09
7.23157e-09
7.45113e-09
7.64511e-09
7.80093e-09
7.90886e-09
7.99352e-09
8.0306e-09
7.98354e-09
7.85319e-09
7.58509e-09
7.12639e-09
6.53306e-09
5.98666e-09
5.74458e-09
5.83991e-09
6.16591e-09
6.55343e-09
6.85278e-09
7.02169e-09
7.1043e-09
6.99789e-09
6.9522e-09
6.64104e-09
6.67987e-09
6.01808e-09
6.74898e-09
4.80838e-09
6.01714e-09
1.31956e-08
7.82192e-09
-6.58813e-10
2.20615e-09
6.46495e-09
6.67851e-09
6.02167e-09
6.02386e-09
6.28687e-09
6.51472e-09
6.73251e-09
6.97738e-09
7.22577e-09
7.46019e-09
7.67357e-09
7.84718e-09
7.98671e-09
8.11507e-09
8.17766e-09
8.17119e-09
8.09371e-09
7.8631e-09
7.46324e-09
6.93803e-09
6.40071e-09
6.1205e-09
6.16768e-09
6.43865e-09
6.74914e-09
6.9805e-09
7.06865e-09
7.04548e-09
6.84581e-09
6.77455e-09
6.41465e-09
6.48513e-09
5.71337e-09
6.53398e-09
4.33747e-09
5.75764e-09
1.35628e-08
7.45987e-09
-1.23394e-09
2.17097e-09
6.42816e-09
6.48501e-09
5.86259e-09
5.9411e-09
6.22184e-09
6.45227e-09
6.67964e-09
6.93971e-09
7.20039e-09
7.45739e-09
7.69897e-09
7.90192e-09
8.09909e-09
8.26785e-09
8.36096e-09
8.40388e-09
8.35938e-09
8.17719e-09
7.85603e-09
7.38599e-09
6.86197e-09
6.57643e-09
6.58708e-09
6.7862e-09
6.98347e-09
7.11902e-09
7.08596e-09
6.94314e-09
6.66994e-09
6.58408e-09
6.16652e-09
6.26589e-09
5.38254e-09
6.34341e-09
3.87304e-09
5.40258e-09
1.38973e-08
7.10466e-09
-1.77044e-09
2.06766e-09
6.36104e-09
6.31989e-09
5.73389e-09
5.87364e-09
6.15946e-09
6.3884e-09
6.63239e-09
6.90996e-09
7.19229e-09
7.47916e-09
7.75067e-09
8.00305e-09
8.25366e-09
8.4498e-09
8.58418e-09
8.6573e-09
8.63331e-09
8.50949e-09
8.25135e-09
7.82917e-09
7.36872e-09
7.12197e-09
7.09859e-09
7.19159e-09
7.2494e-09
7.25477e-09
7.05675e-09
6.82207e-09
6.48785e-09
6.38169e-09
5.89327e-09
6.04642e-09
5.09476e-09
6.19909e-09
3.38827e-09
4.85029e-09
1.40633e-08
6.53092e-09
-2.1996e-09
2.01656e-09
6.34473e-09
6.24039e-09
5.67416e-09
5.84404e-09
6.1349e-09
6.36983e-09
6.62927e-09
6.91753e-09
7.22194e-09
7.53875e-09
7.84215e-09
8.14909e-09
8.42735e-09
8.64107e-09
8.80606e-09
8.89416e-09
8.89992e-09
8.82296e-09
8.60898e-09
8.26566e-09
7.93075e-09
7.74966e-09
7.68609e-09
7.64335e-09
7.51366e-09
7.34135e-09
6.99339e-09
6.70797e-09
6.30788e-09
6.18045e-09
5.64981e-09
5.88059e-09
4.86365e-09
6.0823e-09
2.89323e-09
4.0326e-09
1.36386e-08
5.74995e-09
-2.45504e-09
2.03915e-09
6.38834e-09
6.25098e-09
5.69727e-09
5.87097e-09
6.15918e-09
6.39651e-09
6.65491e-09
6.95183e-09
7.27575e-09
7.61538e-09
7.95544e-09
8.29236e-09
8.5837e-09
8.81556e-09
8.99627e-09
9.10838e-09
9.14214e-09
9.09635e-09
8.94031e-09
8.71199e-09
8.53989e-09
8.45708e-09
8.33268e-09
8.09505e-09
7.72926e-09
7.38112e-09
6.93093e-09
6.60916e-09
6.14117e-09
6.00654e-09
5.46285e-09
5.76673e-09
4.67302e-09
6.00613e-09
2.4595e-09
2.99153e-09
1.26173e-08
5.04475e-09
-2.56453e-09
1.97932e-09
6.36123e-09
6.28278e-09
5.75048e-09
5.90635e-09
6.17432e-09
6.40276e-09
6.66185e-09
6.97445e-09
7.31952e-09
7.68294e-09
8.04941e-09
8.40357e-09
8.7081e-09
8.96174e-09
9.16143e-09
9.29797e-09
9.35638e-09
9.34589e-09
9.2617e-09
9.17398e-09
9.19745e-09
9.22291e-09
8.98347e-09
8.51487e-09
7.91678e-09
7.41572e-09
6.88175e-09
6.5182e-09
5.98648e-09
5.87598e-09
5.31435e-09
5.66965e-09
4.54987e-09
5.97168e-09
2.16737e-09
1.90538e-09
1.13186e-08
4.64923e-09
-2.59339e-09
1.68323e-09
6.13761e-09
6.22951e-09
5.73896e-09
5.86426e-09
6.10362e-09
6.32686e-09
6.60334e-09
6.94523e-09
7.32136e-09
7.71381e-09
8.10504e-09
8.4814e-09
8.80748e-09
9.08448e-09
9.30281e-09
9.46436e-09
9.55054e-09
9.58446e-09
9.57971e-09
9.66307e-09
9.89647e-09
9.98436e-09
9.59625e-09
8.93323e-09
8.13295e-09
7.47311e-09
6.84366e-09
6.42444e-09
5.86138e-09
5.77586e-09
5.18712e-09
5.59444e-09
4.47925e-09
5.96262e-09
2.11559e-09
1.00072e-09
1.00735e-08
4.79741e-09
-2.57547e-09
1.03912e-09
5.5962e-09
5.9872e-09
5.58365e-09
5.68461e-09
5.90021e-09
6.13351e-09
6.44764e-09
6.83588e-09
7.25637e-09
7.69059e-09
8.11796e-09
8.52548e-09
8.87895e-09
9.18176e-09
9.41898e-09
9.60714e-09
9.72676e-09
9.81501e-09
9.90596e-09
1.01895e-08
1.05957e-08
1.0685e-08
1.01927e-08
9.38822e-09
8.40472e-09
7.57088e-09
6.81667e-09
6.34715e-09
5.77246e-09
5.67972e-09
5.08352e-09
5.52533e-09
4.43852e-09
5.97236e-09
2.356e-09
4.18188e-10
9.16902e-09
5.48397e-09
-2.30854e-09
1.55783e-10
4.72686e-09
5.54212e-09
5.27594e-09
5.35754e-09
5.55485e-09
5.81371e-09
6.18198e-09
6.63225e-09
7.11117e-09
7.60055e-09
8.07684e-09
8.52672e-09
8.91494e-09
9.24831e-09
9.50821e-09
9.72622e-09
9.88488e-09
1.00414e-08
1.02538e-08
1.07359e-08
1.12555e-08
1.13339e-08
1.07909e-08
9.87909e-09
8.72552e-09
7.71515e-09
6.8252e-09
6.2915e-09
5.68798e-09
5.57413e-09
5.00331e-09
5.43466e-09
4.43855e-09
5.96665e-09
2.85796e-09
1.93026e-10
8.49865e-09
6.42287e-09
-1.68143e-09
-6.96222e-10
3.70349e-09
4.98605e-09
4.88571e-09
4.92659e-09
5.09629e-09
5.38896e-09
5.82081e-09
6.34146e-09
6.88759e-09
7.44179e-09
7.9772e-09
8.47977e-09
8.91054e-09
9.28007e-09
9.56908e-09
9.82247e-09
1.0028e-08
1.02684e-08
1.06186e-08
1.12727e-08
1.18695e-08
1.19482e-08
1.13714e-08
1.03756e-08
9.07738e-09
7.90151e-09
6.86857e-09
6.23917e-09
5.60272e-09
5.45592e-09
4.93586e-09
5.32875e-09
4.4754e-09
5.89827e-09
3.53882e-09
3.40627e-10
7.85339e-09
7.0794e-09
-6.44059e-10
-1.23064e-09
2.68594e-09
4.44137e-09
4.53084e-09
4.47764e-09
4.58371e-09
4.91197e-09
5.41576e-09
6.00977e-09
6.62482e-09
7.24626e-09
7.84405e-09
8.40253e-09
8.87755e-09
9.28358e-09
9.6052e-09
9.89844e-09
1.0156e-08
1.04858e-08
1.0978e-08
1.17725e-08
1.24181e-08
1.25037e-08
1.18946e-08
1.08283e-08
9.41294e-09
8.09281e-09
6.92228e-09
6.18932e-09
5.52702e-09
5.33381e-09
4.87706e-09
5.2083e-09
4.53916e-09
5.74819e-09
4.26527e-09
8.33065e-10
6.98647e-09
7.16593e-09
8.25904e-10
-1.2413e-09
1.79815e-09
3.99174e-09
4.30949e-09
4.09512e-09
4.07733e-09
4.43909e-09
5.03529e-09
5.71613e-09
6.40566e-09
7.09368e-09
7.75008e-09
8.35714e-09
8.86562e-09
9.29416e-09
9.6388e-09
9.96714e-09
1.02704e-08
1.06763e-08
1.12971e-08
1.21954e-08
1.28591e-08
1.29422e-08
1.22952e-08
1.11594e-08
9.64853e-09
8.21326e-09
6.9371e-09
6.12254e-09
5.44751e-09
5.2176e-09
4.82123e-09
5.08018e-09
4.62476e-09
5.53369e-09
4.90143e-09
1.55758e-09
5.71881e-09
6.93892e-09
2.37972e-09
-8.55015e-10
1.07463e-09
3.59396e-09
4.20631e-09
3.81302e-09
3.6081e-09
3.96529e-09
4.66082e-09
5.44975e-09
6.23252e-09
6.99662e-09
7.71429e-09
8.36688e-09
8.90249e-09
9.34177e-09
9.69714e-09
1.00443e-08
1.03856e-08
1.08616e-08
1.15899e-08
1.25503e-08
1.32161e-08
1.32807e-08
1.25864e-08
1.1366e-08
9.76167e-09
8.22513e-09
6.86291e-09
6.00019e-09
5.32256e-09
5.0927e-09
4.74657e-09
4.94996e-09
4.75643e-09
5.29273e-09
5.35775e-09
2.31787e-09
4.46225e-09
6.65482e-09
3.5819e-09
-3.7515e-10
7.35919e-10
3.44864e-09
4.27187e-09
3.70999e-09
3.23549e-09
3.38509e-09
3.953e-09
4.68893e-09
5.48082e-09
6.30277e-09
7.10741e-09
7.86026e-09
8.52116e-09
9.10285e-09
9.59308e-09
1.00214e-08
1.04436e-08
1.11443e-08
1.21562e-08
1.3287e-08
1.40517e-08
1.4185e-08
1.34562e-08
1.21375e-08
1.03138e-08
8.5745e-09
6.97261e-09
5.98888e-09
5.22228e-09
4.93069e-09
4.64098e-09
4.70962e-09
4.7894e-09
4.90003e-09
5.51348e-09
2.92841e-09
3.6125e-09
)
;

boundaryField
{
    bottomWall
    {
        type            zeroGradient;
    }
    topWall
    {
        type            zeroGradient;
    }
    sides1_half0
    {
        type            empty;
    }
    sides1_half1
    {
        type            empty;
    }
    sides2_half0
    {
        type            empty;
    }
    sides2_half1
    {
        type            empty;
    }
    inout1_half0
    {
        type            cyclic;
    }
    inout1_half1
    {
        type            cyclic;
    }
    inout2_half0
    {
        type            cyclic;
    }
    inout2_half1
    {
        type            cyclic;
    }
}


// ************************************************************************* //
