/*--------------------------------*- C++ -*----------------------------------*\
  =========                 |
  \\      /  F ield         | OpenFOAM: The Open Source CFD Toolbox
   \\    /   O peration     | Website:  https://openfoam.org
    \\  /    A nd           | Version:  dev
     \\/     M anipulation  |

   OpenFOAM for Windows 20.09 (v1)
   Built by CFD Support, www.cfdsupport.com (based on Symscape).
\*---------------------------------------------------------------------------*/
FoamFile
{
    version     2.0;
    format      ascii;
    class       surfaceScalarField;
    location    "90";
    object      phi;
}
// * * * * * * * * * * * * * * * * * * * * * * * * * * * * * * * * * * * * * //

dimensions      [0 3 -1 0 0 0 0];

internalField   nonuniform List<scalar> 
3120
(
0.000606029
-1.47498e-09
0.000606029
-6.92427e-11
0.000606029
7.66675e-10
0.000606028
2.07808e-10
0.000606028
-1.68208e-10
0.000606029
-1.66117e-10
0.000606029
-1.09971e-10
0.000606029
-1.27693e-10
0.000606029
-1.6826e-10
0.000606029
-2.03588e-10
0.000606029
-2.34632e-10
0.00060603
-2.61726e-10
0.00060603
-2.78453e-10
0.00060603
-2.7677e-10
0.000606031
-2.57271e-10
0.000606031
-2.28994e-10
0.000606031
-1.89399e-10
0.000606031
-1.49603e-10
0.000606031
-1.17758e-10
0.000606031
-9.90805e-11
0.000606031
-7.629e-11
0.000606031
-3.19364e-11
0.000606031
3.81462e-11
0.000606031
1.34765e-10
0.000606031
2.12669e-10
0.000606031
3.34143e-10
0.00060603
4.29761e-10
0.00060603
5.61647e-10
0.000606029
5.15479e-10
0.000606029
4.99125e-10
0.000606028
2.89042e-10
0.000606028
2.89061e-10
0.000606028
8.84724e-11
0.000606028
1.63636e-10
0.000606028
-1.66195e-11
0.000606028
2.5405e-11
0.000606028
7.27945e-11
0.000606028
-3.38958e-10
0.000606027
6.91287e-10
-2.7436e-10
0.000720314
-1.63232e-09
0.000720314
4.21573e-10
0.000720313
1.06067e-09
0.000720313
2.57484e-10
0.000720313
-2.04445e-10
0.000720314
-2.48892e-10
0.000720314
-2.2309e-10
0.000720314
-2.5695e-10
0.000720314
-3.12097e-10
0.000720314
-3.59804e-10
0.000720314
-3.99193e-10
0.000720314
-4.32847e-10
0.000720315
-4.49501e-10
0.000720315
-4.41095e-10
0.000720315
-4.06378e-10
0.000720315
-3.57704e-10
0.000720315
-2.92347e-10
0.000720315
-2.28123e-10
0.000720315
-1.74322e-10
0.000720315
-1.45967e-10
0.000720315
-1.17578e-10
0.000720315
-6.64481e-11
0.000720315
3.1795e-11
0.000720315
1.76036e-10
0.000720315
3.33677e-10
0.000720315
5.23546e-10
0.000720315
6.81378e-10
0.000720315
8.28753e-10
0.000720314
7.7534e-10
0.000720314
7.20385e-10
0.000720314
4.78555e-10
0.000720314
4.56016e-10
0.000720314
2.05636e-10
0.000720313
2.80772e-10
0.000720313
3.17855e-12
0.000720313
9.93886e-11
0.000720313
-1.43492e-11
0.000720313
-2.76706e-10
0.000720313
6.58105e-10
-9.52129e-10
0.000794263
-1.18654e-09
0.000794262
8.33954e-10
0.000794262
1.06091e-09
0.000794262
2.02214e-10
0.000794262
-2.51091e-10
0.000794262
-3.34077e-10
0.000794263
-3.44128e-10
0.000794263
-3.9425e-10
0.000794263
-4.57059e-10
0.000794263
-5.07246e-10
0.000794263
-5.44474e-10
0.000794263
-5.72908e-10
0.000794263
-5.79716e-10
0.000794264
-5.58372e-10
0.000794264
-5.07742e-10
0.000794264
-4.39368e-10
0.000794264
-3.51513e-10
0.000794264
-2.64112e-10
0.000794264
-1.87369e-10
0.000794264
-1.42543e-10
0.000794264
-1.05206e-10
0.000794264
-5.92814e-11
0.000794264
4.73587e-11
0.000794264
2.2175e-10
0.000794264
4.32468e-10
0.000794263
6.6309e-10
0.000794263
8.44392e-10
0.000794263
9.66088e-10
0.000794263
9.0073e-10
0.000794263
8.24307e-10
0.000794263
6.07278e-10
0.000794263
5.62117e-10
0.000794263
3.19933e-10
0.000794263
3.59851e-10
0.000794262
5.60973e-11
0.000794262
1.44814e-10
0.000794263
-8.70046e-11
0.000794262
-1.8274e-10
0.000794263
3.33045e-10
-1.32365e-09
0.000856279
-6.43113e-10
0.000856279
1.06884e-09
0.000856279
9.5544e-10
0.000856279
1.32667e-10
0.000856279
-2.89447e-10
0.00085628
-4.07608e-10
0.00085628
-4.56218e-10
0.00085628
-5.25862e-10
0.00085628
-5.94739e-10
0.00085628
-6.43355e-10
0.00085628
-6.74364e-10
0.00085628
-6.91822e-10
0.00085628
-6.83297e-10
0.00085628
-6.45323e-10
0.000856281
-5.77987e-10
0.000856281
-4.89699e-10
0.000856281
-3.79671e-10
0.000856281
-2.67026e-10
0.000856281
-1.6332e-10
0.000856281
-9.43124e-11
0.00085628
-4.53536e-11
0.00085628
-6.27483e-12
0.00085628
9.4996e-11
0.00085628
2.78611e-10
0.00085628
5.17697e-10
0.00085628
7.64478e-10
0.00085628
9.40844e-10
0.00085628
1.02098e-09
0.00085628
9.54232e-10
0.00085628
8.73216e-10
0.00085628
6.94167e-10
0.00085628
6.26871e-10
0.00085628
4.15661e-10
0.00085628
4.06234e-10
0.00085628
1.14289e-10
0.00085628
1.5718e-10
0.00085628
-1.33799e-10
0.00085628
-1.27189e-10
0.00085628
-4.57371e-11
-1.43088e-09
0.000912838
-1.86732e-10
0.000912838
1.13068e-09
0.000912838
8.12465e-10
0.000912838
7.23459e-11
0.000912838
-3.15976e-10
0.000912838
-4.65555e-10
0.000912838
-5.51266e-10
0.000912838
-6.40691e-10
0.000912838
-7.14892e-10
0.000912838
-7.61844e-10
0.000912838
-7.86433e-10
0.000912839
-7.90916e-10
0.000912839
-7.65492e-10
0.000912839
-7.10498e-10
0.000912839
-6.26701e-10
0.000912839
-5.18543e-10
0.000912839
-3.85964e-10
0.000912839
-2.45652e-10
0.000912839
-1.11267e-10
0.000912839
-1.30003e-11
0.000912838
4.87924e-11
0.000912838
7.88346e-11
0.000912838
1.63626e-10
0.000912838
3.40139e-10
0.000912838
5.85717e-10
0.000912838
8.28011e-10
0.000912838
9.87047e-10
0.000912838
1.03933e-09
0.000912838
9.8169e-10
0.000912838
8.98324e-10
0.000912838
7.49579e-10
0.000912838
6.60841e-10
0.000912838
4.8432e-10
0.000912838
4.23404e-10
0.000912838
1.60259e-10
0.000912838
1.41919e-10
0.000912838
-1.58784e-10
0.000912838
-1.1845e-10
0.000912838
-3.69393e-10
-1.34927e-09
0.000966753
1.5866e-10
0.000966753
1.054e-09
0.000966753
6.43007e-10
0.000966754
8.06212e-12
0.000966754
-3.43441e-10
0.000966754
-5.14539e-10
0.000966754
-6.28745e-10
0.000966754
-7.325e-10
0.000966754
-8.10507e-10
0.000966754
-8.57121e-10
0.000966754
-8.75688e-10
0.000966754
-8.67281e-10
0.000966754
-8.26945e-10
0.000966754
-7.5717e-10
0.000966754
-6.5799e-10
0.000966754
-5.30855e-10
0.000966754
-3.75988e-10
0.000966754
-2.07197e-10
0.000966754
-4.09016e-11
0.000966754
8.70073e-11
0.000966754
1.5864e-10
0.000966754
1.75074e-10
0.000966754
2.36792e-10
0.000966754
3.96308e-10
0.000966754
6.30579e-10
0.000966754
8.56863e-10
0.000966754
1.00372e-09
0.000966754
1.04642e-09
0.000966754
9.98734e-10
0.000966754
9.0852e-10
0.000966754
7.79392e-10
0.000966754
6.71221e-10
0.000966754
5.21142e-10
0.000966754
4.1437e-10
0.000966754
1.86201e-10
0.000966754
1.09993e-10
0.000966754
-1.69268e-10
0.000966754
-1.42592e-10
0.000966754
-5.86549e-10
-1.11943e-09
0.00101952
3.93801e-10
0.00101952
9.13989e-10
0.00101952
4.75929e-10
0.00101952
-5.7036e-11
0.00101952
-3.74042e-10
0.00101952
-5.55821e-10
0.00101952
-6.8625e-10
0.00101952
-7.96606e-10
0.00101952
-8.77287e-10
0.00101952
-9.23755e-10
0.00101952
-9.36532e-10
0.00101952
-9.18158e-10
0.00101952
-8.67164e-10
0.00101952
-7.85562e-10
0.00101952
-6.72747e-10
0.00101952
-5.28916e-10
0.00101952
-3.53296e-10
0.00101952
-1.58033e-10
0.00101952
3.73345e-11
0.00101952
1.8963e-10
0.00101952
2.63946e-10
0.00101952
2.63224e-10
0.00101952
2.99732e-10
0.00101952
4.35748e-10
0.00101952
6.49278e-10
0.00101952
8.59621e-10
0.00101952
1.00552e-09
0.00101952
1.04797e-09
0.00101952
1.00433e-09
0.00101952
9.06894e-10
0.00101952
7.84949e-10
0.00101952
6.60314e-10
0.00101952
5.28162e-10
0.00101952
3.85964e-10
0.00101952
1.94317e-10
0.00101952
7.12243e-11
0.00101952
-1.72687e-10
0.00101952
-1.79853e-10
0.00101952
-6.96781e-10
-8.31362e-10
0.001072
5.27042e-10
0.001072
7.54949e-10
0.001072
3.31506e-10
0.001072
-1.12226e-10
0.001072
-3.98905e-10
0.001072
-5.81884e-10
0.001072
-7.17534e-10
0.001072
-8.29489e-10
0.001072
-9.11473e-10
0.001072
-9.57546e-10
0.001072
-9.66488e-10
0.001072
-9.42465e-10
0.001072
-8.84953e-10
0.001072
-7.94722e-10
0.001072
-6.7134e-10
0.001072
-5.13687e-10
0.001072
-3.2074e-10
0.001072
-1.04328e-10
0.001072
1.12413e-10
0.001072
2.79057e-10
0.001072
3.48542e-10
0.001072
3.29164e-10
0.001072
3.40675e-10
0.001072
4.51189e-10
0.001072
6.43872e-10
0.001072
8.46332e-10
0.001072
9.9681e-10
0.001072
1.03994e-09
0.001072
9.9664e-10
0.001072
8.90339e-10
0.001072
7.69145e-10
0.001072
6.33005e-10
0.001072
5.10015e-10
0.001072
3.48221e-10
0.001072
1.9014e-10
0.001072
3.29715e-11
0.001072
-1.71112e-10
0.001072
-2.15826e-10
0.001072
-7.24037e-10
-5.53206e-10
0.00112477
5.76759e-10
0.00112477
5.91693e-10
0.00112477
2.12834e-10
0.00112477
-1.49654e-10
0.00112477
-4.06242e-10
0.00112477
-5.83359e-10
0.00112477
-7.1848e-10
0.00112477
-8.30062e-10
0.00112477
-9.12069e-10
0.00112477
-9.57638e-10
0.00112477
-9.65528e-10
0.00112477
-9.40001e-10
0.00112477
-8.79239e-10
0.00112477
-7.83529e-10
0.00112477
-6.53185e-10
0.00112477
-4.85726e-10
0.00112477
-2.82384e-10
0.00112477
-5.37564e-11
0.00112477
1.74149e-10
0.00112477
3.43762e-10
0.00112477
4.02258e-10
0.00112477
3.64573e-10
0.00112477
3.53875e-10
0.00112477
4.4281e-10
0.00112477
6.18924e-10
0.00112477
8.19137e-10
0.00112477
9.73752e-10
0.00112477
1.01788e-09
0.00112477
9.74757e-10
0.00112477
8.61033e-10
0.00112477
7.38908e-10
0.00112477
5.93162e-10
0.00112477
4.75282e-10
0.00112477
3.0812e-10
0.00112477
1.76446e-10
0.00112477
-1.10854e-12
0.00112477
-1.65445e-10
0.00112477
-2.42736e-10
0.00112477
-6.95248e-10
-3.14716e-10
0.00117819
5.65169e-10
0.00117819
4.33946e-10
0.00117819
1.19993e-10
0.00117819
-1.63967e-10
0.00117819
-3.8885e-10
0.00117819
-5.56768e-10
0.00117819
-6.89688e-10
0.00117819
-8.00332e-10
0.00117819
-8.81637e-10
0.00117819
-9.27319e-10
0.00117819
-9.36866e-10
0.00117819
-9.11865e-10
0.00117819
-8.5006e-10
0.00117819
-7.52217e-10
0.00117819
-6.18956e-10
0.00117819
-4.4835e-10
0.00117819
-2.42474e-10
0.00117819
-1.10102e-11
0.00117819
2.16333e-10
0.00117819
3.78354e-10
0.00117819
4.21648e-10
0.00117819
3.6808e-10
0.00117819
3.40255e-10
0.00117819
4.13053e-10
0.00117819
5.77318e-10
0.00117819
7.75356e-10
0.00117819
9.3285e-10
0.00117819
9.80907e-10
0.00117819
9.38631e-10
0.00117819
8.228e-10
0.00117819
6.98066e-10
0.00117819
5.45748e-10
0.00117819
4.33138e-10
0.00117819
2.67733e-10
0.00117819
1.55943e-10
0.00117819
-2.97748e-11
0.00117819
-1.58729e-10
0.00117819
-2.57804e-10
0.00117819
-6.31961e-10
-1.26687e-10
0.00123251
5.14111e-10
0.00123251
2.92771e-10
0.00123251
5.44729e-11
0.00123251
-1.54701e-10
0.00123251
-3.48727e-10
0.00123251
-5.06707e-10
0.00123251
-6.36515e-10
0.00123251
-7.45068e-10
0.00123251
-8.25827e-10
0.00123251
-8.73152e-10
0.00123251
-8.84882e-10
0.00123251
-8.60936e-10
0.00123251
-7.99784e-10
0.00123251
-7.02847e-10
0.00123251
-5.71663e-10
0.00123251
-4.05087e-10
0.00123251
-2.03593e-10
0.00123251
2.15984e-11
0.00123251
2.36817e-10
0.00123251
3.82635e-10
0.00123251
4.08862e-10
0.00123251
3.43256e-10
0.00123251
3.04141e-10
0.00123251
3.65281e-10
0.00123251
5.20306e-10
0.00123251
7.15027e-10
0.00123251
8.75534e-10
0.00123251
9.29101e-10
0.00123251
8.8961e-10
0.00123251
7.75441e-10
0.00123251
6.4809e-10
0.00123251
4.96479e-10
0.00123251
3.89516e-10
0.00123251
2.30587e-10
0.00123251
1.31816e-10
0.00123251
-5.39536e-11
0.00123251
-1.52138e-10
0.00123251
-2.61378e-10
0.00123251
-5.49976e-10
1.14893e-11
0.0012879
4.45408e-10
0.0012879
1.78834e-10
0.0012879
1.34511e-11
0.0012879
-1.30225e-10
0.0012879
-2.9643e-10
0.0012879
-4.43908e-10
0.0012879
-5.68306e-10
0.0012879
-6.72509e-10
0.0012879
-7.51778e-10
0.0012879
-7.99689e-10
0.0012879
-8.12353e-10
0.0012879
-7.90391e-10
0.0012879
-7.32484e-10
0.0012879
-6.40266e-10
0.0012879
-5.16127e-10
0.0012879
-3.57719e-10
0.0012879
-1.67257e-10
0.0012879
4.18904e-11
0.0012879
2.36577e-10
0.0012879
3.60189e-10
0.0012879
3.6958e-10
0.0012879
2.96608e-10
0.0012879
2.5147e-10
0.0012879
3.04593e-10
0.0012879
4.51216e-10
0.0012879
6.41893e-10
0.0012879
8.03831e-10
0.0012879
8.63056e-10
0.0012879
8.29198e-10
0.0012879
7.19835e-10
0.0012879
5.94486e-10
0.0012879
4.50514e-10
0.0012879
3.4865e-10
0.0012879
1.97243e-10
0.0012879
1.05919e-10
0.0012879
-7.22786e-11
0.0012879
-1.44204e-10
0.0012879
-2.53771e-10
0.0012879
-4.61037e-10
1.06298e-10
0.0013445
3.8095e-10
0.0013445
9.2952e-11
0.0013445
-1.86339e-11
0.0013445
-1.07093e-10
0.0013445
-2.45656e-10
0.0013445
-3.79126e-10
0.0013445
-4.9345e-10
0.0013445
-5.89882e-10
0.0013445
-6.64473e-10
0.0013445
-7.10234e-10
0.0013445
-7.23484e-10
0.0013445
-7.04795e-10
0.0013445
-6.53046e-10
0.0013445
-5.69245e-10
0.0013445
-4.55089e-10
0.0013445
-3.09226e-10
0.0013445
-1.36161e-10
0.0013445
5.05077e-11
0.0013445
2.18713e-10
0.0013445
3.16998e-10
0.0013445
3.11662e-10
0.0013445
2.36173e-10
0.0013445
1.89782e-10
0.0013445
2.38131e-10
0.0013445
3.76462e-10
0.0013445
5.60463e-10
0.0013445
7.20015e-10
0.0013445
7.8518e-10
0.0013445
7.59889e-10
0.0013445
6.60379e-10
0.0013445
5.43958e-10
0.0013445
4.10604e-10
0.0013445
3.11189e-10
0.0013445
1.67446e-10
0.0013445
8.19945e-11
0.0013445
-8.29873e-11
0.0013445
-1.34086e-10
0.0013445
-2.36486e-10
0.0013445
-3.71211e-10
1.70926e-10
0.00140238
3.25886e-10
0.00140238
1.15169e-11
0.00140238
-6.05422e-11
0.00140238
-9.78217e-11
0.00140238
-2.02965e-10
0.00140238
-3.16344e-10
0.00140238
-4.15725e-10
0.00140238
-5.00705e-10
0.00140238
-5.67682e-10
0.00140238
-6.10125e-10
0.00140238
-6.24162e-10
0.00140238
-6.09795e-10
0.00140238
-5.65717e-10
0.00140238
-4.92294e-10
0.00140238
-3.91086e-10
0.00140238
-2.62315e-10
0.00140238
-1.11016e-10
0.00140238
4.90092e-11
0.00140238
1.87194e-10
0.00140238
2.60444e-10
0.00140238
2.44276e-10
0.00140238
1.7123e-10
0.00140238
1.27613e-10
0.00140238
1.72828e-10
0.00140238
3.01865e-10
0.00140238
4.74859e-10
0.00140238
6.29481e-10
0.00140238
7.00436e-10
0.00140238
6.85993e-10
0.00140238
6.01912e-10
0.00140238
4.97663e-10
0.00140238
3.75114e-10
0.00140238
2.77888e-10
0.00140238
1.43667e-10
0.00140238
6.34033e-11
0.00140238
-8.64274e-11
0.00140238
-1.22353e-10
0.00140238
-2.12159e-10
0.00140238
-2.80142e-10
2.27106e-10
0.00146157
2.6189e-10
0.00146158
-6.14346e-11
0.00146158
-1.01316e-10
0.00146158
-9.22503e-11
0.00146158
-1.63457e-10
0.00146157
-2.54191e-10
0.00146157
-3.36182e-10
0.00146157
-4.07915e-10
0.00146157
-4.66442e-10
0.00146157
-5.05046e-10
0.00146157
-5.19577e-10
0.00146157
-5.09603e-10
0.00146157
-4.73792e-10
0.00146157
-4.12266e-10
0.00146157
-3.26461e-10
0.00146157
-2.17428e-10
0.00146157
-9.08367e-11
0.00146157
3.94908e-11
0.00146157
1.47227e-10
0.00146157
1.98212e-10
0.00146157
1.75913e-10
0.00146157
1.09582e-10
0.00146157
7.14865e-11
0.00146157
1.13858e-10
0.00146157
2.32342e-10
0.00146157
3.91542e-10
0.00146157
5.38263e-10
0.00146157
6.13888e-10
0.00146157
6.11618e-10
0.00146157
5.44897e-10
0.00146157
4.53566e-10
0.00146157
3.42143e-10
0.00146158
2.48832e-10
0.00146158
1.25336e-10
0.00146158
4.97602e-11
0.00146158
-8.40856e-11
0.00146158
-1.09149e-10
0.00146158
-1.85347e-10
0.00146157
-2.03675e-10
2.50617e-10
0.0015221
1.84597e-10
0.0015221
-1.19615e-10
0.0015221
-1.27901e-10
0.0015221
-8.15845e-11
0.0015221
-1.23203e-10
0.0015221
-1.92352e-10
0.0015221
-2.57081e-10
0.0015221
-3.1565e-10
0.0015221
-3.6529e-10
0.0015221
-3.99277e-10
0.0015221
-4.13707e-10
0.0015221
-4.07808e-10
0.0015221
-3.80514e-10
0.0015221
-3.31647e-10
0.0015221
-2.62437e-10
0.0015221
-1.74972e-10
0.0015221
-7.5128e-11
0.0015221
2.47787e-11
0.0015221
1.03446e-10
0.0015221
1.35412e-10
0.0015221
1.10787e-10
0.0015221
5.44481e-11
0.0015221
2.46928e-11
0.0015221
6.56445e-11
0.0015221
1.73227e-10
0.0015221
3.16703e-10
0.0015221
4.51446e-10
0.0015221
5.27949e-10
0.0015221
5.37049e-10
0.0015221
4.86519e-10
0.0015221
4.07515e-10
0.0015221
3.08021e-10
0.0015221
2.2027e-10
0.0015221
1.0922e-10
0.0015221
3.91509e-11
0.0015221
-7.72658e-11
0.0015221
-9.50696e-11
0.0015221
-1.61186e-10
0.0015221
-1.51797e-10
2.32619e-10
0.00158394
1.10768e-10
0.00158394
-1.63791e-10
0.00158394
-1.42137e-10
0.00158394
-6.71902e-11
0.00158394
-8.36045e-11
0.00158394
-1.32635e-10
0.00158394
-1.81159e-10
0.00158394
-2.26775e-10
0.00158394
-2.67045e-10
0.00158394
-2.95944e-10
0.00158394
-3.0981e-10
0.00158394
-3.07791e-10
0.00158394
-2.88998e-10
0.00158394
-2.53299e-10
0.00158394
-2.01844e-10
0.00158394
-1.37073e-10
0.00158394
-6.4512e-11
0.00158394
5.61808e-12
0.00158394
5.72623e-11
0.00158394
7.30853e-11
0.00158394
4.88316e-11
0.00158394
5.63088e-12
0.00158394
-1.16001e-11
0.00158394
3.11747e-11
0.00158394
1.28838e-10
0.00158394
2.5422e-10
0.00158394
3.71597e-10
0.00158394
4.4339e-10
0.00158394
4.58967e-10
0.00158394
4.2116e-10
0.00158394
3.54081e-10
0.00158394
2.67273e-10
0.00158394
1.87724e-10
0.00158394
9.16218e-11
0.00158394
2.90779e-11
0.00158394
-6.78834e-11
0.00158394
-8.10648e-11
0.00158394
-1.38736e-10
0.00158394
-1.15246e-10
1.97826e-10
0.00164703
5.2434e-11
0.00164703
-1.73305e-10
0.00164703
-1.31673e-10
0.00164703
-4.48699e-11
0.00164703
-4.33426e-11
0.00164703
-7.46744e-11
0.00164703
-1.08736e-10
0.00164703
-1.42483e-10
0.00164703
-1.739e-10
0.00164703
-1.97834e-10
0.00164703
-2.11192e-10
0.00164703
-2.13237e-10
0.00164703
-2.03335e-10
0.00164703
-1.81449e-10
0.00164703
-1.48518e-10
0.00164703
-1.06899e-10
0.00164703
-6.13651e-11
0.00164703
-1.96371e-11
0.00164703
7.49391e-12
0.00164703
9.93475e-12
0.00164703
-1.16203e-11
0.00164703
-3.86153e-11
0.00164703
-3.82244e-11
0.00164703
1.12874e-11
0.00164703
1.00636e-10
0.00164703
2.05578e-10
0.00164703
3.00048e-10
0.00164703
3.59016e-10
0.00164703
3.73582e-10
0.00164703
3.44283e-10
0.00164703
2.88563e-10
0.00164703
2.15899e-10
0.00164703
1.47537e-10
0.00164703
6.92359e-11
0.00164703
1.6605e-11
0.00164703
-5.78783e-11
0.00164703
-6.73695e-11
0.00164703
-1.13988e-10
0.00164703
-8.7334e-11
1.49355e-10
0.00171126
1.3179e-11
0.00171126
-1.23269e-10
0.00171126
-7.94112e-11
0.00171126
-8.6472e-12
0.00171126
-4.42332e-13
0.00171126
-1.77582e-11
0.00171126
-4.02239e-11
0.00171126
-6.42698e-11
0.00171126
-8.79139e-11
0.00171126
-1.0739e-10
0.00171126
-1.20625e-10
0.00171126
-1.27156e-10
0.00171126
-1.26562e-10
0.00171126
-1.18883e-10
0.00171126
-1.04824e-10
0.00171126
-8.63978e-11
0.00171126
-6.72728e-11
0.00171126
-5.22977e-11
0.00171126
-4.7372e-11
0.00171126
-5.6162e-11
0.00171126
-7.32697e-11
0.00171126
-8.12982e-11
0.00171126
-5.81749e-11
0.00171126
3.47725e-12
0.00171126
8.68315e-11
0.00171126
1.69832e-10
0.00171126
2.36008e-10
0.00171126
2.73346e-10
0.00171126
2.79117e-10
0.00171126
2.54258e-10
0.00171126
2.09021e-10
0.00171126
1.52074e-10
0.00171126
9.78289e-11
0.00171126
4.06535e-11
0.00171126
7.43077e-13
0.00171126
-4.72138e-11
0.00171126
-5.38454e-11
0.00171126
-8.23226e-11
0.00171126
-6.21203e-11
7.87598e-11
0.00177649
-1.22405e-11
0.00177649
-1.17995e-11
0.00177649
1.52839e-11
0.00177649
3.85003e-11
0.00177649
4.333e-11
0.00177649
3.68975e-11
0.00177649
2.40715e-11
0.00177649
8.19144e-12
0.00177649
-8.4063e-12
0.00177649
-2.38092e-11
0.00177649
-3.7256e-11
0.00177649
-4.86214e-11
0.00177649
-5.76608e-11
0.00177649
-6.45334e-11
0.00177649
-6.95597e-11
0.00177648
-7.43231e-11
0.00177649
-8.11054e-11
0.00177649
-9.17877e-11
0.00177649
-1.07859e-10
0.00177649
-1.27232e-10
0.00177649
-1.39622e-10
0.00177649
-1.27348e-10
0.00177649
-7.72565e-11
0.00177649
1.72057e-12
0.00177649
8.19774e-11
0.00177649
1.42478e-10
0.00177649
1.76258e-10
0.00177649
1.85569e-10
0.00177649
1.76655e-10
0.00177649
1.52681e-10
0.00177649
1.17098e-10
0.00177649
7.74193e-11
0.00177649
4.01462e-11
0.00177649
7.88384e-12
0.00177649
-1.68732e-11
0.00177649
-3.39989e-11
0.00177649
-3.92872e-11
0.00177649
-3.88217e-11
0.00177649
-2.7079e-11
-9.6724e-12
0.00177649
-2.50915e-11
0.00177649
1.18032e-10
0.00177649
1.24149e-10
0.00177649
9.16156e-11
0.00177649
8.90083e-11
0.00177649
9.1319e-11
0.00177649
8.69476e-11
0.00177649
7.83182e-11
0.00177649
6.79536e-11
0.00177649
5.60157e-11
0.00177649
4.18147e-11
0.00177649
2.51701e-11
0.00177649
6.2057e-12
0.00177649
-1.52817e-11
0.00177649
-3.91199e-11
0.00177649
-6.65657e-11
0.00177649
-9.84121e-11
0.00177649
-1.33812e-10
0.00177649
-1.7063e-10
0.00177649
-2.01798e-10
0.00177649
-2.11886e-10
0.00177649
-1.81018e-10
0.00177649
-1.0271e-10
0.00177649
-2.87225e-12
0.00177649
7.73986e-11
0.00177649
1.17108e-10
0.00177649
1.18444e-10
0.00177649
9.82481e-11
0.00177649
7.25655e-11
0.00177649
4.78672e-11
0.00177649
2.18345e-11
0.00177649
5.21113e-13
0.00177649
-1.79493e-11
0.00177649
-2.35298e-11
0.00177649
-3.17513e-11
0.00177649
-1.67699e-11
0.00177649
-2.04148e-11
0.00177649
9.88295e-12
0.00177649
1.27652e-11
-9.35648e-11
0.00171126
-2.5932e-11
0.00171126
2.15098e-10
0.00171126
2.08582e-10
0.00171126
1.43153e-10
0.00171126
1.37387e-10
0.00171126
1.4797e-10
0.00171126
1.52047e-10
0.00171126
1.50476e-10
0.00171126
1.45619e-10
0.00171126
1.3618e-10
0.00171126
1.20473e-10
0.00171126
9.79693e-11
0.00171126
6.88218e-11
0.00171126
3.318e-11
0.00171126
-8.83275e-12
0.00171126
-5.79304e-11
0.00171126
-1.13518e-10
0.00171126
-1.72839e-10
0.00171126
-2.31152e-10
0.00171126
-2.76871e-10
0.00171126
-2.89367e-10
0.00171126
-2.44589e-10
0.00171126
-1.40159e-10
0.00171126
-1.81908e-11
0.00171126
6.51078e-11
0.00171126
8.7386e-11
0.00171126
5.99559e-11
0.00171126
1.35995e-11
0.00171126
-2.69961e-11
0.00171126
-5.11311e-11
0.00171126
-6.71322e-11
0.00171126
-6.9578e-11
0.00171126
-6.88517e-11
0.00171126
-4.82807e-11
0.00171126
-3.98963e-11
0.00171126
4.90505e-12
0.00171126
5.19386e-12
0.00171126
5.61678e-11
0.00171126
5.07551e-11
-1.48775e-10
0.00164703
-2.56242e-11
0.00164703
2.64726e-10
0.00164703
2.56624e-10
0.00164703
1.85754e-10
0.00164703
1.85751e-10
0.00164703
2.0698e-10
0.00164703
2.21019e-10
0.00164703
2.27012e-10
0.00164703
2.27099e-10
0.00164703
2.19433e-10
0.00164703
2.01721e-10
0.00164703
1.72942e-10
0.00164703
1.33595e-10
0.00164703
8.42109e-11
0.00164703
2.50283e-11
0.00164703
-4.44162e-11
0.00164703
-1.22694e-10
0.00164703
-2.06028e-10
0.00164703
-2.87374e-10
0.00164703
-3.511e-10
0.00164703
-3.71567e-10
0.00164703
-3.18608e-10
0.00164703
-1.91435e-10
0.00164703
-4.77072e-11
0.00164703
4.01789e-11
0.00164703
4.81968e-11
0.00164703
-2.69465e-12
0.00164703
-7.03925e-11
0.00164703
-1.21487e-10
0.00164703
-1.42101e-10
0.00164703
-1.47279e-10
0.00164703
-1.29816e-10
0.00164703
-1.10006e-10
0.00164703
-6.43826e-11
0.00164703
-4.03903e-11
0.00164703
3.18102e-11
0.00164703
3.73111e-11
0.00164703
1.01834e-10
0.00164703
9.53666e-11
-1.71482e-10
0.00158394
-3.89316e-11
0.00158394
2.77515e-10
0.00158394
2.78694e-10
0.00158394
2.22177e-10
0.00158394
2.35537e-10
0.00158394
2.69655e-10
0.00158394
2.94135e-10
0.00158394
3.07121e-10
0.00158394
3.11563e-10
0.00158394
3.05351e-10
0.00158394
2.85378e-10
0.00158394
2.50287e-10
0.00158394
2.013e-10
0.00158394
1.39214e-10
0.00158394
6.41916e-11
0.00158394
-2.431e-11
0.00158394
-1.24751e-10
0.00158394
-2.32273e-10
0.00158394
-3.37402e-10
0.00158394
-4.22105e-10
0.00158394
-4.55429e-10
0.00158394
-3.9961e-10
0.00158394
-2.54774e-10
0.00158394
-9.21943e-11
0.00158394
-2.09436e-13
0.00158394
-3.33518e-12
0.00158394
-7.25441e-11
0.00158394
-1.56229e-10
0.00158394
-2.13122e-10
0.00158394
-2.27017e-10
0.00158394
-2.18521e-10
0.00158394
-1.78909e-10
0.00158394
-1.40693e-10
0.00158394
-7.15421e-11
0.00158394
-3.41177e-11
0.00158394
6.23052e-11
0.00158394
7.29319e-11
0.00158394
1.46951e-10
0.00158394
1.48361e-10
-1.7464e-10
0.00152211
-7.22754e-11
0.00152211
2.60142e-10
0.00152211
2.88294e-10
0.00152211
2.56653e-10
0.00152211
2.89493e-10
0.00152211
3.37428e-10
0.00152211
3.70842e-10
0.00152211
3.89408e-10
0.00152211
3.97568e-10
0.00152211
3.92382e-10
0.00152211
3.699e-10
0.00152211
3.28816e-10
0.00152211
2.71455e-10
0.00152211
1.97821e-10
0.00152211
1.07789e-10
0.00152211
1.2832e-12
0.00152211
-1.20329e-10
0.00152211
-2.50701e-10
0.00152211
-3.79573e-10
0.00152211
-4.87067e-10
0.00152211
-5.36486e-10
0.00152211
-4.83462e-10
0.00152211
-3.27526e-10
0.00152211
-1.50441e-10
0.00152211
-5.58602e-11
0.00152211
-6.81697e-11
0.00152211
-1.52054e-10
0.00152211
-2.46936e-10
0.00152211
-3.04495e-10
0.00152211
-3.06731e-10
0.00152211
-2.80743e-10
0.00152211
-2.17306e-10
0.00152211
-1.6248e-10
0.00152211
-7.21916e-11
0.00152211
-2.41962e-11
0.00152211
9.3331e-11
0.00152211
1.10016e-10
0.00152211
1.9168e-10
0.00152211
2.10105e-10
-1.65374e-10
0.00146158
-1.18542e-10
0.00146158
2.24127e-10
0.00146158
2.89348e-10
0.00146158
2.88808e-10
0.00146158
3.48058e-10
0.00146158
4.08369e-10
0.00146158
4.48714e-10
0.00146158
4.71666e-10
0.00146158
4.82688e-10
0.00146158
4.77928e-10
0.00146158
4.52828e-10
0.00146158
4.06638e-10
0.00146158
3.41357e-10
0.00146158
2.56583e-10
0.00146158
1.52991e-10
0.00146158
3.00641e-11
0.00146158
-1.10673e-10
0.00146158
-2.61537e-10
0.00146158
-4.12873e-10
0.00146158
-5.4312e-10
0.00146158
-6.10568e-10
0.00146158
-5.65194e-10
0.00146158
-4.03946e-10
0.00146158
-2.17297e-10
0.00146158
-1.23722e-10
0.00146158
-1.4615e-10
0.00146158
-2.42242e-10
0.00146158
-3.42987e-10
0.00146158
-3.94968e-10
0.00146158
-3.80433e-10
0.00146158
-3.34954e-10
0.00146158
-2.48237e-10
0.00146158
-1.7924e-10
0.00146158
-6.99544e-11
0.00146158
-1.33017e-11
0.00146158
1.23376e-10
0.00146158
1.47632e-10
0.00146158
2.34648e-10
0.00146158
2.80021e-10
-1.459e-10
0.00140238
-1.6984e-10
0.00140238
1.76224e-10
0.00140238
2.85133e-10
0.00140238
3.2343e-10
0.00140238
4.04813e-10
0.00140238
4.75312e-10
0.00140238
5.21037e-10
0.00140238
5.48293e-10
0.00140238
5.62065e-10
0.00140238
5.57534e-10
0.00140238
5.29637e-10
0.00140238
4.78641e-10
0.00140238
4.06186e-10
0.00140238
3.12061e-10
0.00140238
1.97139e-10
0.00140238
6.02987e-11
0.00140238
-9.5877e-11
0.00140238
-2.63934e-10
0.00140238
-4.3483e-10
0.00140238
-5.85814e-10
0.00140238
-6.71958e-10
0.00140238
-6.36888e-10
0.00140238
-4.75476e-10
0.00140238
-2.87182e-10
0.00140238
-2.0141e-10
0.00140238
-2.35069e-10
0.00140238
-3.40565e-10
0.00140238
-4.41015e-10
0.00140238
-4.82711e-10
0.00140238
-4.49393e-10
0.00140238
-3.83508e-10
0.00140238
-2.74696e-10
0.00140238
-1.93668e-10
0.00140238
-6.72431e-11
0.00140238
-3.91069e-12
0.00140238
1.48953e-10
0.00140238
1.82159e-10
0.00140238
2.73791e-10
0.00140238
3.61526e-10
-1.0924e-10
0.0013445
-2.02727e-10
0.00134451
1.26246e-10
0.00134451
2.69369e-10
0.0013445
3.48113e-10
0.0013445
4.48257e-10
0.0013445
5.27713e-10
0.0013445
5.79417e-10
0.0013445
6.11663e-10
0.0013445
6.28927e-10
0.0013445
6.25244e-10
0.0013445
5.96225e-10
0.0013445
5.42158e-10
0.0013445
4.64653e-10
0.0013445
3.63851e-10
0.0013445
2.40457e-10
0.0013445
9.43207e-11
0.0013445
-7.27619e-11
0.0013445
-2.54415e-10
0.0013445
-4.41497e-10
0.0013445
-6.10509e-10
0.0013445
-7.14044e-10
0.0013445
-6.90987e-10
0.0013445
-5.36647e-10
0.0013445
-3.57016e-10
0.0013445
-2.85615e-10
0.0013445
-3.30832e-10
0.0013445
-4.41457e-10
0.0013445
-5.36375e-10
0.00134451
-5.65759e-10
0.00134451
-5.1302e-10
0.00134451
-4.28554e-10
0.00134451
-3.00358e-10
0.00134451
-2.09332e-10
0.00134451
-6.89798e-11
0.00134451
-4.8385e-13
0.00134451
1.64737e-10
0.00134451
2.1104e-10
0.00134451
3.08288e-10
0.0013445
4.5422e-10
-4.35248e-11
0.00128791
-2.01436e-10
0.00128791
5.4471e-11
0.00128791
2.23001e-10
0.00128791
3.45591e-10
0.00128791
4.6743e-10
0.00128791
5.58296e-10
0.00128791
6.18696e-10
0.00128791
6.58847e-10
0.00128791
6.82487e-10
0.00128791
6.83117e-10
0.00128791
6.56368e-10
0.00128791
6.02197e-10
0.00128791
5.21912e-10
0.00128791
4.17125e-10
0.00128791
2.88779e-10
0.00128791
1.36897e-10
0.00128791
-3.84697e-11
0.00128791
-2.3063e-10
0.00128791
-4.30545e-10
0.00128791
-6.1481e-10
0.00128791
-7.33798e-10
0.00128791
-7.25088e-10
0.00128791
-5.86071e-10
0.00128791
-4.24612e-10
0.00128791
-3.72361e-10
0.00128791
-4.28861e-10
0.00128791
-5.39486e-10
0.00128791
-6.23887e-10
0.00128791
-6.4088e-10
0.00128791
-5.71881e-10
0.00128791
-4.72923e-10
0.00128791
-3.29329e-10
0.00128791
-2.30197e-10
0.00128791
-8.01458e-11
0.00128791
-4.80693e-12
0.00128791
1.69135e-10
0.00128791
2.3336e-10
0.00128791
3.3384e-10
0.00128791
5.54828e-10
7.38449e-11
0.00123251
-1.90275e-10
0.00123251
-5.82596e-11
0.00123251
1.36219e-10
0.00123251
3.1422e-10
0.00123251
4.65594e-10
0.00123251
5.7181e-10
0.00123251
6.45396e-10
0.00123251
6.99067e-10
0.00123251
7.33848e-10
0.00123251
7.4301e-10
0.00123251
7.20309e-10
0.00123251
6.67385e-10
0.00123251
5.8631e-10
0.00123251
4.79137e-10
0.00123251
3.47294e-10
0.00123251
1.90061e-10
0.00123251
7.62213e-12
0.00123251
-1.92483e-10
0.00123251
-4.0295e-10
0.00123251
-5.99548e-10
0.00123251
-7.33059e-10
0.00123251
-7.41409e-10
0.00123251
-6.23613e-10
0.00123251
-4.87395e-10
0.00123251
-4.58301e-10
0.00123251
-5.235e-10
0.00123251
-6.29405e-10
0.00123251
-7.02147e-10
0.00123251
-7.08988e-10
0.00123251
-6.28246e-10
0.00123251
-5.17843e-10
0.00123251
-3.62553e-10
0.00123251
-2.5595e-10
0.00123251
-1.00015e-10
0.00123251
-1.41223e-11
0.00123251
1.61839e-10
0.00123251
2.4788e-10
0.00123251
3.42083e-10
0.00123251
6.41614e-10
2.29364e-10
0.00117819
-2.01076e-10
0.00117819
-2.32132e-10
0.00117819
8.07133e-12
0.00117819
2.63292e-10
0.00117819
4.53292e-10
0.00117819
5.81098e-10
0.00117819
6.73622e-10
0.00117819
7.45759e-10
0.00117819
7.95453e-10
0.00117819
8.14001e-10
0.00117819
7.95937e-10
0.00117819
7.4471e-10
0.00117819
6.62711e-10
0.00117819
5.53045e-10
0.00117819
4.16493e-10
0.00117819
2.53717e-10
0.00117819
6.49169e-11
0.00117819
-1.42181e-10
0.00117819
-3.61204e-10
0.00117819
-5.68039e-10
0.00117819
-7.15497e-10
0.00117819
-7.41723e-10
0.00117819
-6.4927e-10
0.00117819
-5.42879e-10
0.00117819
-5.37163e-10
0.00117819
-6.08879e-10
0.00117819
-7.10981e-10
0.00117819
-7.75596e-10
0.00117819
-7.73818e-10
0.00117819
-6.8313e-10
0.00117819
-5.61215e-10
0.00117819
-3.97877e-10
0.00117819
-2.8278e-10
0.00117819
-1.25257e-10
0.00117819
-2.34679e-11
0.00117819
1.42092e-10
0.00117819
2.55017e-10
0.00117819
3.27185e-10
0.00117819
6.8979e-10
3.93968e-10
0.00112477
-2.32226e-10
0.00112477
-4.82225e-10
0.00112478
-1.70412e-10
0.00112478
1.93595e-10
0.00112478
4.36166e-10
0.00112478
5.9192e-10
0.00112478
7.07099e-10
0.00112478
8.00839e-10
0.00112477
8.67557e-10
0.00112477
8.96881e-10
0.00112477
8.84198e-10
0.00112477
8.34781e-10
0.00112477
7.51302e-10
0.00112477
6.37957e-10
0.00112477
4.95438e-10
0.00112477
3.26458e-10
0.00112477
1.31363e-10
0.00112477
-8.16511e-11
0.00112477
-3.08114e-10
0.00112477
-5.23582e-10
0.00112477
-6.83699e-10
0.00112477
-7.27632e-10
0.00112477
-6.62847e-10
0.00112477