/*--------------------------------*- C++ -*----------------------------------*\
  =========                 |
  \\      /  F ield         | OpenFOAM: The Open Source CFD Toolbox
   \\    /   O peration     | Website:  https://openfoam.org
    \\  /    A nd           | Version:  dev
     \\/     M anipulation  |

   OpenFOAM for Windows 20.09 (v1)
   Built by CFD Support, www.cfdsupport.com (based on Symscape).
\*---------------------------------------------------------------------------*/
FoamFile
{
    version     2.0;
    format      ascii;
    class       volVectorField;
    location    "90";
    object      U;
}
// * * * * * * * * * * * * * * * * * * * * * * * * * * * * * * * * * * * * * //

dimensions      [0 1 -1 0 0 0 0];

internalField   nonuniform List<vector> 
1600
(
(0.0876143 -5.21459e-08 0)
(0.0876143 -1.68076e-08 0)
(0.0876143 2.40113e-08 0)
(0.0876143 1.54248e-08 0)
(0.0876143 2.55134e-09 0)
(0.0876143 2.36361e-09 0)
(0.0876143 3.43026e-09 0)
(0.0876143 1.78705e-09 0)
(0.0876144 3.27942e-10 0)
(0.0876144 3.3314e-10 0)
(0.0876144 7.15314e-10 0)
(0.0876144 8.06548e-10 0)
(0.0876145 4.4118e-10 0)
(0.0876145 -4.94513e-11 0)
(0.0876146 -3.38685e-10 0)
(0.0876146 -5.77385e-10 0)
(0.0876146 -5.85072e-10 0)
(0.0876147 -1.05692e-09 0)
(0.0876147 -2.49154e-09 0)
(0.0876147 -3.64165e-09 0)
(0.0876147 -4.23704e-09 0)
(0.0876147 -3.99415e-09 0)
(0.0876147 -5.07321e-09 0)
(0.0876147 -4.05895e-09 0)
(0.0876147 -5.24248e-10 0)
(0.0876146 3.33568e-09 0)
(0.0876146 2.43448e-10 0)
(0.0876145 2.65895e-10 0)
(0.0876144 -2.67739e-09 0)
(0.0876143 2.9265e-09 0)
(0.0876143 7.16897e-10 0)
(0.0876142 7.45489e-09 0)
(0.0876142 1.77839e-09 0)
(0.0876142 4.96966e-09 0)
(0.0876142 8.18898e-10 0)
(0.0876142 -2.0256e-09 0)
(0.0876142 8.46074e-09 0)
(0.0876142 -1.59036e-08 0)
(0.0876141 2.35646e-08 0)
(0.0876142 1.1356e-08 0)
(0.100406 -8.74037e-08 0)
(0.100406 5.43931e-09 0)
(0.100406 4.90571e-08 0)
(0.100406 1.37021e-08 0)
(0.100406 -1.13322e-08 0)
(0.100406 -1.31799e-08 0)
(0.100406 -1.05057e-08 0)
(0.100406 -1.10311e-08 0)
(0.100406 -1.36328e-08 0)
(0.100406 -1.66677e-08 0)
(0.100406 -1.94306e-08 0)
(0.100406 -2.16809e-08 0)
(0.100406 -2.28199e-08 0)
(0.100406 -2.24845e-08 0)
(0.100406 -2.07785e-08 0)
(0.100406 -1.83816e-08 0)
(0.100406 -1.51989e-08 0)
(0.100406 -1.20335e-08 0)
(0.100406 -9.34512e-09 0)
(0.100406 -7.69634e-09 0)
(0.100406 -5.6299e-09 0)
(0.100406 -1.47214e-09 0)
(0.100406 4.6907e-09 0)
(0.100406 1.09771e-08 0)
(0.100406 1.62374e-08 0)
(0.100406 2.42856e-08 0)
(0.100406 3.3522e-08 0)
(0.100406 4.34978e-08 0)
(0.100406 4.20856e-08 0)
(0.100406 3.85965e-08 0)
(0.100406 2.444e-08 0)
(0.100406 2.1983e-08 0)
(0.100406 8.18685e-09 0)
(0.100406 1.2159e-08 0)
(0.100406 -1.11604e-09 0)
(0.100406 3.82941e-09 0)
(0.100406 1.35112e-09 0)
(0.100406 -1.68582e-08 0)
(0.100406 3.74465e-08 0)
(0.100406 -3.1681e-08 0)
(0.106748 -7.34735e-08 0)
(0.106748 3.25421e-08 0)
(0.106748 5.59163e-08 0)
(0.106748 1.27609e-08 0)
(0.106748 -1.14382e-08 0)
(0.106748 -1.47501e-08 0)
(0.106748 -1.42392e-08 0)
(0.106748 -1.63684e-08 0)
(0.106748 -1.9513e-08 0)
(0.106748 -2.21484e-08 0)
(0.106748 -2.41636e-08 0)
(0.106748 -2.57677e-08 0)
(0.106748 -2.63788e-08 0)
(0.106748 -2.56415e-08 0)
(0.106748 -2.34799e-08 0)
(0.106748 -2.05074e-08 0)
(0.106748 -1.66167e-08 0)
(0.106748 -1.27743e-08 0)
(0.106748 -9.47378e-09 0)
(0.106748 -7.62255e-09 0)
(0.106748 -5.7993e-09 0)
(0.106748 -3.57483e-09 0)
(0.106748 1.38781e-09 0)
(0.106748 9.87552e-09 0)
(0.106748 1.93885e-08 0)
(0.106748 3.04465e-08 0)
(0.106748 3.95219e-08 0)
(0.106748 4.64917e-08 0)
(0.106748 4.33663e-08 0)
(0.106748 3.98395e-08 0)
(0.106748 2.78932e-08 0)
(0.106748 2.59081e-08 0)
(0.106748 1.32516e-08 0)
(0.106748 1.63722e-08 0)
(0.106748 1.33116e-09 0)
(0.106748 6.47767e-09 0)
(0.106748 -2.67637e-09 0)
(0.106748 -1.18514e-08 0)
(0.106748 2.48937e-08 0)
(0.106748 -5.99107e-08 0)
(0.11096 -4.63581e-08 0)
(0.11096 5.17905e-08 0)
(0.11096 5.31113e-08 0)
(0.11096 9.18998e-09 0)
(0.11096 -1.3311e-08 0)
(0.11096 -1.849e-08 0)
(0.11096 -2.00686e-08 0)
(0.11096 -2.31401e-08 0)
(0.11096 -2.64506e-08 0)
(0.11096 -2.89081e-08 0)
(0.11096 -3.05959e-08 0)
(0.11096 -3.17349e-08 0)
(0.11096 -3.1709e-08 0)
(0.11096 -3.02583e-08 0)
(0.11096 -2.7329e-08 0)
(0.11096 -2.34193e-08 0)
(0.11096 -1.84793e-08 0)
(0.11096 -1.34949e-08 0)
(0.11096 -9.01824e-09 0)
(0.11096 -6.22476e-09 0)
(0.11096 -4.12695e-09 0)
(0.11096 -2.11608e-09 0)
(0.11096 3.06778e-09 0)
(0.11096 1.21977e-08 0)
(0.11096 2.37432e-08 0)
(0.11096 3.59082e-08 0)
(0.11096 4.4952e-08 0)
(0.11096 4.9962e-08 0)
(0.11096 4.68311e-08 0)
(0.11096 4.28104e-08 0)
(0.11096 3.28101e-08 0)
(0.11096 3.0013e-08 0)
(0.11096 1.87174e-08 0)
(0.11096 1.94633e-08 0)
(0.11096 4.32739e-09 0)
(0.11096 7.87731e-09 0)
(0.11096 -5.86597e-09 0)
(0.11096 -7.65966e-09 0)
(0.11096 5.87703e-09 0)
(0.11096 -7.38686e-08 0)
(0.114051 -1.92592e-08 0)
(0.114051 5.6888e-08 0)
(0.114051 4.48588e-08 0)
(0.114051 5.09278e-09 0)
(0.114051 -1.52332e-08 0)
(0.114051 -2.19819e-08 0)
(0.114051 -2.54398e-08 0)
(0.114051 -2.94496e-08 0)
(0.114051 -3.3017e-08 0)
(0.114051 -3.53906e-08 0)
(0.114052 -3.67508e-08 0)
(0.114052 -3.72814e-08 0)
(0.114052 -3.64408e-08 0)
(0.114052 -3.41218e-08 0)
(0.114052 -3.03359e-08 0)
(0.114052 -2.54079e-08 0)
(0.114052 -1.93365e-08 0)
(0.114052 -1.30141e-08 0)
(0.114052 -7.07831e-09 0)
(0.114052 -2.91068e-09 0)
(0.114052 -1.4589e-10 0)
(0.114052 1.55277e-09 0)
(0.114052 6.21469e-09 0)
(0.114051 1.53502e-08 0)
(0.114051 2.76633e-08 0)
(0.114051 4.00046e-08 0)
(0.114051 4.8504e-08 0)
(0.114051 5.19616e-08 0)
(0.114051 4.87519e-08 0)
(0.114051 4.44108e-08 0)
(0.114051 3.63614e-08 0)
(0.114051 3.24641e-08 0)
(0.114051 2.28622e-08 0)
(0.114051 2.10017e-08 0)
(0.114051 7.07398e-09 0)
(0.114051 7.72574e-09 0)
(0.114052 -7.58922e-09 0)
(0.114051 -6.01981e-09 0)
(0.114051 -1.15677e-08 0)
(0.114052 -7.08829e-08 0)
(0.116461 1.1466e-09 0)
(0.116461 5.54315e-08 0)
(0.116461 3.61536e-08 0)
(0.116461 1.6906e-09 0)
(0.116461 -1.67194e-08 0)
(0.116461 -2.47482e-08 0)
(0.116461 -2.98174e-08 0)
(0.116461 -3.46899e-08 0)
(0.116461 -3.85334e-08 0)
(0.116461 -4.08602e-08 0)
(0.116461 -4.18871e-08 0)
(0.116461 -4.17669e-08 0)
(0.116461 -4.01166e-08 0)
(0.116461 -3.69634e-08 0)
(0.116461 -3.23469e-08 0)
(0.116461 -2.64326e-08 0)
(0.116461 -1.9218e-08 0)
(0.116461 -1.1465e-08 0)
(0.116461 -3.9127e-09 0)
(0.116461 1.78755e-09 0)
(0.116461 5.15173e-09 0)
(0.116461 6.28329e-09 0)
(0.116461 9.9659e-09 0)
(0.116461 1.84747e-08 0)
(0.116461 3.05777e-08 0)
(0.116461 4.24085e-08 0)
(0.116461 5.02288e-08 0)
(0.116461 5.24326e-08 0)
(0.116461 4.96487e-08 0)
(0.116461 4.52474e-08 0)
(0.116461 3.85021e-08 0)
(0.116461 3.35439e-08 0)
(0.116461 2.54448e-08 0)
(0.116461 2.11319e-08 0)
(0.116461 8.88997e-09 0)
(0.116461 6.4823e-09 0)
(0.116461 -8.44392e-09 0)
(0.116461 -6.45708e-09 0)
(0.116461 -2.46933e-08 0)
(0.116461 -6.14965e-08 0)
(0.118417 1.53924e-08 0)
(0.118417 4.98499e-08 0)
(0.118417 2.76415e-08 0)
(0.118417 -1.54298e-09 0)
(0.118417 -1.82066e-08 0)
(0.118417 -2.70339e-08 0)
(0.118417 -3.32032e-08 0)
(0.118417 -3.8634e-08 0)
(0.118417 -4.26605e-08 0)
(0.118417 -4.49392e-08 0)
(0.118417 -4.56776e-08 0)
(0.118417 -4.50082e-08 0)
(0.118417 -4.26861e-08 0)
(0.118417 -3.88318e-08 0)
(0.118417 -3.34821e-08 0)
(0.118417 -2.66713e-08 0)
(0.118417 -1.83539e-08 0)
(0.118417 -9.19702e-09 0)
(0.118417 -7.59834e-11 0)
(0.118417 7.01721e-09 0)
(0.118417 1.07e-08 0)
(0.118417 1.10775e-08 0)
(0.118417 1.35311e-08 0)
(0.118417 2.09284e-08 0)
(0.118417 3.22396e-08 0)
(0.118417 4.32604e-08 0)
(0.118417 5.05743e-08 0)
(0.118417 5.24966e-08 0)
(0.118417 5.01108e-08 0)
(0.118417 4.55126e-08 0)
(0.118417 3.92684e-08 0)
(0.118417 3.34187e-08 0)
(0.118417 2.65397e-08 0)
(0.118417 2.01809e-08 0)
(0.118417 9.78558e-09 0)
(0.118417 4.58209e-09 0)
(0.118417 -8.75247e-09 0)
(0.118417 -7.95546e-09 0)
(0.118417 -3.26701e-08 0)
(0.118417 -4.84686e-08 0)
(0.120053 2.43076e-08 0)
(0.120053 4.20678e-08 0)
(0.120053 1.98079e-08 0)
(0.120053 -4.60095e-09 0)
(0.120053 -1.96346e-08 0)
(0.120053 -2.87309e-08 0)
(0.120053 -3.54478e-08 0)
(0.120053 -4.11084e-08 0)
(0.120053 -4.51612e-08 0)
(0.120053 -4.74475e-08 0)
(0.120053 -4.7996e-08 0)
(0.120053 -4.69021e-08 0)
(0.120053 -4.41135e-08 0)
(0.120053 -3.97619e-08 0)
(0.120053 -3.38202e-08 0)
(0.120053 -2.62078e-08 0)
(0.120053 -1.69307e-08 0)
(0.120053 -6.5432e-09 0)
(0.120053 3.85996e-09 0)
(0.120053 1.19329e-08 0)
(0.120053 1.55856e-08 0)
(0.120053 1.50435e-08 0)
(0.120053 1.61961e-08 0)
(0.120053 2.23777e-08 0)
(0.120053 3.2606e-08 0)
(0.120053 4.30014e-08 0)
(0.120053 5.02676e-08 0)
(0.120053 5.22437e-08 0)
(0.120053 5.01518e-08 0)
(0.120053 4.49423e-08 0)
(0.120053 3.90266e-08 0)
(0.120053 3.25054e-08 0)
(0.120053 2.61483e-08 0)
(0.120053 1.85266e-08 0)
(0.120053 9.79789e-09 0)
(0.120053 2.59567e-09 0)
(0.120053 -8.66672e-09 0)
(0.120053 -9.84616e-09 0)
(0.120053 -3.59743e-08 0)
(0.120053 -3.40889e-08 0)
(0.12145 2.85641e-08 0)
(0.12145 3.37353e-08 0)
(0.12145 1.3235e-08 0)
(0.12145 -6.90834e-09 0)
(0.12145 -2.04151e-08 0)
(0.12145 -2.94395e-08 0)
(0.12145 -3.63099e-08 0)
(0.12145 -4.19415e-08 0)
(0.12145 -4.60058e-08 0)
(0.12145 -4.827e-08 0)
(0.12145 -4.86885e-08 0)
(0.12145 -4.74059e-08 0)
(0.12145 -4.43876e-08 0)
(0.12145 -3.96891e-08 0)
(0.12145 -3.32848e-08 0)
(0.12145 -2.50918e-08 0)
(0.12145 -1.51398e-08 0)
(0.12145 -3.9139e-09 0)
(0.12145 7.35024e-09 0)
(0.12145 1.58712e-08 0)
(0.12145 1.90987e-08 0)
(0.12145 1.76229e-08 0)
(0.12145 1.76104e-08 0)
(0.12145 2.26157e-08 0)
(0.12145 3.18252e-08 0)
(0.12145 4.18289e-08 0)
(0.12145 4.93718e-08 0)
(0.12145 5.15814e-08 0)
(0.12145 4.94181e-08 0)
(0.12145 4.39337e-08 0)
(0.12145 3.78714e-08 0)
(0.12145 3.06847e-08 0)
(0.12145 2.48353e-08 0)
(0.12145 1.64819e-08 0)
(0.12145 9.25205e-09 0)
(0.12145 7.38145e-10 0)
(0.12145 -8.43504e-09 0)
(0.12145 -1.1409e-08 0)
(0.12145 -3.57637e-08 0)
(0.12145 -2.10414e-08 0)
(0.12266 2.9204e-08 0)
(0.12266 2.55801e-08 0)
(0.12266 7.98955e-09 0)
(0.12266 -8.14702e-09 0)
(0.12266 -2.01415e-08 0)
(0.12266 -2.88067e-08 0)
(0.12266 -3.55708e-08 0)
(0.12266 -4.11357e-08 0)
(0.12266 -4.51872e-08 0)
(0.12266 -4.74804e-08 0)
(0.12266 -4.79216e-08 0)
(0.12266 -4.65806e-08 0)
(0.12266 -4.3468e-08 0)
(0.12266 -3.85985e-08 0)
(0.12266 -3.19545e-08 0)
(0.12266 -2.34832e-08 0)
(0.12266 -1.31357e-08 0)
(0.12266 -1.48099e-09 0)
(0.12266 9.99201e-09 0)
(0.12266 1.83866e-08 0)
(0.12266 2.0932e-08 0)
(0.12266 1.86119e-08 0)
(0.12266 1.76134e-08 0)
(0.12266 2.16e-08 0)
(0.12266 3.00938e-08 0)
(0.12266 3.99884e-08 0)
(0.12266 4.78256e-08 0)
(0.12266 5.0143e-08 0)
(0.12266 4.79617e-08 0)
(0.12266 4.22181e-08 0)
(0.12266 3.5985e-08 0)
(0.12266 2.85517e-08 0)
(0.12266 2.28253e-08 0)
(0.12266 1.43531e-08 0)
(0.12266 8.35544e-09 0)
(0.12266 -8.30624e-10 0)
(0.12266 -8.1163e-09 0)
(0.12266 -1.24827e-08 0)
(0.12266 -3.32848e-08 0)
(0.12266 -1.04175e-08 0)
(0.123718 2.7353e-08 0)
(0.123718 1.80217e-08 0)
(0.123718 4.0767e-09 0)
(0.123718 -8.21123e-09 0)
(0.123718 -1.86458e-08 0)
(0.123718 -2.68103e-08 0)
(0.123718 -3.34144e-08 0)
(0.123718 -3.88731e-08 0)
(0.123718 -4.2958e-08 0)
(0.123718 -4.53229e-08 0)
(0.123718 -4.57985e-08 0)
(0.123718 -4.45521e-08 0)
(0.123718 -4.14506e-08 0)
(0.123718 -3.65276e-08 0)
(0.123718 -2.98925e-08 0)
(0.123718 -2.14013e-08 0)
(0.123718 -1.11108e-08 0)
(0.123718 3.95416e-10 0)
(0.123718 1.1563e-08 0)
(0.123718 1.93349e-08 0)
(0.123718 2.10529e-08 0)
(0.123718 1.80326e-08 0)
(0.123718 1.63205e-08 0)
(0.123718 1.96061e-08 0)
(0.123718 2.75432e-08 0)
(0.123718 3.73793e-08 0)
(0.123718 4.54021e-08 0)
(0.123718 4.78855e-08 0)
(0.123718 4.58386e-08 0)
(0.123718 4.0026e-08 0)
(0.123718 3.36523e-08 0)
(0.123718 2.60881e-08 0)
(0.123718 2.05825e-08 0)
(0.123718 1.2452e-08 0)
(0.123718 7.182e-09 0)
(0.123718 -2.20451e-09 0)
(0.123718 -7.73753e-09 0)
(0.123718 -1.29649e-08 0)
(0.123718 -2.95616e-08 0)
(0.123718 -2.34415e-09 0)
(0.124648 2.41964e-08 0)
(0.124648 1.15973e-08 0)
(0.124648 1.45117e-09 0)
(0.124648 -7.28438e-09 0)
(0.124648 -1.623e-08 0)
(0.124648 -2.38796e-08 0)
(0.124648 -3.02537e-08 0)
(0.124648 -3.55937e-08 0)
(0.124648 -3.9622e-08 0)
(0.124648 -4.19848e-08 0)
(0.124648 -4.25838e-08 0)
(0.124648 -4.14421e-08 0)
(0.124648 -3.84606e-08 0)
(0.124648 -3.3724e-08 0)
(0.124648 -2.73161e-08 0)
(0.124648 -1.90673e-08 0)
(0.124648 -9.20432e-09 0)
(0.124648 1.70088e-09 0)
(0.124648 1.20637e-08 0)
(0.124648 1.88197e-08 0)
(0.124648 1.9681e-08 0)
(0.124648 1.61774e-08 0)
(0.124648 1.40144e-08 0)
(0.124648 1.68263e-08 0)
(0.124648 2.43432e-08 0)
(0.124648 3.40462e-08 0)
(0.124648 4.20914e-08 0)
(0.124648 4.49064e-08 0)
(0.124648 4.30721e-08 0)
(0.124648 3.73827e-08 0)
(0.124648 3.11168e-08 0)
(0.124648 2.36976e-08 0)
(0.124648 1.84076e-08 0)
(0.124648 1.05779e-08 0)
(0.124648 5.87062e-09 0)
(0.124648 -3.18423e-09 0)
(0.124648 -7.36662e-09 0)
(0.124648 -1.28722e-08 0)
(0.124648 -2.52623e-08 0)
(0.124648 3.32097e-09 0)
(0.125464 2.08197e-08 0)
(0.125464 6.42602e-09 0)
(0.125464 -3.53465e-10 0)
(0.125464 -5.99399e-09 0)
(0.125464 -1.35322e-08 0)
(0.125464 -2.05734e-08 0)
(0.125464 -2.65662e-08 0)
(0.125464 -3.16136e-08 0)
(0.125464 -3.5477e-08 0)
(0.125464 -3.78314e-08 0)
(0.125464 -3.85064e-08 0)
(0.125464 -3.74977e-08 0)
(0.125464 -3.47545e-08 0)
(0.125464 -3.03297e-08 0)
(0.125464 -2.42942e-08 0)
(0.125464 -1.66755e-08 0)
(0.125464 -7.55672e-09 0)
(0.125464 2.45163e-09 0)
(0.125464 1.15562e-08 0)
(0.125464 1.71009e-08 0)
(0.125464 1.71684e-08 0)
(0.125464 1.34061e-08 0)
(0.125464 1.10787e-08 0)
(0.125464 1.36045e-08 0)
(0.125464 2.0706e-08 0)
(0.125464 3.00776e-08 0)
(0.125464 3.81333e-08 0)
(0.125464 4.12918e-08 0)
(0.125464 3.97722e-08 0)
(0.125464 3.45309e-08 0)
(0.125464 2.84985e-08 0)
(0.125464 2.14562e-08 0)
(0.125464 1.63741e-08 0)
(0.125464 9.03249e-09 0)
(0.125464 4.67715e-09 0)
(0.125464 -3.94072e-09 0)
(0.125464 -6.95028e-09 0)
(0.125464 -1.22731e-08 0)
(0.125464 -2.0717e-08 0)
(0.125464 7.39128e-09 0)
(0.126177 1.76771e-08 0)
(0.126177 1.97587e-09 0)
(0.126177 -2.14108e-09 0)
(0.126177 -5.08851e-09 0)
(0.126177 -1.11079e-08 0)
(0.126177 -1.73009e-08 0)
(0.126177 -2.26896e-08 0)
(0.126177 -2.72544e-08 0)
(0.126177 -3.08195e-08 0)
(0.126177 -3.3059e-08 0)
(0.126177 -3.37521e-08 0)
(0.126177 -3.29331e-08 0)
(0.126177 -3.05198e-08 0)
(0.126177 -2.65573e-08 0)
(0.126177 -2.1171e-08 0)
(0.126177 -1.42716e-08 0)
(0.126177 -6.09823e-09 0)
(0.126177 2.59076e-09 0)
(0.126177 1.0256e-08 0)
(0.126177 1.45389e-08 0)
(0.126177 1.39739e-08 0)
(0.126177 1.02247e-08 0)
(0.126177 7.92134e-09 0)
(0.126177 1.02111e-08 0)
(0.126177 1.68814e-08 0)
(0.126177 2.57986e-08 0)
(0.126177 3.37605e-08 0)
(0.126177 3.71876e-08 0)
(0.126177 3.61465e-08 0)
(0.126177 3.15873e-08 0)
(0.126177 2.59964e-08 0)
(0.126177 1.95506e-08 0)
(0.126177 1.46742e-08 0)
(0.126177 7.73024e-09 0)
(0.126177 3.60084e-09 0)
(0.126177 -4.2929e-09 0)
(0.126177 -6.42834e-09 0)
(0.126177 -1.12301e-08 0)
(0.126177 -1.60872e-08 0)
(0.126177 1.06356e-08 0)
(0.126792 1.44407e-08 0)
(0.126792 -8.77393e-10 0)
(0.126792 -3.78741e-09 0)
(0.126792 -4.55844e-09 0)
(0.126792 -9.02241e-09 0)
(0.126792 -1.41765e-08 0)
(0.126792 -1.87289e-08 0)
(0.126792 -2.26743e-08 0)
(0.126792 -2.58494e-08 0)
(0.126792 -2.78776e-08 0)
(0.126792 -2.85945e-08 0)
(0.126792 -2.79792e-08 0)
(0.126792 -2.59795e-08 0)
(0.126792 -2.26e-08 0)
(0.126792 -1.7893e-08 0)
(0.126792 -1.19253e-08 0)
(0.126792 -4.96937e-09 0)
(0.126792 2.2902e-09 0)
(0.126792 8.43394e-09 0)
(0.126792 1.15175e-08 0)
(0.126792 1.05346e-08 0)
(0.126792 7.0029e-09 0)
(0.126792 4.89648e-09 0)
(0.126792 7.03513e-09 0)
(0.126792 1.32058e-08 0)
(0.126792 2.15536e-08 0)
(0.126792 2.91264e-08 0)
(0.126792 3.28335e-08 0)
(0.126792 3.2456e-08 0)
(0.126792 2.86802e-08 0)
(0.126792 2.37554e-08 0)
(0.126792 1.79108e-08 0)
(0.126792 1.3147e-08 0)
(0.126792 6.68481e-09 0)
(0.126792 2.79182e-09 0)
(0.126792 -4.33187e-09 0)
(0.126792 -5.79236e-09 0)
(0.126792 -9.93089e-09 0)
(0.126792 -1.21674e-08 0)
(0.126792 1.14332e-08 0)
(0.127312 1.10365e-08 0)
(0.127313 -4.61042e-09 0)
(0.127313 -5.80789e-09 0)
(0.127313 -4.33162e-09 0)
(0.127313 -7.10282e-09 0)
(0.127313 -1.10823e-08 0)
(0.127312 -1.4756e-08 0)
(0.127312 -1.80324e-08 0)
(0.127312 -2.07253e-08 0)
(0.127312 -2.25391e-08 0)
(0.127312 -2.32684e-08 0)
(0.127312 -2.28733e-08 0)
(0.127312 -2.1293e-08 0)
(0.127312 -1.85197e-08 0)
(0.127312 -1.46376e-08 0)
(0.127312 -9.71954e-09 0)
(0.127312 -4.06002e-09 0)
(0.127312 1.68409e-09 0)
(0.127312 6.30935e-09 0)
(0.127312 8.34504e-09 0)
(0.127312 7.14564e-09 0)
(0.127312 4.04579e-09 0)
(0.127312 2.29159e-09 0)
(0.127312 4.3307e-09 0)
(0.127312 9.9606e-09 0)
(0.127312 1.75369e-08 0)
(0.127312 2.4618e-08 0)
(0.127312 2.84653e-08 0)
(0.127312 2.87296e-08 0)
(0.127312 2.58235e-08 0)
(0.127312 2.15393e-08 0)
(0.127312 1.62899e-08 0)
(0.127313 1.17268e-08 0)
(0.127312 5.85714e-09 0)
(0.127313 2.20698e-09 0)
(0.127312 -4.04179e-09 0)
(0.127313 -5.10941e-09 0)
(0.127312 -8.7077e-09 0)
(0.127313 -8.80426e-09 0)
(0.127313 1.20794e-08 0)
(0.127739 7.21768e-09 0)
(0.127739 -7.51348e-09 0)
(0.127739 -7.06065e-09 0)
(0.127739 -3.81827e-09 0)
(0.127739 -5.13723e-09 0)
(0.127739 -8.04823e-09 0)
(0.127739 -1.08668e-08 0)
(0.127739 -1.34462e-08 0)
(0.127739 -1.56863e-08 0)
(0.127739 -1.72635e-08 0)
(0.127739 -1.79709e-08 0)
(0.127739 -1.77729e-08 0)
(0.127739 -1.6618e-08 0)
(0.127739 -1.45103e-08 0)
(0.127739 -1.14965e-08 0)
(0.127739 -7.6928e-09 0)
(0.127739 -3.39269e-09 0)
(0.127739 8.2803e-10 0)
(0.127739 4.04438e-09 0)
(0.127739 5.19931e-09 0)
(0.127739 3.9531e-09 0)
(0.127739 1.44347e-09 0)
(0.127739 2.23246e-10 0)
(0.127739 2.26537e-09 0)
(0.127739 7.36544e-09 0)
(0.127739 1.40728e-08 0)
(0.127739 2.03805e-08 0)
(0.127739 2.42222e-08 0)
(0.127739 2.49127e-08 0)
(0.127739 2.27303e-08 0)
(0.127739 1.91282e-08 0)
(0.127739 1.44495e-08 0)
(0.127739 1.02528e-08 0)
(0.127739 5.05226e-09 0)
(0.127739 1.71955e-09 0)
(0.127739 -3.63791e-09 0)
(0.127739 -4.3955e-09 0)
(0.127739 -7.50347e-09 0)
(0.127739 -6.57367e-09 0)
(0.127739 1.09374e-08 0)
(0.128068 3.87598e-09 0)
(0.128068 -8.97952e-09 0)
(0.128068 -7.32669e-09 0)
(0.128068 -2.98454e-09 0)
(0.128068 -3.15186e-09 0)
(0.128068 -5.09715e-09 0)
(0.128068 -7.13621e-09 0)
(0.128068 -9.10273e-09 0)
(0.128068 -1.08868e-08 0)
(0.128068 -1.22032e-08 0)
(0.128068 -1.28864e-08 0)
(0.128068 -1.28894e-08 0)
(0.128068 -1.21788e-08 0)
(0.128068 -1.07424e-08 0)
(0.128068 -8.63435e-09 0)
(0.128068 -5.98002e-09 0)
(0.128068 -3.04633e-09 0)
(0.128068 -2.81273e-10 0)
(0.128068 1.65172e-09 0)
(0.128068 2.0803e-09 0)
(0.128068 9.20742e-10 0)
(0.128068 -8.51833e-10 0)
(0.128068 -1.32069e-09 0)
(0.128068 9.34831e-10 0)
(0.128068 5.55522e-09 0)
(0.128068 1.12908e-08 0)
(0.128068 1.66418e-08 0)
(0.128068 1.99759e-08 0)
(0.128068 2.08204e-08 0)
(0.128068 1.92213e-08 0)
(0.128068 1.61714e-08 0)
(0.128068 1.21878e-08 0)
(0.128068 8.46114e-09 0)
(0.128068 4.06981e-09 0)
(0.128068 1.16225e-09 0)
(0.128068 -3.13928e-09 0)
(0.128068 -3.68921e-09 0)
(0.128068 -6.33579e-09 0)
(0.128068 -5.0083e-09 0)
(0.128068 8.81183e-09 0)
(0.128295 1.56529e-09 0)
(0.128295 -7.97475e-09 0)
(0.128295 -5.88046e-09 0)
(0.128295 -1.56991e-09 0)
(0.128295 -1.09248e-09 0)
(0.128295 -2.25246e-09 0)
(0.128295 -3.64247e-09 0)
(0.128295 -5.06861e-09 0)
(0.128295 -6.43016e-09 0)
(0.128295 -7.50823e-09 0)
(0.128295 -8.16934e-09 0)
(0.128295 -8.38217e-09 0)
(0.128295 -8.11871e-09 0)
(0.128295 -7.37988e-09 0)
(0.128295 -6.20856e-09 0)
(0.128295 -4.71768e-09 0)
(0.128295 -3.11956e-09 0)
(0.128295 -1.72647e-09 0)
(0.128295 -9.5297e-10 0)
(0.128295 -1.12925e-09 0)
(0.128295 -2.09633e-09 0)
(0.128295 -2.97673e-09 0)
(0.128295 -2.42725e-09 0)
(0.128295 2.86102e-10 0)
(0.128295 4.55411e-09 0)
(0.128295 9.24167e-09 0)
(0.128295 1.32762e-08 0)
(0.128295 1.57464e-08 0)
(0.128295 1.63316e-08 0)
(0.128295 1.50407e-08 0)
(0.128295 1.25436e-08 0)
(0.128295 9.2965e-09 0)
(0.128295 6.21094e-09 0)
(0.128295 2.79604e-09 0)
(0.128295 4.6197e-10 0)
(0.128295 -2.63336e-09 0)
(0.128295 -3.02871e-09 0)
(0.128295 -4.95713e-09 0)
(0.128295 -3.77666e-09 0)
(0.128295 5.86145e-09 0)
(0.128414 3.24015e-11 0)
(0.128414 -3.8119e-09 0)
(0.128414 -2.06004e-09 0)
(0.128414 5.33467e-10 0)
(0.128414 1.02324e-09 0)
(0.128414 4.83206e-10 0)
(0.128414 -3.67982e-10 0)
(0.128414 -1.34474e-09 0)
(0.128414 -2.33694e-09 0)
(0.128414 -3.19967e-09 0)
(0.128414 -3.86037e-09 0)
(0.128414 -4.30298e-09 0)
(0.128414 -4.51156e-09 0)
(0.128414 -4.49141e-09 0)
(0.128414 -4.27026e-09 0)
(0.128414 -3.93793e-09 0)
(0.128414 -3.64171e-09 0)
(0.128414 -3.5506e-09 0)
(0.128414 -3.84179e-09 0)
(0.128414 -4.54102e-09 0)
(0.128414 -5.25809e-09 0)
(0.128414 -5.1414e-09 0)
(0.128414 -3.33567e-09 0)
(0.128414 1.22953e-10 0)
(0.128414 4.16734e-09 0)
(0.128414 7.73775e-09 0)
(0.128414 1.02452e-08 0)
(0.128414 1.1449e-08 0)
(0.128414 1.14142e-08 0)
(0.128414 1.02227e-08 0)
(0.128414 8.21864e-09 0)
(0.128414 5.80069e-09 0)
(0.128414 3.49395e-09 0)
(0.128414 1.23697e-09 0)
(0.128414 -4.04974e-10 0)
(0.128414 -2.06018e-09 0)
(0.128414 -2.36535e-09 0)
(0.128414 -3.10719e-09 0)
(0.128414 -2.29902e-09 0)
(0.128414 1.91607e-09 0)
(0.128414 -1.25448e-09 0)
(0.128414 2.72932e-09 0)
(0.128414 3.65861e-09 0)
(0.128414 3.31908e-09 0)
(0.128414 3.30012e-09 0)
(0.128414 3.19029e-09 0)
(0.128414 2.76617e-09 0)
(0.128414 2.15794e-09 0)
(0.128414 1.48883e-09 0)
(0.128414 8.11417e-10 0)
(0.128414 1.26524e-10 0)
(0.128414 -5.68627e-10 0)
(0.128414 -1.26735e-09 0)
(0.128414 -1.9715e-09 0)
(0.128414 -2.69689e-09 0)
(0.128414 -3.50632e-09 0)
(0.128414 -4.47549e-09 0)
(0.128414 -5.62973e-09 0)
(0.128414 -6.94447e-09 0)
(0.128414 -8.18123e-09 0)
(0.128414 -8.70295e-09 0)
(0.128414 -7.59158e-09 0)
(0.128414 -4.38587e-09 0)
(0.128414 4.73402e-11 0)
(0.128414 4.02945e-09 0)
(0.128414 6.51574e-09 0)
(0.128414 7.38919e-09 0)
(0.128414 7.11865e-09 0)
(0.128414 6.24356e-09 0)
(0.128414 5.02623e-09 0)
(0.128414 3.48778e-09 0)
(0.128414 1.95373e-09 0)
(0.128414 5.42221e-10 0)
(0.128414 -4.22983e-10 0)
(0.128414 -1.26069e-09 0)
(0.128414 -1.32496e-09 0)
(0.128414 -1.56418e-09 0)
(0.128414 -7.77528e-10 0)
(0.128414 -4.03036e-10 0)
(0.128414 -2.89353e-09 0)
(0.128296 -1.46339e-09 0)
(0.128296 8.65218e-09 0)
(0.128296 8.72131e-09 0)
(0.128296 5.99094e-09 0)
(0.128296 5.62144e-09 0)
(0.128296 5.9098e-09 0)
(0.128296 5.90611e-09 0)
(0.128296 5.6598e-09 0)
(0.128296 5.28186e-09 0)
(0.128296 4.74905e-09 0)
(0.128296 4.00717e-09 0)
(0.128296 3.03218e-09 0)
(0.128296 1.83142e-09 0)
(0.128296 4.0997e-10 0)
(0.128296 -1.2376e-09 0)
(0.128296 -3.14932e-09 0)
(0.128296 -5.33168e-09 0)
(0.128296 -7.69494e-09 0)
(0.128296 -1.00542e-08 0)
(0.128296 -1.19373e-08 0)
(0.128296 -1.2451e-08 0)
(0.128296 -1.05183e-08 0)
(0.128296 -5.93138e-09 0)
(0.128296 -3.90229e-10 0)
(0.128296 3.68772e-09 0)
(0.128296 5.21806e-09 0)
(0.128296 4.55343e-09 0)
(0.128296 2.843e-09 0)
(0.128296 1.1592e-09 0)
(0.128296 -8.30848e-11 0)
(0.128296 -1.17099e-09 0)
(0.128296 -1.78145e-09 0)
(0.128296 -2.23843e-09 0)
(0.128296 -1.87727e-09 0)
(0.128296 -1.87635e-09 0)
(0.128296 -3.71068e-10 0)
(0.128296 -4.69577e-10 0)
(0.128296 1.60778e-09 0)
(0.128296 1.53901e-09 0)
(0.128296 -6.3329e-09 0)
(0.128068 -1.2912e-09 0)
(0.128068 1.24121e-08 0)
(0.128068 1.20461e-08 0)
(0.128068 8.3458e-09 0)
(0.128068 8.01162e-09 0)
(0.128068 8.76383e-09 0)
(0.128068 9.22994e-09 0)
(0.128068 9.33853e-09 0)
(0.128068 9.21794e-09 0)
(0.128068 8.80466e-09 0)
(0.128068 7.97681e-09 0)
(0.128068 6.70747e-09 0)
(0.128068 4.99753e-09 0)
(0.128068 2.86275e-09 0)
(0.128068 3.42393e-10 0)
(0.128068 -2.61643e-09 0)
(0.128068 -5.97128e-09 0)
(0.128068 -9.53762e-09 0)
(0.128068 -1.30022e-08 0)
(0.128068 -1.5698e-08 0)
(0.128068 -1.64659e-08 0)
(0.128068 -1.3961e-08 0)
(0.128068 -8.12777e-09 0)
(0.128068 -1.47282e-09 0)
(0.128068 2.79704e-09 0)
(0.128068 3.55715e-09 0)
(0.128068 1.56722e-09 0)
(0.128068 -1.34047e-09 0)
(0.128068 -3.67609e-09 0)
(0.128068 -4.86539e-09 0)
(0.128068 -5.42577e-09 0)
(0.128068 -5.08219e-09 0)
(0.128068 -4.57774e-09 0)
(0.128068 -2.91284e-09 0)
(0.128068 -2.0966e-09 0)
(0.128068 8.45033e-10 0)
(0.128068 9.66788e-10 0)
(0.128068 3.89304e-09 0)
(0.128068 3.56723e-09 0)
(0.128068 -8.19348e-09 0)
(0.127739 -1.55274e-09 0)
(0.127739 1.3565e-08 0)
(0.127739 1.36222e-08 0)
(0.127739 1.02182e-08 0)
(0.127739 1.04549e-08 0)
(0.127739 1.1809e-08 0)
(0.127739 1.27499e-08 0)
(0.127739 1.32366e-08 0)
(0.127739 1.33792e-08 0)
(0.127739 1.30422e-08 0)
(0.127739 1.21092e-08 0)
(0.127739 1.05151e-08 0)
(0.127739 8.31274e-09 0)
(0.127739 5.54356e-09 0)
(0.127739 2.17228e-09 0)
(0.127739 -1.79307e-09 0)
(0.127739 -6.27751e-09 0)
(0.127739 -1.10386e-08 0)
(0.127739 -1.56753e-08 0)
(0.127739 -1.93539e-08 0)
(0.127739 -2.06371e-08 0)
(0.127739 -1.78578e-08 0)
(0.127739 -1.10277e-08 0)
(0.127739 -3.35035e-09 0)
(0.127739 1.18257e-09 0)
(0.127739 1.32402e-09 0)
(0.127739 -1.73642e-09 0)
(0.127739 -5.56771e-09 0)
(0.127739 -8.35132e-09 0)
(0.127739 -9.28999e-09 0)
(0.127739 -9.20552e-09 0)
(0.127739 -7.79603e-09 0)
(0.127739 -6.35048e-09 0)
(0.127739 -3.48015e-09 0)
(0.127739 -1.93913e-09 0)
(0.127739 2.26701e-09 0)
(0.127739 2.65425e-09 0)
(0.127739 6.18093e-09 0)
(0.127739 6.01253e-09 0)
(0.127739 -8.84134e-09 0)
(0.127313 -2.43771e-09 0)
(0.127313 1.37869e-08 0)
(0.127313 1.38345e-08 0)
(0.127313 1.18396e-08 0)
(0.127313 1.3015e-08 0)
(0.127313 1.50634e-08 0)
(0.127313 1.65342e-08 0)
(0.127313 1.73487e-08 0)
(0.127313 1.76736e-08 0)
(0.127313 1.74046e-08 0)
(0.127313 1.63535e-08 0)
(0.127313 1.44665e-08 0)
(0.127313 1.18111e-08 0)
(0.127313 8.38573e-09 0)
(0.127313 4.24059e-09 0)
(0.127313 -6.60793e-10 0)
(0.127313 -6.21525e-09 0)
(0.127313 -1.21455e-08 0)
(0.127313 -1.80189e-08 0)
(0.127313 -2.27979e-08 0)
(0.127313 -2.48163e-08 0)
(0.127313 -2.2075e-08 0)
(0.127313 -1.44939e-08 0)
(0.127313 -5.91903e-09 0)
(0.127313 -1.20036e-09 0)
(0.127313 -1.61326e-09 0)
(0.127313 -5.47285e-09 0)
(0.127313 -1.00017e-08 0)
(0.127313 -1.29174e-08 0)
(0.127313 -1.33209e-08 0)
(0.127313 -1.25219e-08 0)
(0.127313 -1.00042e-08 0)
(0.127313 -7.67208e-09 0)
(0.127313 -3.67886e-09 0)
(0.127313 -1.52998e-09 0)
(0.127313 3.83932e-09 0)
(0.127313 4.55231e-09 0)
(0.127313 8.46592e-09 0)
(0.127313 8.85723e-09 0)
(0.127313 -8.59727e-09 0)
(0.126792 -4.63796e-09 0)
(0.126792 1.23147e-08 0)
(0.126792 1.45283e-08 0)
(0.126792 1.36183e-08 0)
(0.126792 1.58966e-08 0)
(0.126792 1.86034e-08 0)
(0.126792 2.04737e-08 0)
(0.126792 2.15461e-08 0)
(0.126792 2.20374e-08 0)
(0.126792 2.17861e-08 0)
(0.126792 2.06036e-08 0)
(0.126792 1.8421e-08 0)
(0.126792 1.53074e-08 0)
(0.126792 1.13345e-08 0)
(0.126792 6.47741e-09 0)
(0.126792 7.09357e-10 0)
(0.126792 -5.86414e-09 0)
(0.126792 -1.29443e-08 0)
(0.126792 -1.99381e-08 0)
(0.126792 -2.58672e-08 0)
(0.126792 -2.87957e-08 0)
(0.126792 -2.62664e-08 0)
(0.126792 -1.82364e-08 0)
(0.126792 -9.06998e-09 0)
(0.126792 -4.32614e-09 0)
(0.126792 -5.22249e-09 0)
(0.126792 -9.75638e-09 0)
(0.126792 -1.46659e-08 0)
(0.126792 -1.74334e-08 0)
(0.126792 -1.71846e-08 0)
(0.126792 -1.54464e-08 0)
(0.126792 -1.17165e-08 0)
(0.126792 -8.59927e-09 0)
(0.126792 -3.58812e-09 0)
(0.126792 -9.41156e-10 0)
(0.126792 5.45524e-09 0)
(0.126792 6.42588e-09 0)
(0.126792 1.06366e-08 0)
(0.126792 1.21416e-08 0)
(0.126792 -7.89368e-09 0)
(0.126177 -7.37248e-09 0)
(0.126177 1.00449e-08 0)
(0.126177 1.49209e-08 0)
(0.126177 1.54797e-08 0)
(0.126177 1.88783e-08 0)
(0.126177 2.21578e-08 0)
(0.126177 2.43346e-08 0)
(0.126177 2.55881e-08 0)
(0.126177 2.61946e-08 0)
(0.126177 2.59586e-08 0)
(0.126177 2.46104e-08 0)
(0.126177 2.21207e-08 0)
(0.126177 1.86853e-08 0)
(0.126177 1.41965e-08 0)
(0.126177 8.6901e-09 0)
(0.126177 2.17659e-09 0)
(0.126177 -5.25882e-09 0)
(0.126177 -1.32577e-08 0)
(0.126177 -2.13424e-08 0)
(0.126177 -2.83776e-08 0)
(0.126177 -3.22167e-08 0)
(0.126177 -3.01457e-08 0)
(0.126177 -2.19834e-08 0)
(0.126177 -1.25521e-08 0)
(0.126177 -8.05075e-09 0)
(0.126177 -9.4063e-09 0)
(0.126177 -1.44521e-08 0)
(0.126177 -1.95449e-08 0)
(0.126177 -2.19439e-08 0)
(0.126177 -2.07772e-08 0)
(0.126177 -1.80051e-08 0)
(0.126177 -1.3098e-08 0)
(0.126177 -9.31861e-09 0)
(0.126177 -3.39181e-09 0)
(0.126177 -4.09853e-10 0)
(0.126177 6.83341e-09 0)
(0.126177 8.24019e-09 0)
(0.126177 1.27452e-08 0)
(0.126177 1.60068e-08 0)
(0.126177 -6.55112e-09 0)
(0.125464 -9.27882e-09 0)
(0.125464 7.94577e-09 0)
(0.125464 1.40421e-08 0)
(0.125464 1.69475e-08 0)
(0.125464 2.1414e-08 0)
(0.125464 2.52106e-08 0)
(0.125464 2.76606e-08 0)
(0.125464 2.90915e-08 0)
(0.125464 2.98359e-08 0)
(0.125464 2.95789e-08 0)
(0.125464 2.81588e-08 0)
(0.125464 2.5532e-08 0)
(0.125464 2.1744e-08 0)
(0.125464 1.68499e-08 0)
(0.125464 1.08726e-08 0)
(0.125464 3.82399e-09 0)
(0.125464 -4.30562e-09 0)
(0.125464 -1.31014e-08 0)
(0.125464 -2.20604e-08 0)
(0.125464 -3.01084e-08 0)
(0.125464 -3.48262e-08 0)
(0.125464 -3.33201e-08 0)
(0.125464 -2.54053e-08 0)
(0.125464 -1.6126e-08 0)
(0.125464 -1.20753e-08 0)
(0.125464 -1.40515e-08 0)
(0.125464 -1.94733e-08 0)
(0.125464 -2.4433e-08 0)
(0.125464 -2.62419e-08 0)
(0.125464 -2.40731e-08 0)
(0.125464 -2.03412e-08 0)
(0.125464 -1.4373e-08 0)
(0.125464 -1.00492e-08 0)
(0.125464 -3.38983e-09 0)
(0.125464 -7.62889e-11 0)
(0.125464 7.90975e-09 0)
(0.125464 9.8848e-09 0)
(0.125464 1.4645e-08 0)
(0.125464 2.04323e-08 0)
(0.125464 -3.96103e-09 0)
(0.124648 -1.00148e-08 0)
(0.124648 4.36294e-09 0)
(0.124648 1.2397e-08 0)
(0.124648 1.74714e-08 0)
(0.124648 2.30765e-08 0)
(0.124648 2.72904e-08 0)
(0.124648 3.00437e-08 0)
(0.124648 3.18182e-08 0)
(0.124648 3.27944e-08 0)
(0.124648 3.27474e-08 0)
(0.124648 3.13039e-08 0)
(0.124648 2.85691e-08 0)
(0.124648 2.46322e-08 0)
(0.124648 1.94687e-08 0)
(0.124648 1.31994e-08 0)
(0.124648 5.68526e-09 0)
(0.124648 -2.92135e-09 0)
(0.124648 -1.22528e-08 0)
(0.124648 -2.19879e-08 0)
(0.124648 -3.08413e-08 0)
(0.124648 -3.63995e-08 0)
(0.124648 -3.56252e-08 0)
(0.124648 -2.82134e-08 0)
(0.124648 -1.95572e-08 0)
(0.124648 -1.64224e-08 0)
(0.124648 -1.89278e-08 0)
(0.124648 -2.4489e-08 0)
(0.124648 -2.90007e-08 0)
(0.124648 -3.01686e-08 0)
(0.124648 -2.71963e-08 0)
(0.124648 -2.25682e-08 0)
(0.124648 -1.5729e-08 0)
(0.124648 -1.09793e-08 0)