/*--------------------------------*- C++ -*----------------------------------*\
  =========                 |
  \\      /  F ield         | OpenFOAM: The Open Source CFD Toolbox
   \\    /   O peration     | Website:  https://openfoam.org
    \\  /    A nd           | Version:  dev
     \\/     M anipulation  |

   OpenFOAM for Windows 20.09 (v1)
   Built by CFD Support, www.cfdsupport.com (based on Symscape).
\*---------------------------------------------------------------------------*/
FoamFile
{
    version     2.0;
    format      ascii;
    class       volVectorField;
    location    "0";
    object      gradp_rgh;
}
// * * * * * * * * * * * * * * * * * * * * * * * * * * * * * * * * * * * * * //

dimensions      [1 -2 -2 0 0 0 0];

internalField   nonuniform List<vector> 
120
(
(-5 0 0)
(0 0 0)
(0 0 0)
(0 0 0)
(-5 0 0)
(0 0 0)
(0 0 0)
(0 0 0)
(-5 0 0)
(0 0 0)
(0 0 0)
(0 0 0)
(-5 -2.74439e-13 0)
(0 -2.74439e-13 0)
(0 -2.64274e-13 0)
(0 -2.64274e-13 0)
(-5 -2.64274e-13 0)
(0 -2.64274e-13 0)
(0 -2.64274e-13 0)
(0 -2.64274e-13 0)
(-5 0 0)
(0 0 0)
(0 0 0)
(0 0 0)
(-5 0 0)
(0 0 0)
(0 0 0)
(0 0 0)
(-5 0 0)
(0 0 0)
(0 0 0)
(0 0 0)
(-5 0 0)
(0 0 0)
(0 0 0)
(0 0 0)
(-5 0 0)
(0 0 0)
(0 0 0)
(0 0 0)
(-5 0 0)
(0 0 0)
(0 0 0)
(0 0 0)
(-5 0 0)
(0 0 0)
(0 0 0)
(0 0 0)
(-5 0 0)
(0 0 0)
(0 0 0)
(0 0 0)
(-5 0 0)
(0 0 0)
(0 0 0)
(0 0 0)
(-5 2.33781e-13 0)
(0 2.33781e-13 0)
(0 2.33781e-13 0)
(0 2.23617e-13 0)
(0 0 0)
(0 0 0)
(0 0 0)
(-5 0 0)
(0 0 0)
(0 0 0)
(0 0 0)
(-5 0 0)
(0 0 0)
(0 0 0)
(0 0 0)
(-5 0 0)
(0 -2.64274e-13 0)
(0 -2.64274e-13 0)
(0 -2.64274e-13 0)
(-5 -2.74439e-13 0)
(0 -2.64274e-13 0)
(0 -2.64274e-13 0)
(0 -2.64274e-13 0)
(-5 -2.64274e-13 0)
(0 0 0)
(0 0 0)
(0 0 0)
(-5 0 0)
(0 0 0)
(0 0 0)
(0 0 0)
(-5 0 0)
(0 0 0)
(0 0 0)
(0 0 0)
(-5 0 0)
(0 0 0)
(0 0 0)
(0 0 0)
(-5 0 0)
(0 0 0)
(0 0 0)
(0 0 0)
(-5 0 0)
(0 0 0)
(0 0 0)
(0 0 0)
(-5 0 0)
(0 0 0)
(0 0 0)
(0 0 0)
(-5 0 0)
(0 0 0)
(0 0 0)
(0 0 0)
(-5 0 0)
(0 0 0)
(0 0 0)
(0 0 0)
(-5 0 0)
(0 2.33781e-13 0)
(0 2.33781e-13 0)
(0 2.33781e-13 0)
(-5 2.33781e-13 0)
)
;

boundaryField
{
    topWall
    {
        type            extrapolatedCalculated;
        value           nonuniform List<vector> 0();
    }
    botWall
    {
        type            extrapolatedCalculated;
        value           nonuniform List<vector> 0();
    }
    inlet
    {
        type            cyclic;
    }
    outlet
    {
        type            cyclic;
    }
    fixWall
    {
        type            empty;
    }
    procBoundary3to2
    {
        type            processor;
        value           nonuniform List<vector> 8((-5 0 0) (0 0 0) (0 0 0) (0 0 0) (0 0 0) (0 0 0) (0 0 0) (-5 0 0));
    }
    procBoundary3to4
    {
        type            processor;
        value           nonuniform List<vector> 8((-5 2.33781e-13 0) (0 2.33781e-13 0) (0 2.33781e-13 0) (0 2.33781e-13 0) (0 2.33781e-13 0) (0 2.33781e-13 0) (0 2.33781e-13 0) (-5 2.33781e-13 0));
    }
}


// ************************************************************************* //
