/*--------------------------------*- C++ -*----------------------------------*\
  =========                 |
  \\      /  F ield         | OpenFOAM: The Open Source CFD Toolbox
   \\    /   O peration     | Website:  https://openfoam.org
    \\  /    A nd           | Version:  dev
     \\/     M anipulation  |

   OpenFOAM for Windows 20.09 (v1)
   Built by CFD Support, www.cfdsupport.com (based on Symscape).
\*---------------------------------------------------------------------------*/
FoamFile
{
    version     2.0;
    format      ascii;
    class       surfaceScalarField;
    location    "10";
    object      alphaPhi0.water;
}
// * * * * * * * * * * * * * * * * * * * * * * * * * * * * * * * * * * * * * //

dimensions      [0 3 -1 0 0 0 0];

internalField   nonuniform List<scalar> 
217
(
3.48328e-09
-6.98133e-14
3.77559e-09
-4.22781e-14
4.52452e-09
6.82056e-13
2.33035e-12
5.00758e-09
4.61713e-12
-1.19106e-16
4.26724e-12
9.75441e-19
4.83381e-12
2.20235e-15
9.33694e-15
9.67469e-12
1.23558e-14
-3.01647e-19
6.66362e-15
2.84805e-20
8.70325e-15
9.16578e-20
1.26237e-18
1.87752e-14
9.20488e-17
-2.50523e-22
6.72161e-17
1.76086e-21
4.81277e-17
5.58994e-20
1.15156e-21
4.15783e-17
4.42641e-19
1.41463e-24
4.27482e-19
1.28308e-23
4.43643e-19
3.46033e-23
3.65471e-22
3.12859e-19
2.35478e-21
1.64661e-26
2.37451e-21
7.29933e-26
2.61731e-21
1.55526e-25
1.1101e-25
2.46902e-21
1.28932e-23
1.2216e-28
1.323e-23
4.05437e-28
1.48214e-23
7.94046e-28
4.7778e-28
1.51179e-23
7.23525e-26
7.74519e-31
7.44104e-26
2.17649e-30
8.31581e-26
4.00733e-30
2.18984e-30
8.60582e-26
4.05941e-28
4.41466e-33
4.14475e-28
1.10289e-32
4.59964e-28
1.98017e-32
9.94169e-33
4.76375e-28
2.24731e-30
2.2765e-35
2.25239e-30
5.20993e-35
2.4823e-30
9.487e-35
4.5147e-35
2.56118e-30
1.21464e-32
1.04812e-37
1.18484e-32
2.27163e-37
1.29807e-32
4.39238e-37
2.0433e-37
1.33567e-32
6.2496e-35
4.33653e-40
5.97517e-35
8.84847e-40
6.53501e-35
1.95196e-39
9.34696e-40
6.77094e-35
3.03296e-37
1.56422e-42
2.87462e-37
3.08528e-42
3.14016e-37
8.30625e-42
4.12508e-42
3.27775e-37
1.38127e-39
4.79917e-45
1.31086e-39
8.91172e-45
1.43633e-39
3.35114e-44
1.80035e-44
1.51449e-39
6.00294e-42
5.68244e-42
6.11353e-42
6.53446e-42
5.01092e-09
3.47311e-12
3.97177e-09
-2.73691e-13
3.59328e-09
-1.42983e-13
1.7867e-15
1.71671e-11
2.47562e-16
1.39172e-11
-9.09141e-16
8.32782e-12
-5.83439e-16
-3.31032e-17
2.89147e-14
1.08378e-19
3.78218e-14
-2.26034e-18
3.4255e-14
-1.83668e-18
-1.59588e-19
6.4914e-17
1.86032e-22
1.01315e-16
-8.0733e-21
1.09661e-16
-6.50386e-21
-5.76373e-22
2.63259e-19
2.05326e-24
3.6501e-19
-3.42886e-23
4.21519e-19
-2.40413e-23
-1.53736e-24
2.19409e-21
1.28571e-26
2.1712e-21
-1.88634e-25
2.16478e-21
-1.32294e-25
-5.16341e-27
1.37101e-23
6.25854e-29
1.29627e-23
-1.00123e-27
1.26869e-23
-7.32905e-28
-9.22327e-30
7.91859e-26
4.29761e-31
7.48193e-26
-5.14997e-30
7.27577e-26
-3.97557e-30
6.8825e-32
4.44145e-28
3.10233e-33
4.20829e-28
-2.56461e-32
4.07869e-28
-2.10579e-32
1.00757e-33
2.41598e-30
2.1858e-35
2.30408e-30
-1.23645e-34
2.22908e-30
-1.08613e-34
8.61442e-36
1.27609e-32
1.4256e-37
1.22106e-32
-5.68918e-37
1.17584e-32
-5.38016e-37
5.65552e-38
6.48077e-35
8.48846e-40
6.18726e-35
-2.52713e-39
5.97432e-35
-2.55909e-39
3.48924e-40
3.13377e-37
4.55492e-42
3.00172e-37
-1.05226e-41
2.90852e-37
-1.14974e-41
1.82485e-42
1.44111e-39
2.21847e-44
1.38077e-39
-4.2271e-44
1.34057e-39
-4.85113e-44
9.39373e-45
6.27505e-42
6.00215e-42
5.78755e-42
)
;

boundaryField
{
    topWall
    {
        type            calculated;
        value           nonuniform List<scalar> 0();
    }
    botWall
    {
        type            calculated;
        value           nonuniform List<scalar> 0();
    }
    inlet
    {
        type            cyclic;
        value           nonuniform List<scalar> 
15
(
-5.51091e-12
-3.48551e-09
-2.33463e-14
-1.0971e-16
-4.47458e-19
-2.30865e-21
-1.29707e-23
-7.36041e-26
-4.12193e-28
-2.25655e-30
-1.19493e-32
-6.10418e-35
-2.98654e-37
-1.3725e-39
-5.90908e-42
)
;
    }
    outlet
    {
        type            cyclic;
        value           nonuniform List<scalar> 
15
(
5.51091e-12
3.48551e-09
2.33463e-14
1.0971e-16
4.47458e-19
2.30865e-21
1.29707e-23
7.36041e-26
4.12193e-28
2.25655e-30
1.19493e-32
6.10418e-35
2.98654e-37
1.3725e-39
5.90908e-42
)
;
    }
    fixWall
    {
        type            empty;
        value           nonuniform List<scalar> 0();
    }
    procBoundary4to3
    {
        type            processor;
        value           nonuniform List<scalar> 8(5.97942e-11 3.78966e-11 -3.39985e-10 -6.99981e-10 -9.55693e-10 9.34266e-11 6.5758e-11 4.61121e-12);
    }
    procBoundary4to5
    {
        type            processor;
        value           nonuniform List<scalar> 8(8.49247e-48 1.44941e-47 6.40232e-46 5.07999e-47 6.50263e-47 -5.41495e-47 -7.3368e-47 2.85333e-47);
    }
}


// ************************************************************************* //
