/*--------------------------------*- C++ -*----------------------------------*\
  =========                 |
  \\      /  F ield         | OpenFOAM: The Open Source CFD Toolbox
   \\    /   O peration     | Website:  https://openfoam.org
    \\  /    A nd           | Version:  dev
     \\/     M anipulation  |

   OpenFOAM for Windows 20.09 (v1)
   Built by CFD Support, www.cfdsupport.com (based on Symscape).
\*---------------------------------------------------------------------------*/
FoamFile
{
    version     2.0;
    format      ascii;
    class       volSymmTensorField;
    location    "10";
    object      devReff;
}
// * * * * * * * * * * * * * * * * * * * * * * * * * * * * * * * * * * * * * //

dimensions      [0 2 -2 0 0 0 0];

internalField   nonuniform List<symmTensor> 
120
(
(2.79941e-07 -0.00525415 -0 -2.48804e-07 -0 -3.11365e-08)
(-3.62607e-08 -0.00522242 -0 -6.04131e-08 -0 9.66737e-08)
(-3.91548e-07 -0.0051364 -0 1.06709e-07 -0 2.8484e-07)
(-3.88636e-07 -0.00503437 -0 2.29593e-07 -0 1.59043e-07)
(1.10572e-06 -0.00893768 -0 -9.57567e-07 -0 -1.48149e-07)
(2.92097e-06 -0.00891421 -0 -2.41821e-06 -0 -5.02754e-07)
(4.53604e-06 -0.00885224 -0 -3.66524e-06 -0 -8.70801e-07)
(2.43057e-06 -0.00878497 -0 -1.91387e-06 -0 -5.16696e-07)
(1.35878e-06 -0.0089115 -0 -1.44717e-06 -0 8.83945e-08)
(2.95573e-06 -0.00891958 -0 -3.19523e-06 -0 2.39501e-07)
(3.97475e-06 -0.00895335 -0 -4.31778e-06 -0 3.43029e-07)
(1.71145e-06 -0.00901447 -0 -1.91626e-06 -0 2.04816e-07)
(1.18861e-06 -0.00817066 -0 -1.20421e-06 -0 1.55948e-08)
(2.12378e-06 -0.00818178 -0 -2.21878e-06 -0 9.49967e-08)
(2.40495e-06 -0.00820875 -0 -2.56759e-06 -0 1.62643e-07)
(6.18626e-07 -0.00825336 -0 -6.7882e-07 -0 6.01943e-08)
(9.80956e-07 -0.0074705 -0 -9.43658e-07 -0 -3.72981e-08)
(1.40947e-06 -0.00748296 -0 -1.37271e-06 -0 -3.67599e-08)
(1.20361e-06 -0.00750327 -0 -1.16472e-06 -0 -3.8884e-08)
(-1.48626e-07 -0.00753384 -0 1.55737e-07 -0 -7.11079e-09)
(8.2944e-07 -0.0068117 -0 -8.33186e-07 -0 3.74654e-09)
(9.70688e-07 -0.00682488 -0 -1.00584e-06 -0 3.51518e-08)
(5.61887e-07 -0.00684075 -0 -5.80586e-07 -0 1.86988e-08)
(-5.2346e-07 -0.00685909 -0 5.31054e-07 -0 -7.59429e-09)
(6.01884e-07 -0.0061931 -0 -5.93147e-07 -0 -8.73737e-09)
(4.77483e-07 -0.00620528 -0 -4.78661e-07 -0 1.17756e-09)
(9.48903e-08 -0.0062184 -0 -9.1166e-08 -0 -3.72426e-09)
(-6.84935e-07 -0.00622836 -0 7.09696e-07 -0 -2.47613e-08)
(4.36442e-07 -0.00561549 -0 -4.17098e-07 -0 -1.93444e-08)
(8.61935e-08 -0.00562746 -0 -8.19073e-08 -0 -4.28615e-09)
(-2.28539e-07 -0.00563882 -0 2.27285e-07 -0 1.25384e-09)
(-7.0397e-07 -0.00564229 -0 6.88125e-07 -0 1.58454e-08)
(2.3999e-07 -0.00507827 -0 -2.35184e-07 -0 -4.80544e-09)
(-2.87668e-07 -0.00508979 -0 2.72193e-07 -0 1.54752e-08)
(-3.86195e-07 -0.00509969 -0 3.73098e-07 -0 1.30971e-08)
(-6.28451e-07 -0.00509814 -0 6.54901e-07 -0 -2.64493e-08)
(3.0205e-08 -0.00457865 -0 -1.67528e-08 -0 -1.34522e-08)
(-6.03601e-07 -0.00458843 -0 5.82037e-07 -0 2.15639e-08)
(-4.94327e-07 -0.00459776 -0 4.77304e-07 -0 1.70232e-08)
(-4.44722e-07 -0.00459322 -0 4.30758e-07 -0 1.39635e-08)
(-1.41239e-07 -0.00411667 -0 1.46966e-07 -0 -5.72662e-09)
(-9.39945e-07 -0.00412401 -0 9.38119e-07 -0 1.82591e-09)
(-5.63683e-07 -0.00413088 -0 5.65345e-07 -0 -1.66188e-09)
(-2.57354e-07 -0.00412426 -0 3.00853e-07 -0 -4.34992e-08)
(-3.60383e-07 -0.00368929 -0 3.93961e-07 -0 -3.3578e-08)
(-1.11928e-06 -0.00369483 -0 1.13815e-06 -0 -1.88679e-08)
(-5.3533e-07 -0.0036995 -0 5.48189e-07 -0 -1.28591e-08)
(-6.31341e-08 -0.00369181 -0 2.7991e-08 -0 3.51431e-08)
(-4.28543e-07 -0.0032979 -0 4.13564e-07 -0 1.49794e-08)
(-1.25375e-06 -0.00329966 -0 1.22437e-06 -0 2.93774e-08)
(-4.46541e-07 -0.00330049 -0 4.29124e-07 -0 1.74171e-08)
(6.03772e-08 -0.00329705 -0 8.0483e-09 -0 -6.84255e-08)
(-5.35884e-07 -0.00293599 -0 6.09697e-07 -0 -7.38129e-08)
(-1.24917e-06 -0.00293678 -0 1.31092e-06 -0 -6.17509e-08)
(-4.57053e-07 -0.00293681 -0 4.76193e-07 -0 -1.91403e-08)
(2.71795e-08 -0.00293254 -0 -9.96017e-08 -0 7.24221e-08)
(-5.00078e-07 -0.00260744 -0 4.72696e-07 -0 2.73819e-08)
(-1.23455e-06 -0.00260432 -0 1.15811e-06 -0 7.6435e-08)
(-3.07406e-07 -0.00260503 -0 2.90113e-07 -0 1.72929e-08)
(1.64063e-07 -0.00260408 -0 -1.00057e-07 -0 -6.40066e-08)
(-1.97094e-07 -0.005034 -0 3.05487e-07 -0 -1.08393e-07)
(8.4522e-08 -0.00513489 -0 7.65674e-08 -0 -1.61089e-07)
(4.30285e-07 -0.00521526 -0 -4.06558e-07 -0 -2.37272e-08)
(4.31385e-07 -0.00525765 -0 -4.27768e-07 -0 -3.61667e-09)
(-2.72161e-06 -0.00879053 -0 2.25065e-06 -0 4.70958e-07)
(-4.56874e-06 -0.00885629 -0 3.69346e-06 -0 8.75274e-07)
(-2.92888e-06 -0.00890918 -0 2.38962e-06 -0 5.39258e-07)
(-7.36077e-07 -0.00894297 -0 5.4518e-07 -0 1.90897e-07)
(-2.68071e-06 -0.00902491 -0 2.8929e-06 -0 -2.12186e-07)
(-4.1036e-06 -0.00897015 -0 4.50092e-06 -0 -3.97328e-07)
(-2.72452e-06 -0.00893263 -0 3.01547e-06 -0 -2.90947e-07)
(-6.02086e-07 -0.00891714 -0 6.87581e-07 -0 -8.54952e-08)
(-1.80507e-06 -0.00825807 -0 1.89321e-06 -0 -8.81301e-08)
(-2.52035e-06 -0.00821261 -0 2.67748e-06 -0 -1.57128e-07)
(-1.78084e-06 -0.00818657 -0 1.86329e-06 -0 -8.24592e-08)
(-2.22833e-07 -0.0081742 -0 2.21671e-07 -0 1.16258e-09)
(-1.05218e-06 -0.00753538 -0 9.93986e-07 -0 5.81988e-08)
(-1.2458e-06 -0.00749825 -0 1.17472e-06 -0 7.10771e-08)
(-1.18191e-06 -0.00748149 -0 1.21347e-06 -0 -3.15527e-08)
(-5.40275e-09 -0.00747254 -0 2.29692e-08 -0 -1.75664e-08)
(-5.80838e-07 -0.0068562 -0 6.30863e-07 -0 -5.00253e-08)
(-5.88755e-07 -0.00682762 -0 6.1683e-07 -0 -2.80748e-08)
(-8.37858e-07 -0.00681879 -0 8.37646e-07 -0 2.11642e-10)
(1.64845e-07 -0.00681265 -0 -1.88681e-07 -0 2.38357e-08)
(-4.73868e-08 -0.00622441 -0 3.34023e-08 -0 1.39845e-08)
(-4.69935e-08 -0.00620453 -0 3.0472e-08 -0 1.65215e-08)
(-6.45167e-07 -0.00619901 -0 6.42469e-07 -0 2.69793e-09)
(2.52069e-07 -0.00619419 -0 -2.56756e-07 -0 4.6865e-09)
(2.8134e-07 -0.00563697 -0 -2.98994e-07 -0 1.76539e-08)
(3.02157e-07 -0.00562384 -0 -3.11632e-07 -0 9.47515e-09)
(-5.01243e-07 -0.00562061 -0 5.12806e-07 -0 -1.1563e-08)
(3.51612e-07 -0.0056165 -0 -3.6657e-07 -0 1.4958e-08)
(5.44429e-07 -0.00509176 -0 -5.3531e-07 -0 -9.11849e-09)
(4.93524e-07 -0.00508331 -0 -4.98733e-07 -0 5.20987e-09)
(-4.04333e-07 -0.00508013 -0 4.09616e-07 -0 -5.283e-09)
(4.16212e-07 -0.00507745 -0 -4.15592e-07 -0 -6.19874e-10)
(7.51192e-07 -0.00458603 -0 -7.44713e-07 -0 -6.47881e-09)
(6.66017e-07 -0.00458269 -0 -6.45395e-07 -0 -2.06222e-08)
(-2.9996e-07 -0.00458015 -0 3.09942e-07 -0 -9.98229e-09)
(4.24083e-07 -0.00457705 -0 -4.50955e-07 -0 2.68718e-08)
(8.97215e-07 -0.00411998 -0 -8.90294e-07 -0 -6.92168e-09)
(7.20459e-07 -0.00411928 -0 -7.5073e-07 -0 3.02714e-08)
(-2.17825e-07 -0.0041144 -0 2.29048e-07 -0 -1.12226e-08)
(4.45641e-07 -0.00411293 -0 -4.25843e-07 -0 -1.97972e-08)
(9.77234e-07 -0.00368914 -0 -1.03161e-06 -0 5.43782e-08)
(8.88731e-07 -0.00369356 -0 -8.98619e-07 -0 9.88775e-09)
(-6.59354e-08 -0.00368948 -0 5.82899e-08 -0 7.64543e-09)
(3.47572e-07 -0.00368562 -0 -3.75296e-07 -0 2.77244e-08)
(7.96934e-07 -0.00329881 -0 -7.49314e-07 -0 -4.76195e-08)
(7.08381e-07 -0.00329859 -0 -7.32286e-07 -0 2.39056e-08)
(4.94218e-08 -0.003295 -0 -3.59164e-08 -0 -1.35054e-08)
(4.54886e-07 -0.00329563 -0 -4.39923e-07 -0 -1.49636e-08)
(9.37049e-07 -0.00293375 -0 -1.00413e-06 -0 6.70823e-08)
(1.01499e-06 -0.00293809 -0 -1.0185e-06 -0 3.50681e-09)
(1.74833e-08 -0.00293617 -0 -4.9489e-09 -0 -1.25344e-08)
(2.57467e-07 -0.00293429 -0 -2.93757e-07 -0 3.62902e-08)
(6.06377e-07 -0.00260605 -0 -5.55229e-07 -0 -5.11487e-08)
(6.01045e-07 -0.00260854 -0 -5.93037e-07 -0 -8.00801e-09)
(1.79149e-07 -0.00260564 -0 -1.63666e-07 -0 -1.54834e-08)
(4.75086e-07 -0.0026065 -0 -4.76311e-07 -0 1.22451e-09)
)
;

boundaryField
{
    topWall
    {
        type            calculated;
        value           nonuniform List<symmTensor> 0();
    }
    botWall
    {
        type            calculated;
        value           nonuniform List<symmTensor> 0();
    }
    inlet
    {
        type            cyclic;
    }
    outlet
    {
        type            cyclic;
    }
    fixWall
    {
        type            empty;
    }
    procBoundary4to3
    {
        type            processor;
        value           nonuniform List<symmTensor> 8((7.93723e-08 -0.00147738 -0 -7.97085e-08 -0 3.36132e-10) (-4.07621e-07 -0.00147079 -0 3.13116e-07 -0 9.45052e-08) (-7.10591e-07 -0.00146528 -0 5.59357e-07 -0 1.51233e-07) (-3.84053e-07 -0.00146901 -0 3.04399e-07 -0 7.96541e-08) (9.89762e-08 -0.00147138 -0 -3.7171e-08 -0 -6.18052e-08) (4.66503e-07 -0.00147583 -0 -3.37673e-07 -0 -1.2883e-07) (5.19205e-07 -0.0014808 -0 -4.16403e-07 -0 -1.02802e-07) (3.2187e-07 -0.00147994 -0 -2.73241e-07 -0 -4.86292e-08));
    }
    procBoundary4to5
    {
        type            processor;
        value           nonuniform List<symmTensor> 8((-4.18673e-07 -0.00230462 -0 4.47343e-07 -0 -2.86697e-08) (-1.07381e-06 -0.00230041 -0 1.04061e-06 -0 3.32041e-08) (-4.08279e-07 -0.00230293 -0 3.8475e-07 -0 2.35291e-08) (-4.38383e-08 -0.0023027 -0 5.24181e-09 -0 3.85965e-08) (6.73028e-07 -0.00230172 -0 -6.27135e-07 -0 -4.58931e-08) (9.57409e-07 -0.00230748 -0 -8.8432e-07 -0 -7.30889e-08) (1.1303e-07 -0.00230538 -0 -1.23168e-07 -0 1.01386e-08) (1.84915e-07 -0.00230358 -0 -2.10876e-07 -0 2.59605e-08));
    }
}


// ************************************************************************* //
