/*--------------------------------*- C++ -*----------------------------------*\
  =========                 |
  \\      /  F ield         | OpenFOAM: The Open Source CFD Toolbox
   \\    /   O peration     | Website:  https://openfoam.org
    \\  /    A nd           | Version:  dev
     \\/     M anipulation  |

   OpenFOAM for Windows 20.09 (v1)
   Built by CFD Support, www.cfdsupport.com (based on Symscape).
\*---------------------------------------------------------------------------*/
FoamFile
{
    version     2.0;
    format      ascii;
    class       volScalarField;
    location    "10";
    object      epsilon;
}
// * * * * * * * * * * * * * * * * * * * * * * * * * * * * * * * * * * * * * //

dimensions      [0 2 -3 0 0 0 0];

internalField   nonuniform List<scalar> 
120
(
2.24034e-11
2.2322e-11
2.21808e-11
2.21136e-11
2.82095e-11
2.8125e-11
2.79867e-11
2.79501e-11
3.19126e-11
3.18489e-11
3.17727e-11
3.18262e-11
3.29756e-11
3.29377e-11
3.29068e-11
3.30003e-11
3.1967e-11
3.1953e-11
3.19513e-11
3.20487e-11
2.95622e-11
2.95681e-11
2.95852e-11
2.96672e-11
2.64139e-11
2.64353e-11
2.64645e-11
2.65259e-11
2.2971e-11
2.30029e-11
2.30375e-11
2.30777e-11
1.9592e-11
1.96313e-11
1.96671e-11
1.96899e-11
1.64793e-11
1.65248e-11
1.65595e-11
1.65697e-11
1.37242e-11
1.37758e-11
1.38083e-11
1.38104e-11
1.13466e-11
1.14072e-11
1.14365e-11
1.14342e-11
9.32861e-12
9.40185e-12
9.42749e-12
9.4233e-12
7.63478e-12
7.72395e-12
7.74617e-12
7.7415e-12
6.22392e-12
6.33184e-12
6.35107e-12
6.34681e-12
2.21803e-11
2.22784e-11
2.24206e-11
2.25219e-11
2.80372e-11
2.81072e-11
2.82499e-11
2.83604e-11
3.19251e-11
3.19035e-11
3.19903e-11
3.20753e-11
3.30932e-11
3.30179e-11
3.30699e-11
3.31363e-11
3.21259e-11
3.20306e-11
3.20648e-11
3.21183e-11
2.97257e-11
2.96326e-11
2.9658e-11
2.97021e-11
2.65674e-11
2.64881e-11
2.65076e-11
2.65437e-11
2.31056e-11
2.30444e-11
2.30594e-11
2.30882e-11
1.97078e-11
1.9664e-11
1.96749e-11
1.9697e-11
1.65808e-11
1.65518e-11
1.65592e-11
1.65747e-11
1.38174e-11
1.37996e-11
1.38038e-11
1.38132e-11
1.14382e-11
1.14288e-11
1.14304e-11
1.14341e-11
9.42522e-12
9.42129e-12
9.42065e-12
9.41962e-12
7.74109e-12
7.74155e-12
7.73872e-12
7.73333e-12
6.34421e-12
6.34765e-12
6.34272e-12
6.33376e-12
)
;

boundaryField
{
    topWall
    {
        type            epsilonWallFunction;
        value           nonuniform List<scalar> 0();
    }
    botWall
    {
        type            epsilonWallFunction;
        value           nonuniform List<scalar> 0();
    }
    inlet
    {
        type            cyclic;
    }
    outlet
    {
        type            cyclic;
    }
    fixWall
    {
        type            empty;
    }
    procBoundary4to3
    {
        type            processor;
        value           nonuniform List<scalar> 8(1.7148e-11 1.70849e-11 1.69797e-11 1.69312e-11 1.69814e-11 1.70569e-11 1.71628e-11 1.72375e-11);
    }
    procBoundary4to5
    {
        type            processor;
        value           nonuniform List<scalar> 8(5.08528e-12 5.21422e-12 5.23115e-12 5.22752e-12 5.22142e-12 5.22867e-12 5.22208e-12 5.20972e-12);
    }
}


// ************************************************************************* //
