/*--------------------------------*- C++ -*----------------------------------*\
  =========                 |
  \\      /  F ield         | OpenFOAM: The Open Source CFD Toolbox
   \\    /   O peration     | Website:  https://openfoam.org
    \\  /    A nd           | Version:  dev
     \\/     M anipulation  |

   OpenFOAM for Windows 20.09 (v1)
   Built by CFD Support, www.cfdsupport.com (based on Symscape).
\*---------------------------------------------------------------------------*/
FoamFile
{
    version     2.0;
    format      ascii;
    class       volVectorField;
    location    "10";
    object      gradp_rgh;
}
// * * * * * * * * * * * * * * * * * * * * * * * * * * * * * * * * * * * * * //

dimensions      [1 -2 -2 0 0 0 0];

internalField   nonuniform List<vector> 
120
(
(-1.17667 -2518 0)
(-0.900975 -2530.87 0)
(-0.584134 -2544.03 0)
(-0.833583 -2543.39 0)
(-1.25312 -104.304 0)
(-1.25337 -109.042 0)
(-1.24993 -125.402 0)
(-1.24659 -148.969 0)
(-1.25235 -0.108793 0)
(-1.25262 -0.0992079 0)
(-1.24958 -0.0648923 0)
(-1.24848 -0.0789509 0)
(-1.25233 0.00156281 0)
(-1.25264 0.00133978 0)
(-1.2496 -0.000586703 0)
(-1.24848 -0.00042779 0)
(-1.25231 0.00163438 0)
(-1.25265 0.00136202 0)
(-1.24961 -0.000396401 0)
(-1.24849 -0.000306751 0)
(-1.2523 0.00162922 0)
(-1.25267 0.00137255 0)
(-1.24962 -0.000365299 0)
(-1.2485 -0.000256814 0)
(-1.25228 0.0017287 0)
(-1.25269 0.00145058 0)
(-1.24964 -0.000352285 0)
(-1.24852 -0.000308289 0)
(-1.25226 0.00178266 0)
(-1.2527 0.00142606 0)
(-1.24965 -0.000394825 0)
(-1.24853 -0.000333282 0)
(-1.25224 0.0018203 0)
(-1.25272 0.00142349 0)
(-1.24967 -0.000394401 0)
(-1.24854 -0.000368145 0)
(-1.25222 0.00183908 0)
(-1.25274 0.00146281 0)
(-1.24968 -0.000370015 0)
(-1.24856 -0.000437293 0)
(-1.2522 0.00179675 0)
(-1.25276 0.00137901 0)
(-1.2497 -0.000448987 0)
(-1.24858 -0.000558206 0)
(-1.25218 0.0016565 0)
(-1.25278 0.00110526 0)
(-1.24972 -0.000650531 0)
(-1.24859 -0.000621808 0)
(-1.25216 0.00152862 0)
(-1.2528 0.000866588 0)
(-1.24973 -0.000775789 0)
(-1.2486 -0.000675893 0)
(-1.25214 0.00136422 0)
(-1.25282 0.000681307 0)
(-1.24974 -0.000763521 0)
(-1.2486 -0.000585576 0)
(-1.25213 0.00140415 0)
(-1.25283 0.000875881 0)
(-1.24975 -0.000506974 0)
(-1.24861 -0.000494128 0)
(-1.58751 -2543.32 0)
(-1.87628 -2528.32 0)
(-1.65168 -2512.12 0)
(-1.38916 -2514.87 0)
(-1.24488 -150.296 0)
(-1.24699 -128.643 0)
(-1.25206 -112.607 0)
(-1.25305 -104.502 0)
(-1.24874 -0.178367 0)
(-1.24813 -0.311663 0)
(-1.24932 -0.24718 0)
(-1.25077 -0.146909 0)
(-1.24875 -0.00134979 0)
(-1.24814 -0.00175373 0)
(-1.24932 -0.00161787 0)
(-1.25074 -0.000803747 0)
(-1.24877 -0.00157952 0)
(-1.24814 -0.00169474 0)
(-1.24931 -0.00147562 0)
(-1.25072 -0.000646166 0)
(-1.24878 -0.00176299 0)
(-1.24814 -0.00180453 0)
(-1.2493 -0.0016721 0)
(-1.25069 -0.000779864 0)
(-1.24879 -0.00202209 0)
(-1.24813 -0.00195276 0)
(-1.24929 -0.00165531 0)
(-1.25066 -0.00082212 0)
(-1.24881 -0.00207016 0)
(-1.24813 -0.00198135 0)
(-1.24928 -0.00157871 0)
(-1.25063 -0.000865994 0)
(-1.24882 -0.0021115 0)
(-1.24813 -0.00200197 0)
(-1.24927 -0.00150112 0)
(-1.25061 -0.000930404 0)
(-1.24883 -0.00218196 0)
(-1.24812 -0.00204831 0)
(-1.24926 -0.0014238 0)
(-1.25058 -0.000996503 0)
(-1.24885 -0.00214321 0)
(-1.24811 -0.00193516 0)
(-1.24926 -0.00135503 0)
(-1.25055 -0.00113465 0)
(-1.24886 -0.00186963 0)
(-1.24811 -0.00166787 0)
(-1.24925 -0.00125904 0)
(-1.25053 -0.00127218 0)
(-1.24886 -0.0016823 0)
(-1.2481 -0.00147579 0)
(-1.24925 -0.00122881 0)
(-1.2505 -0.00134237 0)
(-1.24887 -0.00159779 0)
(-1.2481 -0.00154131 0)
(-1.24925 -0.00133211 0)
(-1.25048 -0.00130883 0)
(-1.24888 -0.00172513 0)
(-1.2481 -0.00199785 0)
(-1.24925 -0.00149493 0)
(-1.25046 -0.00119492 0)
)
;

boundaryField
{
    topWall
    {
        type            extrapolatedCalculated;
        value           nonuniform List<vector> 0();
    }
    botWall
    {
        type            extrapolatedCalculated;
        value           nonuniform List<vector> 0();
    }
    inlet
    {
        type            cyclic;
    }
    outlet
    {
        type            cyclic;
    }
    fixWall
    {
        type            empty;
    }
    procBoundary4to3
    {
        type            processor;
        value           nonuniform List<vector> 8((-0.986415 -2543.65 0) (-0.819433 -2539.22 0) (-1.04135 -2523.46 0) (-1.25848 -2500.39 0) (-1.49596 -2499.11 0) (-1.76696 -2520.1 0) (-1.47628 -2535.47 0) (-1.15512 -2543.41 0));
    }
    procBoundary4to5
    {
        type            processor;
        value           nonuniform List<vector> 8((-1.25211 0.00173114 0) (-1.25285 0.00149936 0) (-1.24976 -5.51791e-05 0) (-1.24862 -0.000550071 0) (-1.24889 -0.0021952 0) (-1.2481 -0.00279926 0) (-1.24924 -0.00163329 0) (-1.25043 -0.00108285 0));
    }
}


// ************************************************************************* //
