/*--------------------------------*- C++ -*----------------------------------*\
  =========                 |
  \\      /  F ield         | OpenFOAM: The Open Source CFD Toolbox
   \\    /   O peration     | Website:  https://openfoam.org
    \\  /    A nd           | Version:  dev
     \\/     M anipulation  |

   OpenFOAM for Windows 20.09 (v1)
   Built by CFD Support, www.cfdsupport.com (based on Symscape).
\*---------------------------------------------------------------------------*/
FoamFile
{
    version     2.0;
    format      ascii;
    class       volTensorField;
    location    "10";
    object      gradU;
}
// * * * * * * * * * * * * * * * * * * * * * * * * * * * * * * * * * * * * * //

dimensions      [0 0 -1 0 0 0 0];

internalField   nonuniform List<tensor> 
120
(
(-0.000824354 -3.10958e-05 0 27.847 0.000576819 0 0 0 0)
(0.000352276 0.000127012 0 27.6787 0.00041628 0 0 0 0)
(0.00179243 0.000119867 0 27.2228 0.000472047 0 0 0 0)
(0.00145135 0.000162257 0 26.682 -0.000186958 0 0 0 0)
(-0.00332274 -3.97743e-05 0 47.3698 0.00214496 0 0 0 0)
(-0.00907286 0.000131056 0 47.2452 0.00507597 0 0 0 0)
(-0.0143281 0.000113906 0 46.9167 0.00740525 0 0 0 0)
(-0.00781024 0.00013972 0 46.5602 0.00370251 0 0 0 0)
(-0.00336651 6.91511e-05 0 47.2309 0.00406924 0 0 0 0)
(-0.00719801 0.000214683 0 47.2736 0.00910204 0 0 0 0)
(-0.00962406 9.69758e-05 0 47.4527 0.0123511 0 0 0 0)
(-0.00399257 -3.97668e-05 0 47.7767 0.00562086 0 0 0 0)
(-0.0031085 0.000146071 0 43.3044 0.00323248 0 0 0 0)
(-0.00537628 0.000269088 0 43.3631 0.00613151 0 0 0 0)
(-0.0059421 5.58862e-05 0 43.5063 0.00723512 0 0 0 0)
(-0.00147984 -0.000203273 0 43.743 0.00195839 0 0 0 0)
(-0.00269837 0.000181082 0 39.5935 0.00240185 0 0 0 0)
(-0.0038325 0.000281394 0 39.6594 0.00354026 0 0 0 0)
(-0.0032926 2.74239e-05 0 39.7673 0.00298347 0 0 0 0)
(0.000375016 -0.000247861 0 39.9296 -0.000431547 0 0 0 0)
(-0.00218809 0.000206865 0 36.1018 0.00221787 0 0 0 0)
(-0.00247917 0.000278782 0 36.1716 0.00275863 0 0 0 0)
(-0.00143945 -1.03105e-05 0 36.256 0.00158811 0 0 0 0)
(0.00136704 -0.000294328 0 36.3535 -0.00142742 0 0 0 0)
(-0.00161815 0.000217673 0 32.8232 0.00154869 0 0 0 0)
(-0.00126221 0.000270898 0 32.8877 0.00127157 0 0 0 0)
(-0.000261328 -4.23435e-05 0 32.9576 0.000231721 0 0 0 0)
(0.00174946 -0.000304402 0 33.0106 -0.00194631 0 0 0 0)
(-0.00120783 0.000216511 0 29.7619 0.00105405 0 0 0 0)
(-0.000239771 0.000256832 0 29.8253 0.000205696 0 0 0 0)
(0.00060895 -6.39419e-05 0 29.8858 -0.000598982 0 0 0 0)
(0.00190751 -0.000299048 0 29.9044 -0.00178154 0 0 0 0)
(-0.000648707 0.00020425 0 26.9146 0.000610504 0 0 0 0)
(0.00080333 0.000243347 0 26.9757 -0.000680303 0 0 0 0)
(0.00105812 -7.54642e-05 0 27.0284 -0.000954002 0 0 0 0)
(0.0015953 -0.000280434 0 27.0204 -0.00180558 0 0 0 0)
(-0.000115692 0.000186845 0 24.2666 8.74671e-06 0 0 0 0)
(0.00165669 0.000230757 0 24.3185 -0.00148525 0 0 0 0)
(0.00135508 -8.26964e-05 0 24.3682 -0.00121974 0 0 0 0)
(0.00121552 -0.000259908 0 24.3443 -0.00110451 0 0 0 0)
(0.000359109 0.000158392 0 21.8182 -0.000404636 0 0 0 0)
(0.00249569 0.000222872 0 21.857 -0.00248118 0 0 0 0)
(0.00148936 -6.91184e-05 0 21.8937 -0.00150257 0 0 0 0)
(0.000566715 -0.000227499 0 21.8588 -0.000912534 0 0 0 0)
(0.000866032 0.000127558 0 19.5531 -0.00113298 0 0 0 0)
(0.0029161 0.000212458 0 19.5824 -0.0030661 0 0 0 0)
(0.00138455 -5.65524e-05 0 19.6074 -0.00148678 0 0 0 0)
(0.000260435 -0.000195849 0 19.5668 1.89531e-05 0 0 0 0)
(0.00117533 8.94905e-05 0 17.4788 -0.00105625 0 0 0 0)
(0.00340029 0.000216976 0 17.488 -0.00316674 0 0 0 0)
(0.00122949 -1.77009e-05 0 17.4926 -0.00109102 0 0 0 0)
(-0.000341327 -0.000154755 0 17.4745 -0.000202656 0 0 0 0)
(0.00122449 5.601e-05 0 15.5607 -0.0018113 0 0 0 0)
(0.00314667 0.000211879 0 15.5647 -0.00363759 0 0 0 0)
(0.00116047 -7.15104e-06 0 15.5651 -0.00131263 0 0 0 0)
(0.000119893 -0.000146674 0 15.5426 0.000455863 0 0 0 0)
(0.00139777 1.42869e-05 0 13.8194 -0.00118008 0 0 0 0)
(0.00347411 0.000225287 0 13.8027 -0.00286645 0 0 0 0)
(0.000860452 5.05233e-05 0 13.8066 -0.000722973 0 0 0 0)
(-0.000604385 -8.55659e-05 0 13.8017 9.55326e-05 0 0 0 0)
(0.00023506 -0.000260001 0 26.6805 -0.00109678 0 0 0 0)
(-0.00065087 -0.000287591 0 27.2152 -0.000629791 0 0 0 0)
(-0.00120313 0.00017123 0 27.6407 0.0010145 0 0 0 0)
(-0.00115275 -1.67759e-06 0 27.8655 0.001124 0 0 0 0)
(0.00846029 -0.000267415 0 46.5901 -0.00471618 0 0 0 0)
(0.0144266 -0.000263014 0 46.9386 -0.0074682 0 0 0 0)
(0.00919057 0.000193284 0 47.2184 -0.00490347 0 0 0 0)
(0.00245648 -7.76308e-06 0 47.3977 -0.000938849 0 0 0 0)
(0.0065416 -0.000446179 0 47.8325 -0.00822848 0 0 0 0)
(0.00982161 -0.000290713 0 47.5421 -0.0129804 0 0 0 0)
(0.00644896 0.000280052 0 47.3426 -0.00876199 0 0 0 0)
(0.00136897 0.000115796 0 47.2607 -0.00204865 0 0 0 0)
(0.0045499 -0.000577436 0 43.7684 -0.00525054 0 0 0 0)
(0.00626254 -0.000271906 0 43.5271 -0.00751171 0 0 0 0)
(0.0045007 0.000375479 0 43.3884 -0.00515625 0 0 0 0)
(0.000593589 0.000206091 0 43.3231 -0.000584347 0 0 0 0)
(0.00294252 -0.000604014 0 39.9381 -0.00247984 0 0 0 0)
(0.00348972 -0.000289141 0 39.741 -0.00292465 0 0 0 0)
(0.00304845 0.000395508 0 39.6515 -0.0032993 0 0 0 0)
(-3.22337e-05 0.000255608 0 39.6042 -0.000107419 0 0 0 0)
(0.00140665 -0.000618988 0 36.3385 -0.00180435 0 0 0 0)
(0.0014858 -0.000285563 0 36.1867 -0.001709 0 0 0 0)
(0.00222088 0.000422433 0 36.1392 -0.0022192 0 0 0 0)
(-0.000373675 0.00030111 0 36.1068 0.000563169 0 0 0 0)
(0.000162634 -0.000608707 0 32.99 -5.14571e-05 0 0 0 0)
(0.000168315 -0.000296055 0 32.8843 -3.69687e-05 0 0 0 0)
(0.00171684 0.000433378 0 32.8543 -0.00169539 0 0 0 0)
(-0.000655564 0.000329559 0 32.8289 0.000692822 0 0 0 0)
(-0.000698768 -0.000587165 0 29.8765 0.000839117 0 0 0 0)
(-0.000775607 -0.000312962 0 29.8067 0.000850934 0 0 0 0)
(0.00129765 0.000434596 0 29.7888 -0.00138958 0 0 0 0)
(-0.000892134 0.000355178 0 29.7671 0.00101105 0 0 0 0)
(-0.0014669 -0.000564833 0 26.9869 0.00139441 0 0 0 0)
(-0.00129403 -0.0003332 0 26.9419 0.00133545 0 0 0 0)
(0.00105748 0.000436046 0 26.9243 -0.00109948 0 0 0 0)
(-0.0011046 0.000370286 0 26.9101 0.00109968 0 0 0 0)
(-0.00200783 -0.000534815 0 24.3065 0.00195632 0 0 0 0)
(-0.00181959 -0.000354527 0 24.2886 0.00165565 0 0 0 0)
(0.000768441 0.000430667 0 24.2744 -0.0008478 0 0 0 0)
(-0.00105261 0.000383678 0 24.258 0.00126624 0 0 0 0)
(-0.00239596 -0.00051883 0 21.8364 0.00234094 0 0 0 0)
(-0.001829 -0.000379935 0 21.8325 0.00206965 0 0 0 0)
(0.000547497 0.000429556 0 21.8059 -0.000636717 0 0 0 0)
(-0.00123341 0.000384562 0 21.7981 0.00107602 0 0 0 0)
(-0.00244557 -0.000485112 0 19.5529 0.00287788 0 0 0 0)
(-0.00232894 -0.000404155 0 19.5762 0.00240754 0 0 0 0)
(0.000194989 0.000414106 0 19.5538 -0.000134208 0 0 0 0)
(-0.000847595 0.000387546 0 19.5334 0.001068 0 0 0 0)
(-0.00223807 -0.00047902 0 17.4842 0.00185949 0 0 0 0)
(-0.00181386 -0.000430137 0 17.4829 0.00200391 0 0 0 0)
(-0.000166757 0.000407231 0 17.4631 5.9389e-05 0 0 0 0)
(-0.0012451 0.000367916 0 17.4665 0.00112614 0 0 0 0)
(-0.00230541 -0.000448336 0 15.5493 0.00283872 0 0 0 0)
(-0.00268044 -0.000434156 0 15.5723 0.00270832 0 0 0 0)
(-7.95467e-05 0.000399477 0 15.5613 -2.01014e-05 0 0 0 0)
(-0.000586118 0.000368952 0 15.5514 0.000874625 0 0 0 0)
(-0.00174244 -0.000441479 0 13.8125 0.00133581 0 0 0 0)
(-0.00161399 -0.000477784 0 13.8257 0.00155033 0 0 0 0)
(-0.000515776 0.000376669 0 13.8095 0.000392683 0 0 0 0)
(-0.00125573 0.000338063 0 13.8141 0.00126547 0 0 0 0)
)
;

boundaryField
{
    topWall
    {
        type            extrapolatedCalculated;
        value           nonuniform List<tensor> 0();
    }
    botWall
    {
        type            extrapolatedCalculated;
        value           nonuniform List<tensor> 0();
    }
    inlet
    {
        type            cyclic;
    }
    outlet
    {
        type            cyclic;
    }
    fixWall
    {
        type            empty;
    }
    procBoundary4to3
    {
        type            processor;
        value           nonuniform List<tensor> 8((-0.000209446 -2.7979e-05 0 7.83014 0.000212118 0 0 0 0) (0.00133063 0.000132803 0 7.79504 -0.000579318 0 0 0 0) (0.00228383 0.00012396 0 7.76586 -0.00108153 0 0 0 0) (0.00122882 0.000165868 0 7.7856 -0.000595574 0 0 0 0) (-0.000426071 -0.000260035 0 7.79859 -6.52806e-05 0 0 0 0) (-0.00157764 -0.000298202 0 7.82222 0.000553433 0 0 0 0) (-0.00164832 0.000164054 0 7.84806 0.000831042 0 0 0 0) (-0.000981823 -4.6835e-07 0 7.84369 0.000595221 0 0 0 0));
    }
    procBoundary4to5
    {
        type            processor;
        value           nonuniform List<tensor> 8((0.00103351 -1.28553e-05 0 12.2145 -0.00126143 0 0 0 0) (0.0029336 0.000219497 0 12.192 -0.00266962 0 0 0 0) (0.00114429 4.22153e-05 0 12.2055 -0.000957236 0 0 0 0) (0.000218452 -0.000112361 0 12.2044 8.83898e-05 0 0 0 0) (-0.00190514 -0.000424089 0 12.1995 0.00154029 0 0 0 0) (-0.00273082 -0.000449875 0 12.2301 0.00214976 0 0 0 0) (-0.000272662 0.000394729 0 12.2181 0.000353263 0 0 0 0) (-0.000421229 0.000342739 0 12.2086 0.000627616 0 0 0 0));
    }
}


// ************************************************************************* //
