/*--------------------------------*- C++ -*----------------------------------*\
  =========                 |
  \\      /  F ield         | OpenFOAM: The Open Source CFD Toolbox
   \\    /   O peration     | Website:  https://openfoam.org
    \\  /    A nd           | Version:  dev
     \\/     M anipulation  |

   OpenFOAM for Windows 20.09 (v1)
   Built by CFD Support, www.cfdsupport.com (based on Symscape).
\*---------------------------------------------------------------------------*/
FoamFile
{
    version     2.0;
    format      ascii;
    class       volVectorField;
    location    "10";
    object      gradp;
}
// * * * * * * * * * * * * * * * * * * * * * * * * * * * * * * * * * * * * * //

dimensions      [1 -2 -2 0 0 0 0];

internalField   nonuniform List<vector> 
120
(
(3.74815 -32.422 0)
(-1.24975 -32.6244 0)
(-1.244 -33.066 0)
(-1.24482 -33.5304 0)
(3.74763 -10.6619 0)
(-1.25261 -10.6985 0)
(-1.24957 -10.8336 0)
(-1.24845 -11.0334 0)
(3.74766 -9.80875 0)
(-1.25261 -9.8089 0)
(-1.24958 -9.81054 0)
(-1.24848 -9.8106 0)
(3.74767 -9.80813 0)
(-1.25264 -9.8085 0)
(-1.2496 -9.81056 0)
(-1.24848 -9.81042 0)
(3.74769 -9.80836 0)
(-1.25265 -9.80864 0)
(-1.24961 -9.8104 0)
(-1.24849 -9.81031 0)
(3.7477 -9.80837 0)
(-1.25267 -9.80863 0)
(-1.24962 -9.81037 0)
(-1.2485 -9.81026 0)
(3.74772 -9.80827 0)
(-1.25269 -9.80855 0)
(-1.24964 -9.81035 0)
(-1.24852 -9.81031 0)
(3.74774 -9.80822 0)
(-1.2527 -9.80857 0)
(-1.24965 -9.81039 0)
(-1.24853 -9.81033 0)
(3.74776 -9.80818 0)
(-1.25272 -9.80858 0)
(-1.24967 -9.81039 0)
(-1.24854 -9.81037 0)
(3.74778 -9.80816 0)
(-1.25274 -9.80854 0)
(-1.24968 -9.81037 0)
(-1.24856 -9.81044 0)
(3.7478 -9.8082 0)
(-1.25276 -9.80862 0)
(-1.2497 -9.81045 0)
(-1.24858 -9.81056 0)
(3.74782 -9.80834 0)
(-1.25278 -9.80889 0)
(-1.24972 -9.81065 0)
(-1.24859 -9.81062 0)
(3.74784 -9.80847 0)
(-1.2528 -9.80913 0)
(-1.24973 -9.81078 0)
(-1.2486 -9.81068 0)
(3.74786 -9.80864 0)
(-1.25282 -9.80932 0)
(-1.24974 -9.81076 0)
(-1.2486 -9.81059 0)
(3.74787 -9.8086 0)
(-1.25283 -9.80912 0)
(-1.24975 -9.81051 0)
(-1.24861 -9.81049 0)
(-1.25137 -33.5774 0)
(-1.25336 -32.9964 0)
(-1.25279 -32.5103 0)
(3.74793 -32.3996 0)
(-1.2487 -11.0535 0)
(-1.24813 -10.8766 0)
(-1.24936 -10.7404 0)
(3.74919 -10.6687 0)
(-1.24875 -9.81259 0)
(-1.24814 -9.8137 0)
(-1.24932 -9.81306 0)
(3.74923 -9.81139 0)
(-1.24875 -9.81125 0)
(-1.24814 -9.81119 0)
(-1.24932 -9.81097 0)
(3.74926 -9.8103 0)
(-1.24877 -9.81158 0)
(-1.24814 -9.81169 0)
(-1.24931 -9.81147 0)
(3.74928 -9.81064 0)
(-1.24878 -9.81176 0)
(-1.24814 -9.8118 0)
(-1.2493 -9.81167 0)
(3.74931 -9.81078 0)
(-1.24879 -9.81202 0)
(-1.24813 -9.81195 0)
(-1.24929 -9.81166 0)
(3.74934 -9.81082 0)
(-1.24881 -9.81207 0)
(-1.24813 -9.81198 0)
(-1.24928 -9.81158 0)
(3.74937 -9.81087 0)
(-1.24882 -9.81211 0)
(-1.24813 -9.812 0)
(-1.24927 -9.8115 0)
(3.74939 -9.81093 0)
(-1.24883 -9.81218 0)
(-1.24812 -9.81205 0)
(-1.24926 -9.81142 0)
(3.74942 -9.811 0)
(-1.24885 -9.81214 0)
(-1.24811 -9.81194 0)
(-1.24926 -9.81136 0)
(3.74945 -9.81113 0)
(-1.24886 -9.81187 0)
(-1.24811 -9.81167 0)
(-1.24925 -9.81126 0)
(3.74947 -9.81127 0)
(-1.24886 -9.81168 0)
(-1.2481 -9.81148 0)
(-1.24925 -9.81123 0)
(3.7495 -9.81134 0)
(-1.24887 -9.8116 0)
(-1.2481 -9.81154 0)
(-1.24925 -9.81133 0)
(3.74952 -9.81131 0)
(-1.24888 -9.81173 0)
(-1.2481 -9.812 0)
(-1.24925 -9.81149 0)
(3.74954 -9.81119 0)
)
;

boundaryField
{
    topWall
    {
        type            extrapolatedCalculated;
        value           nonuniform List<vector> 0();
    }
    botWall
    {
        type            extrapolatedCalculated;
        value           nonuniform List<vector> 0();
    }
    inlet
    {
        type            cyclic;
    }
    outlet
    {
        type            cyclic;
    }
    fixWall
    {
        type            empty;
    }
    procBoundary4to3
    {
        type            processor;
        value           nonuniform List<vector> 8((3.75137 -74.6025 0) (-1.24187 -74.8764 0) (-1.23447 -75.2933 0) (-1.23992 -75.551 0) (-1.2576 -75.5926 0) (-1.26592 -75.0741 0) (-1.2593 -74.5874 0) (3.74771 -74.5594 0));
    }
    procBoundary4to5
    {
        type            processor;
        value           nonuniform List<vector> 8((3.74789 -9.80827 0) (-1.25285 -9.8085 0) (-1.24976 -9.81006 0) (-1.24862 -9.81055 0) (-1.24889 -9.8122 0) (-1.2481 -9.8128 0) (-1.24924 -9.81163 0) (3.74957 -9.81108 0));
    }
}


// ************************************************************************* //
