/*--------------------------------*- C++ -*----------------------------------*\
  =========                 |
  \\      /  F ield         | OpenFOAM: The Open Source CFD Toolbox
   \\    /   O peration     | Website:  https://openfoam.org
    \\  /    A nd           | Version:  dev
     \\/     M anipulation  |

   OpenFOAM for Windows 20.09 (v1)
   Built by CFD Support, www.cfdsupport.com (based on Symscape).
\*---------------------------------------------------------------------------*/
FoamFile
{
    version     2.0;
    format      ascii;
    class       volScalarField;
    location    "10";
    object      k;
}
// * * * * * * * * * * * * * * * * * * * * * * * * * * * * * * * * * * * * * //

dimensions      [0 2 -2 0 0 0 0];

internalField   nonuniform List<scalar> 
120
(
4.4824e-12
4.46725e-12
4.44407e-12
4.43395e-12
5.1089e-12
5.09408e-12
5.07259e-12
5.06704e-12
5.47076e-12
5.45815e-12
5.44297e-12
5.44635e-12
5.54716e-12
5.53717e-12
5.52624e-12
5.53304e-12
5.41924e-12
5.41195e-12
5.40398e-12
5.41101e-12
5.15126e-12
5.14665e-12
5.141e-12
5.14676e-12
4.79211e-12
4.79017e-12
4.78657e-12
4.79063e-12
4.38114e-12
4.38154e-12
4.37942e-12
4.38156e-12
3.95744e-12
3.96008e-12
3.95902e-12
3.95947e-12
3.54546e-12
3.55046e-12
3.55023e-12
3.54935e-12
3.15856e-12
3.16624e-12
3.16674e-12
3.16491e-12
2.80226e-12
2.81358e-12
2.81463e-12
2.81218e-12
2.47757e-12
2.49388e-12
2.49526e-12
2.4925e-12
2.18312e-12
2.2059e-12
2.20753e-12
2.20467e-12
1.91649e-12
1.94733e-12
1.94918e-12
1.94637e-12
4.44498e-12
4.45935e-12
4.48241e-12
4.49913e-12
5.08012e-12
5.09002e-12
5.11176e-12
5.12858e-12
5.46054e-12
5.4611e-12
5.47664e-12
5.49062e-12
5.5467e-12
5.54205e-12
5.55403e-12
5.5661e-12
5.42324e-12
5.41627e-12
5.42618e-12
5.4369e-12
5.15704e-12
5.14966e-12
5.1582e-12
5.16778e-12
4.79895e-12
4.79226e-12
4.79957e-12
4.80798e-12
4.38814e-12
4.38271e-12
4.3889e-12
4.39609e-12
3.96459e-12
3.96054e-12
3.96568e-12
3.97158e-12
3.55331e-12
3.55055e-12
3.55476e-12
3.55926e-12
3.16798e-12
3.1663e-12
3.16963e-12
3.17267e-12
2.81451e-12
2.81374e-12
2.81632e-12
2.8178e-12
2.49423e-12
2.49411e-12
2.49603e-12
2.49592e-12
2.20579e-12
2.20628e-12
2.20758e-12
2.20578e-12
1.94695e-12
1.94789e-12
1.94867e-12
1.94511e-12
)
;

boundaryField
{
    topWall
    {
        type            kqRWallFunction;
        value           nonuniform List<scalar> 0();
    }
    botWall
    {
        type            kqRWallFunction;
        value           nonuniform List<scalar> 0();
    }
    inlet
    {
        type            cyclic;
    }
    outlet
    {
        type            cyclic;
    }
    fixWall
    {
        type            empty;
    }
    procBoundary4to3
    {
        type            processor;
        value           nonuniform List<scalar> 8(3.83815e-12 3.82476e-12 3.8049e-12 3.79613e-12 3.80528e-12 3.81805e-12 3.83778e-12 3.85198e-12);
    }
    procBoundary4to5
    {
        type            processor;
        value           nonuniform List<scalar> 8(1.67499e-12 1.71561e-12 1.7176e-12 1.71488e-12 1.71498e-12 1.71632e-12 1.7167e-12 1.71129e-12);
    }
}


// ************************************************************************* //
