/*--------------------------------*- C++ -*----------------------------------*\
  =========                 |
  \\      /  F ield         | OpenFOAM: The Open Source CFD Toolbox
   \\    /   O peration     | Website:  https://openfoam.org
    \\  /    A nd           | Version:  dev
     \\/     M anipulation  |

   OpenFOAM for Windows 20.09 (v1)
   Built by CFD Support, www.cfdsupport.com (based on Symscape).
\*---------------------------------------------------------------------------*/
FoamFile
{
    version     2.0;
    format      ascii;
    class       volScalarField;
    location    "10";
    object      nut;
}
// * * * * * * * * * * * * * * * * * * * * * * * * * * * * * * * * * * * * * //

dimensions      [0 2 -1 0 0 0 0];

internalField   nonuniform List<scalar> 
120
(
8.0714e-14
8.04619e-14
8.0136e-14
8.00139e-14
8.12157e-14
8.1187e-14
8.13455e-14
8.18929e-14
8.44063e-14
8.41857e-14
8.39191e-14
8.38821e-14
8.39831e-14
8.37769e-14
8.3525e-14
8.34933e-14
8.26831e-14
8.2497e-14
8.22584e-14
8.22223e-14
8.07853e-14
8.06249e-14
8.04014e-14
8.03587e-14
7.82461e-14
7.81195e-14
7.79162e-14
7.78678e-14
7.17692e-14
7.17816e-14
7.17963e-14
7.18727e-14
6.31251e-14
6.31481e-14
6.31634e-14
6.32399e-14
5.60416e-14
5.60898e-14
5.60862e-14
5.61558e-14
5.07609e-14
5.08513e-14
5.08499e-14
5.0918e-14
4.72119e-14
4.73643e-14
4.73648e-14
4.74319e-14
4.5029e-14
4.53171e-14
4.5351e-14
4.53536e-14
4.3823e-14
4.42742e-14
4.43142e-14
4.43236e-14
4.30639e-14
4.3811e-14
4.38427e-14
4.37963e-14
8.01704e-14
8.03345e-14
8.06527e-14
8.08897e-14
8.21439e-14
8.17441e-14
8.16957e-14
8.17266e-14
8.40585e-14
8.41327e-14
8.43824e-14
8.4589e-14
8.36707e-14
8.3721e-14
8.39511e-14
8.41475e-14
8.23958e-14
8.24285e-14
8.26423e-14
8.28309e-14
8.05214e-14
8.05435e-14
8.07416e-14
8.09213e-14
7.80163e-14
7.80319e-14
7.82126e-14
7.83802e-14
7.20094e-14
7.19626e-14
7.20533e-14
7.21844e-14
6.3366e-14
6.33264e-14
6.34101e-14
6.35091e-14
5.62794e-14
5.623e-14
5.63013e-14
5.63918e-14
5.10021e-14
5.09597e-14
5.1057e-14
5.11129e-14
4.74955e-14
4.74147e-14
4.7501e-14
4.757e-14
4.53561e-14
4.5353e-14
4.54324e-14
4.54195e-14
4.43259e-14
4.42692e-14
4.43222e-14
4.43138e-14
4.37756e-14
4.37549e-14
4.38204e-14
4.37257e-14
)
;

boundaryField
{
    topWall
    {
        type            nutkWallFunction;
        Cmu             0.09;
        kappa           0.41;
        E               9.8;
        value           nonuniform List<scalar> 0();
    }
    botWall
    {
        type            nutkWallFunction;
        Cmu             0.09;
        kappa           0.41;
        E               9.8;
        value           nonuniform List<scalar> 0();
    }
    inlet
    {
        type            cyclic;
    }
    outlet
    {
        type            cyclic;
    }
    fixWall
    {
        type            empty;
    }
    procBoundary4to3
    {
        type            processor;
        value           nonuniform List<scalar> 8(7.73167e-14 7.7062e-14 7.67358e-14 7.66017e-14 7.67439e-14 7.69177e-14 7.72351e-14 7.74706e-14);
    }
    procBoundary4to5
    {
        type            processor;
        value           nonuniform List<scalar> 8(4.25228e-14 4.36342e-14 4.36374e-14 4.35728e-14 4.35938e-14 4.35189e-14 4.3568e-14 4.34649e-14);
    }
}


// ************************************************************************* //
