/*--------------------------------*- C++ -*----------------------------------*\
  =========                 |
  \\      /  F ield         | OpenFOAM: The Open Source CFD Toolbox
   \\    /   O peration     | Website:  https://openfoam.org
    \\  /    A nd           | Version:  dev
     \\/     M anipulation  |

   OpenFOAM for Windows 20.09 (v1)
   Built by CFD Support, www.cfdsupport.com (based on Symscape).
\*---------------------------------------------------------------------------*/
FoamFile
{
    version     2.0;
    format      ascii;
    class       volScalarField;
    location    "10";
    object      omega;
}
// * * * * * * * * * * * * * * * * * * * * * * * * * * * * * * * * * * * * * //

dimensions      [0 0 -1 0 0 0 0];

internalField   nonuniform List<scalar> 
120
(
55.5343
55.5201
55.4566
55.4148
61.3516
61.3457
61.3028
61.2896
64.8145
64.8346
64.8597
64.9287
66.051
66.0942
66.1627
66.2692
65.5423
65.6017
65.6951
65.8095
63.7648
63.8345
63.9417
64.0473
61.244
61.3185
61.4324
61.5226
58.2573
58.3328
58.4489
58.5223
55.0075
55.0812
55.1963
55.2541
51.6445
51.714
51.8259
51.8709
48.2785
48.3427
48.4489
48.4846
44.9897
45.0481
45.1472
45.1772
41.8359
41.8885
41.9796
42.0073
38.8576
38.9054
38.9886
39.0157
36.0841
36.1282
36.2037
36.2316
55.4442
55.5098
55.5767
55.6205
61.3222
61.3558
61.4051
61.443
64.9611
64.9105
64.9026
64.9094
66.292
66.1967
66.1579
66.147
65.8194
65.7086
65.6587
65.6385
64.0456
63.9364
63.8853
63.8617
61.5121
61.4141
61.3657
61.3417
58.5051
58.4225
58.378
58.3554
55.2328
55.1665
55.1255
55.1053
51.8478
51.7972
51.7592
51.7419
48.462
48.4253
48.3891
48.3756
45.1557
45.131
45.096
45.0869
41.9867
41.9712
41.9362
41.9334
38.9939
38.9874
38.9503
38.9549
36.206
36.2081
36.1656
36.1806
)
;

boundaryField
{
    topWall
    {
        beta1           0.075;
        blended         0;
        type            omegaWallFunction;
        value           nonuniform List<scalar> 0();
    }
    botWall
    {
        beta1           0.075;
        blended         0;
        type            omegaWallFunction;
        value           nonuniform List<scalar> 0();
    }
    inlet
    {
        type            cyclic;
    }
    outlet
    {
        type            cyclic;
    }
    fixWall
    {
        type            empty;
    }
    procBoundary4to3
    {
        type            processor;
        value           nonuniform List<scalar> 8(49.642 49.6323 49.5844 49.5568 49.5842 49.6382 49.6896 49.7219);
    }
    procBoundary4to5
    {
        type            processor;
        value           nonuniform List<scalar> 8(33.7334 33.7697 33.8401 33.8703 33.8288 33.8493 33.7993 33.8257);
    }
}


// ************************************************************************* //
