/*--------------------------------*- C++ -*----------------------------------*\
  =========                 |
  \\      /  F ield         | OpenFOAM: The Open Source CFD Toolbox
   \\    /   O peration     | Website:  https://openfoam.org
    \\  /    A nd           | Version:  dev
     \\/     M anipulation  |

   OpenFOAM for Windows 20.09 (v1)
   Built by CFD Support, www.cfdsupport.com (based on Symscape).
\*---------------------------------------------------------------------------*/
FoamFile
{
    version     2.0;
    format      ascii;
    class       volScalarField;
    location    "10";
    object      p;
}
// * * * * * * * * * * * * * * * * * * * * * * * * * * * * * * * * * * * * * //

dimensions      [1 -1 -2 0 0 0 0];

internalField   nonuniform List<scalar> 
120
(
-4.8821
-4.94474
-5.00707
-5.06914
-4.89169
-4.95439
-5.01695
-5.07935
-4.89987
-4.96257
-5.02513
-5.08753
-4.90804
-4.97074
-5.0333
-5.0957
-4.91621
-4.97892
-5.04148
-5.10388
-4.92439
-4.98709
-5.04965
-5.11205
-4.93256
-4.99526
-5.05783
-5.12023
-4.94073
-5.00344
-5.066
-5.1284
-4.94891
-5.01161
-5.07418
-5.13658
-4.95708
-5.01978
-5.08235
-5.14475
-4.96525
-5.02796
-5.09053
-5.15293
-4.97343
-5.03613
-5.0987
-5.1611
-4.9816
-5.04431
-5.10688
-5.16928
-4.98977
-5.05248
-5.11506
-5.17745
-4.99795
-5.06066
-5.12323
-5.18563
-5.13155
-5.19427
-5.25689
-5.31955
-5.1418
-5.20422
-5.26661
-5.32916
-5.14997
-5.2124
-5.27479
-5.33733
-5.15815
-5.22058
-5.28296
-5.34551
-5.16633
-5.22875
-5.29114
-5.35368
-5.1745
-5.23693
-5.29932
-5.36186
-5.18268
-5.24511
-5.30749
-5.37004
-5.19086
-5.25328
-5.31567
-5.37821
-5.19903
-5.26146
-5.32385
-5.38639
-5.20721
-5.26964
-5.33202
-5.39456
-5.21539
-5.27781
-5.3402
-5.40274
-5.22356
-5.28599
-5.34837
-5.41091
-5.23174
-5.29417
-5.35655
-5.41909
-5.23992
-5.30234
-5.36473
-5.42727
-5.24809
-5.31052
-5.3729
-5.43544
)
;

boundaryField
{
    topWall
    {
        type            calculated;
        value           nonuniform List<scalar> 0();
    }
    botWall
    {
        type            calculated;
        value           nonuniform List<scalar> 0();
    }
    inlet
    {
        type            cyclic;
    }
    outlet
    {
        type            cyclic;
    }
    fixWall
    {
        type            empty;
    }
    procBoundary4to3
    {
        type            processor;
        value           nonuniform List<scalar> 8(-4.83765 -4.90002 -4.96184 -5.02347 -5.08583 -5.14923 -5.21243 -5.27516);
    }
    procBoundary4to5
    {
        type            processor;
        value           nonuniform List<scalar> 8(-5.00612 -5.06883 -5.13141 -5.19381 -5.25627 -5.3187 -5.38108 -5.44362);
    }
}


// ************************************************************************* //
