/*--------------------------------*- C++ -*----------------------------------*\
  =========                 |
  \\      /  F ield         | OpenFOAM: The Open Source CFD Toolbox
   \\    /   O peration     | Website:  https://openfoam.org
    \\  /    A nd           | Version:  dev
     \\/     M anipulation  |

   OpenFOAM for Windows 20.09 (v1)
   Built by CFD Support, www.cfdsupport.com (based on Symscape).
\*---------------------------------------------------------------------------*/
FoamFile
{
    version     2.0;
    format      ascii;
    class       volScalarField;
    location    "10";
    object      p_rgh;
}
// * * * * * * * * * * * * * * * * * * * * * * * * * * * * * * * * * * * * * //

dimensions      [1 -1 -2 0 0 0 0];

internalField   nonuniform List<scalar> 
120
(
-4.21509
-4.26989
-4.30519
-4.32831
-4.38874
-4.45146
-4.51408
-4.57646
-4.38893
-4.45163
-4.51419
-4.57659
-4.38893
-4.45163
-4.51419
-4.57659
-4.38892
-4.45163
-4.51419
-4.57659
-4.38892
-4.45163
-4.51419
-4.57659
-4.38892
-4.45163
-4.51419
-4.57659
-4.38892
-4.45162
-4.51419
-4.57659
-4.38892
-4.45162
-4.51419
-4.57659
-4.38892
-4.45162
-4.51419
-4.57659
-4.38892
-4.45162
-4.51419
-4.57659
-4.38891
-4.45162
-4.51419
-4.57659
-4.38891
-4.45162
-4.51419
-4.57659
-4.38891
-4.45162
-4.51419
-4.57659
-4.38891
-4.45162
-4.51419
-4.57659
-4.38854
-4.48706
-4.57617
-4.65223
-4.63874
-4.70094
-4.76344
-4.82615
-4.63904
-4.70146
-4.76385
-4.8264
-4.63904
-4.70146
-4.76385
-4.8264
-4.63904
-4.70147
-4.76385
-4.8264
-4.63904
-4.70147
-4.76385
-4.8264
-4.63904
-4.70147
-4.76386
-4.8264
-4.63904
-4.70147
-4.76386
-4.8264
-4.63905
-4.70147
-4.76386
-4.8264
-4.63905
-4.70147
-4.76386
-4.8264
-4.63905
-4.70148
-4.76386
-4.8264
-4.63905
-4.70148
-4.76386
-4.8264
-4.63905
-4.70148
-4.76386
-4.8264
-4.63905
-4.70148
-4.76386
-4.8264
-4.63906
-4.70148
-4.76386
-4.82641
)
;

boundaryField
{
    topWall
    {
        type            zeroGradient;
    }
    botWall
    {
        type            zeroGradient;
    }
    inlet
    {
        type            fixedJump;
        patchType       cyclic;
        jump            uniform -0.5;
        value           nonuniform List<scalar> 
15
(
-4.35745
-4.18366
-4.35766
-4.35766
-4.35766
-4.35766
-4.35766
-4.35766
-4.35766
-4.35766
-4.35766
-4.35766
-4.35766
-4.35766
-4.35766
)
;
    }
    outlet
    {
        type            fixedJump;
        patchType       cyclic;
        value           nonuniform List<scalar> 
15
(
-4.85745
-4.68366
-4.85766
-4.85766
-4.85766
-4.85766
-4.85766
-4.85766
-4.85766
-4.85766
-4.85766
-4.85766
-4.85766
-4.85766
-4.85766
)
;
    }
    fixWall
    {
        type            empty;
    }
    procBoundary4to3
    {
        type            processor;
        value           nonuniform List<scalar> 8(-0.192085 -0.233344 -0.274028 -0.337479 -0.399876 -0.487075 -0.576572 -0.634703);
    }
    procBoundary4to5
    {
        type            processor;
        value           nonuniform List<scalar> 8(-4.38891 -4.45162 -4.51419 -4.57659 -4.63906 -4.70148 -4.76387 -4.82641);
    }
}


// ************************************************************************* //
