/*--------------------------------*- C++ -*----------------------------------*\
  =========                 |
  \\      /  F ield         | OpenFOAM: The Open Source CFD Toolbox
   \\    /   O peration     | Website:  https://openfoam.org
    \\  /    A nd           | Version:  dev
     \\/     M anipulation  |

   OpenFOAM for Windows 20.09 (v1)
   Built by CFD Support, www.cfdsupport.com (based on Symscape).
\*---------------------------------------------------------------------------*/
FoamFile
{
    version     2.0;
    format      ascii;
    class       surfaceScalarField;
    location    "10";
    object      phi;
}
// * * * * * * * * * * * * * * * * * * * * * * * * * * * * * * * * * * * * * //

dimensions      [0 3 -1 0 0 0 0];

internalField   nonuniform List<scalar> 
217
(
9.08026e-08
-4.5048e-10
9.08163e-08
-1.42552e-10
9.08897e-08
6.38759e-11
4.33347e-10
9.09516e-08
1.22299e-07
-3.15514e-10
1.21919e-07
2.37514e-10
1.2132e-07
6.62183e-10
7.56852e-10
1.20997e-07
1.56509e-07
-1.79079e-10
1.56207e-07
5.39722e-10
1.55804e-07
1.06469e-09
9.20972e-10
1.5564e-07
1.87927e-07
-5.3389e-11
1.87701e-07
7.66066e-10
1.87452e-07
1.31384e-09
9.80303e-10
1.87392e-07
2.16695e-07
5.51533e-11
2.16533e-07
9.28068e-10
2.16394e-07
1.45262e-09
9.62342e-10
2.16412e-07
2.42964e-07
1.42359e-10
2.42858e-07
1.03368e-09
2.42797e-07
1.51428e-09
9.0307e-10
2.42856e-07
2.66885e-07
2.0577e-10
2.6683e-07
1.08858e-09
2.66817e-07
1.52695e-09
8.27841e-10
2.66892e-07
2.88597e-07
2.5209e-10
2.88584e-07
1.10088e-09
2.88608e-07
1.50346e-09
7.46028e-10
2.8869e-07
3.08265e-07
2.75108e-10
3.08296e-07
1.06975e-09
3.08338e-07
1.46137e-09
6.77189e-10
3.08407e-07
3.2602e-07
2.75926e-10
3.26087e-07
1.0031e-09
3.26142e-07
1.40701e-09
6.24137e-10
3.26195e-07
3.42004e-07
2.56965e-10
3.42106e-07
9.01472e-10
3.42166e-07
1.34712e-09
5.98048e-10
3.42192e-07
3.56351e-07
2.16843e-10
3.5647e-07
7.82276e-10
3.56525e-07
1.29157e-09
5.84656e-10
3.56539e-07
3.69182e-07
1.63705e-10
3.69321e-07
6.42742e-10
3.6937e-07
1.24242e-09
5.9626e-10
3.69359e-07
3.80633e-07
1.08233e-10
3.80762e-07
5.13564e-10
3.80808e-07
1.19623e-09
5.8886e-10
3.80816e-07
3.90797e-07
3.90939e-07
3.90973e-07
3.9095e-07
9.09623e-08
1.02049e-09
9.09339e-08
-6.89189e-10
9.08845e-08
-3.58e-10
1.28156e-10
1.21349e-07
6.68365e-10
1.21949e-07
-1.28891e-09
1.22334e-07
-7.43614e-10
2.82642e-11
1.55912e-07
3.96252e-10
1.5632e-07
-1.69657e-09
1.56591e-07
-1.01521e-09
-2.59539e-11
1.87581e-07
2.07138e-10
1.87841e-07
-1.95578e-09
1.88031e-07
-1.20552e-09
-4.77643e-11
2.16534e-07
8.50816e-11
2.16678e-07
-2.0993e-09
2.16807e-07
-1.33532e-09
-4.35076e-11
2.42914e-07
2.70483e-11
2.42974e-07
-2.15935e-09
2.4307e-07
-1.43063e-09
-2.50513e-11
2.66898e-07
2.08579e-11
2.66904e-07
-2.16455e-09
2.66978e-07
-1.50497e-09
5.11105e-12
2.8866e-07
5.05614e-11
2.88626e-07
-2.1305e-09
2.88683e-07
-1.56184e-09
4.50901e-11
3.08345e-07
1.12266e-10
3.0829e-07
-2.07495e-09
3.08336e-07
-1.6087e-09
9.38941e-11
3.26111e-07
1.96506e-10
3.26033e-07
-1.99759e-09
3.26068e-07
-1.64346e-09
1.40533e-10
3.42092e-07
2.96922e-10
3.42014e-07
-1.91989e-09
3.4204e-07
-1.66895e-09
1.94727e-10
3.56436e-07
3.99408e-10
3.56338e-07
-1.8214e-09
3.56349e-07
-1.6796e-09
2.32904e-10
3.69265e-07
4.93319e-10
3.69188e-07
-1.74431e-09
3.69183e-07
-1.67516e-09
2.87752e-10
3.80719e-07
5.90276e-10
3.80606e-07
-1.6312e-09
3.80605e-07
-1.67458e-09
3.15324e-10
3.90877e-07
3.90808e-07
3.9079e-07
)
;

boundaryField
{
    topWall
    {
        type            calculated;
        value           nonuniform List<scalar> 0();
    }
    botWall
    {
        type            calculated;
        value           nonuniform List<scalar> 0();
    }
    inlet
    {
        type            cyclic;
        value           nonuniform List<scalar> 
15
(
-1.22434e-07
-9.08355e-08
-1.56645e-07
-1.88053e-07
-2.16803e-07
-2.43051e-07
-2.66948e-07
-2.88643e-07
-3.08288e-07
-3.26021e-07
-3.41985e-07
-3.5631e-07
-3.69129e-07
-3.80578e-07
-3.90734e-07
)
;
    }
    outlet
    {
        type            cyclic;
        value           nonuniform List<scalar> 
15
(
1.22434e-07
9.08355e-08
1.56645e-07
1.88053e-07
2.16803e-07
2.43051e-07
2.66948e-07
2.88643e-07
3.08288e-07
3.26021e-07
3.41985e-07
3.5631e-07
3.69129e-07
3.80578e-07
3.90734e-07
)
;
    }
    fixWall
    {
        type            empty;
        value           nonuniform List<scalar> 0();
    }
    procBoundary4to3
    {
        type            processor;
        value           nonuniform List<scalar> 8(4.82296e-10 1.27614e-10 -1.34481e-10 -4.93857e-10 -1.03265e-09 7.17206e-10 4.06753e-10 -7.86225e-11);
    }
    procBoundary4to5
    {
        type            processor;
        value           nonuniform List<scalar> 8(4.27766e-11 3.73945e-10 1.15532e-09 6.12481e-10 6.61421e-10 -1.56467e-09 -1.65589e-09 3.73262e-10);
    }
}


// ************************************************************************* //
