/*--------------------------------*- C++ -*----------------------------------*\
  =========                 |
  \\      /  F ield         | OpenFOAM: The Open Source CFD Toolbox
   \\    /   O peration     | Website:  https://openfoam.org
    \\  /    A nd           | Version:  dev
     \\/     M anipulation  |

   OpenFOAM for Windows 20.09 (v1)
   Built by CFD Support, www.cfdsupport.com (based on Symscape).
\*---------------------------------------------------------------------------*/
FoamFile
{
    version     2.0;
    format      ascii;
    class       volSymmTensorField;
    location    "10";
    object      R;
}
// * * * * * * * * * * * * * * * * * * * * * * * * * * * * * * * * * * * * * //

dimensions      [0 2 -2 0 0 0 0];

internalField   nonuniform List<symmTensor> 
120
(
(2.98839e-12 -2.24764e-12 -0 2.98816e-12 -0 2.98825e-12)
(2.97815e-12 -2.22709e-12 -0 2.97814e-12 -0 2.97821e-12)
(2.96255e-12 -2.18154e-12 -0 2.96276e-12 -0 2.96284e-12)
(2.9558e-12 -2.13494e-12 -0 2.95607e-12 -0 2.95604e-12)
(3.40641e-12 -3.84717e-12 -0 3.40552e-12 -0 3.40587e-12)
(3.39731e-12 -3.83571e-12 -0 3.39501e-12 -0 3.39584e-12)
(3.38368e-12 -3.81647e-12 -0 3.38015e-12 -0 3.38135e-12)
(3.37908e-12 -3.81296e-12 -0 3.3772e-12 -0 3.3778e-12)
(3.64778e-12 -3.98659e-12 -0 3.64652e-12 -0 3.64721e-12)
(3.64009e-12 -3.97978e-12 -0 3.63734e-12 -0 3.63887e-12)
(3.63041e-12 -3.98219e-12 -0 3.62673e-12 -0 3.6288e-12)
(3.63166e-12 -4.00761e-12 -0 3.63005e-12 -0 3.63099e-12)
(3.69864e-12 -3.63685e-12 -0 3.69757e-12 -0 3.69812e-12)
(3.69239e-12 -3.63285e-12 -0 3.69046e-12 -0 3.69149e-12)
(3.68522e-12 -3.63387e-12 -0 3.68302e-12 -0 3.68423e-12)
(3.68897e-12 -3.65223e-12 -0 3.68839e-12 -0 3.68872e-12)
(3.61326e-12 -3.27373e-12 -0 3.61241e-12 -0 3.61281e-12)
(3.60858e-12 -3.27181e-12 -0 3.60736e-12 -0 3.60795e-12)
(3.60317e-12 -3.2712e-12 -0 3.60214e-12 -0 3.60263e-12)
(3.60728e-12 -3.28308e-12 -0 3.60741e-12 -0 3.60734e-12)
(3.43453e-12 -2.91651e-12 -0 3.43382e-12 -0 3.43417e-12)
(3.43152e-12 -2.91635e-12 -0 3.43067e-12 -0 3.43112e-12)
(3.42758e-12 -2.91503e-12 -0 3.42709e-12 -0 3.42734e-12)
(3.43095e-12 -2.92129e-12 -0 3.4314e-12 -0 3.43117e-12)
(3.19499e-12 -2.56831e-12 -0 3.19449e-12 -0 3.19473e-12)
(3.19364e-12 -2.56919e-12 -0 3.19325e-12 -0 3.19345e-12)
(3.19109e-12 -2.56792e-12 -0 3.19101e-12 -0 3.19105e-12)
(3.19347e-12 -2.57044e-12 -0 3.19405e-12 -0 3.19374e-12)
(2.92093e-12 -2.136e-12 -0 2.9206e-12 -0 2.92075e-12)
(2.92106e-12 -2.14092e-12 -0 2.921e-12 -0 2.92103e-12)
(2.91953e-12 -2.14569e-12 -0 2.9197e-12 -0 2.91961e-12)
(2.92077e-12 -2.14929e-12 -0 2.9213e-12 -0 2.92105e-12)
(2.63838e-12 -1.699e-12 -0 2.63822e-12 -0 2.63829e-12)
(2.63996e-12 -1.70348e-12 -0 2.64014e-12 -0 2.64006e-12)
(2.63922e-12 -1.7072e-12 -0 2.63947e-12 -0 2.63935e-12)
(2.63944e-12 -1.70875e-12 -0 2.63987e-12 -0 2.63964e-12)
(2.36365e-12 -1.35995e-12 -0 2.36364e-12 -0 2.36364e-12)
(2.36679e-12 -1.36403e-12 -0 2.36715e-12 -0 2.36698e-12)
(2.36668e-12 -1.36672e-12 -0 2.36696e-12 -0 2.36683e-12)
(2.3661e-12 -1.36706e-12 -0 2.36636e-12 -0 2.36624e-12)
(2.10567e-12 -1.10752e-12 -0 2.10575e-12 -0 2.10571e-12)
(2.11058e-12 -1.11147e-12 -0 2.11108e-12 -0 2.11083e-12)
(2.11101e-12 -1.11329e-12 -0 2.11131e-12 -0 2.11116e-12)
(2.10987e-12 -1.113e-12 -0 2.11002e-12 -0 2.10993e-12)
(1.86808e-12 -9.23146e-13 -0 1.86827e-12 -0 1.86816e-12)
(1.87544e-12 -9.27516e-13 -0 1.87601e-12 -0 1.87572e-12)
(1.87628e-12 -9.28698e-13 -0 1.87655e-12 -0 1.87641e-12)
(1.87477e-12 -9.28081e-13 -0 1.87479e-12 -0 1.87479e-12)
(1.65161e-12 -7.87057e-13 -0 1.65181e-12 -0 1.65171e-12)
(1.66229e-12 -7.92514e-13 -0 1.66288e-12 -0 1.6626e-12)
(1.6634e-12 -7.93307e-13 -0 1.66361e-12 -0 1.66351e-12)
(1.66168e-12 -7.92525e-13 -0 1.66167e-12 -0 1.66165e-12)
(1.45529e-12 -6.81918e-13 -0 1.45556e-12 -0 1.4554e-12)
(1.47031e-12 -6.89126e-13 -0 1.47091e-12 -0 1.47059e-12)
(1.47158e-12 -6.89754e-13 -0 1.4718e-12 -0 1.47168e-12)
(1.46979e-12 -6.88897e-13 -0 1.46976e-12 -0 1.4698e-12)
(1.27754e-12 -5.95118e-13 -0 1.27777e-12 -0 1.27766e-12)
(1.29794e-12 -6.04719e-13 -0 1.29849e-12 -0 1.29824e-12)
(1.29938e-12 -6.05322e-13 -0 1.29952e-12 -0 1.29946e-12)
(1.29762e-12 -6.0446e-13 -0 1.29756e-12 -0 1.29756e-12)
(2.96324e-12 -2.13896e-12 -0 2.96345e-12 -0 2.96327e-12)
(2.97293e-12 -2.18629e-12 -0 2.97293e-12 -0 2.97283e-12)
(2.98846e-12 -2.22931e-12 -0 2.9881e-12 -0 2.98827e-12)
(2.9996e-12 -2.25403e-12 -0 2.99924e-12 -0 2.99942e-12)
(3.38556e-12 -3.82707e-12 -0 3.38773e-12 -0 3.38695e-12)
(3.39137e-12 -3.83693e-12 -0 3.39495e-12 -0 3.39373e-12)
(3.40657e-12 -3.85756e-12 -0 3.40888e-12 -0 3.40808e-12)
(3.41873e-12 -3.87366e-12 -0 3.41929e-12 -0 3.41913e-12)
(3.63916e-12 -4.02069e-12 -0 3.64165e-12 -0 3.64026e-12)
(3.6389e-12 -3.99982e-12 -0 3.64274e-12 -0 3.64056e-12)
(3.64987e-12 -3.99491e-12 -0 3.65244e-12 -0 3.65096e-12)
(3.66014e-12 -3.99775e-12 -0 3.66072e-12 -0 3.66038e-12)
(3.697e-12 -3.66208e-12 -0 3.69864e-12 -0 3.69776e-12)
(3.69358e-12 -3.64411e-12 -0 3.69589e-12 -0 3.69463e-12)
(3.7019e-12 -3.64254e-12 -0 3.70352e-12 -0 3.70265e-12)
(3.71064e-12 -3.64554e-12 -0 3.71083e-12 -0 3.71074e-12)
(3.61503e-12 -3.29068e-12 -0 3.61593e-12 -0 3.61552e-12)
(3.6103e-12 -3.27577e-12 -0 3.61136e-12 -0 3.61088e-12)
(3.61694e-12 -3.27692e-12 -0 3.61799e-12 -0 3.61744e-12)
(3.6246e-12 -3.28047e-12 -0 3.62461e-12 -0 3.62459e-12)
(3.43778e-12 -2.92597e-12 -0 3.4383e-12 -0 3.43801e-12)
(3.43286e-12 -2.91458e-12 -0 3.43337e-12 -0 3.4331e-12)
(3.43844e-12 -2.91797e-12 -0 3.43916e-12 -0 3.4388e-12)
(3.44526e-12 -2.92183e-12 -0 3.4451e-12 -0 3.4452e-12)
(3.19928e-12 -2.57371e-12 -0 3.19931e-12 -0 3.1993e-12)
(3.19482e-12 -2.566e-12 -0 3.19485e-12 -0 3.19485e-12)
(3.19945e-12 -2.56965e-12 -0 3.19998e-12 -0 3.19971e-12)
(3.20542e-12 -2.57316e-12 -0 3.20521e-12 -0 3.20532e-12)
(2.92553e-12 -2.15135e-12 -0 2.92531e-12 -0 2.92543e-12)
(2.92192e-12 -2.14494e-12 -0 2.92169e-12 -0 2.92181e-12)
(2.92574e-12 -2.14641e-12 -0 2.92613e-12 -0 2.92593e-12)
(2.93086e-12 -2.14875e-12 -0 2.93059e-12 -0 2.93073e-12)
(2.64324e-12 -1.71002e-12 -0 2.64288e-12 -0 2.64306e-12)
(2.64052e-12 -1.70611e-12 -0 2.64019e-12 -0 2.64036e-12)
(2.64365e-12 -1.7073e-12 -0 2.64393e-12 -0 2.64379e-12)
(2.64786e-12 -1.70906e-12 -0 2.64758e-12 -0 2.64772e-12)
(2.3691e-12 -1.36792e-12 -0 2.36865e-12 -0 2.36887e-12)
(2.36723e-12 -1.36573e-12 -0 2.36684e-12 -0 2.36703e-12)
(2.36975e-12 -1.3667e-12 -0 2.36993e-12 -0 2.36984e-12)
(2.37297e-12 -1.36797e-12 -0 2.37271e-12 -0 2.37285e-12)
(2.11223e-12 -1.11368e-12 -0 2.11174e-12 -0 2.11198e-12)
(2.11106e-12 -1.11256e-12 -0 2.11067e-12 -0 2.11088e-12)
(2.11302e-12 -1.11336e-12 -0 2.11315e-12 -0 2.11308e-12)
(2.11524e-12 -1.11419e-12 -0 2.115e-12 -0 2.11511e-12)
(1.87659e-12 -9.28653e-13 -0 1.87608e-12 -0 1.87636e-12)
(1.87605e-12 -9.28183e-13 -0 1.8756e-12 -0 1.87583e-12)
(1.87753e-12 -9.28846e-13 -0 1.87756e-12 -0 1.87755e-12)
(1.87862e-12 -9.29222e-13 -0 1.87844e-12 -0 1.87854e-12)
(1.66301e-12 -7.92992e-13 -0 1.66264e-12 -0 1.66281e-12)
(1.66291e-12 -7.92885e-13 -0 1.66257e-12 -0 1.66275e-12)
(1.66403e-12 -7.93409e-13 -0 1.66401e-12 -0 1.66401e-12)
(1.66406e-12 -7.93335e-13 -0 1.66384e-12 -0 1.66394e-12)
(1.47074e-12 -6.89218e-13 -0 1.47029e-12 -0 1.47054e-12)
(1.47109e-12 -6.89355e-13 -0 1.47062e-12 -0 1.47086e-12)
(1.47172e-12 -6.89729e-13 -0 1.47172e-12 -0 1.47171e-12)
(1.47058e-12 -6.89158e-13 -0 1.47045e-12 -0 1.47053e-12)
(1.29811e-12 -6.04633e-13 -0 1.29784e-12 -0 1.29795e-12)
(1.29873e-12 -6.04922e-13 -0 1.29846e-12 -0 1.29859e-12)
(1.29915e-12 -6.05154e-13 -0 1.29907e-12 -0 1.29911e-12)
(1.29685e-12 -6.04048e-13 -0 1.29663e-12 -0 1.29674e-12)
)
;

boundaryField
{
    topWall
    {
        type            kqRWallFunction;
        value           nonuniform List<symmTensor> 0();
    }
    botWall
    {
        type            kqRWallFunction;
        value           nonuniform List<symmTensor> 0();
    }
    inlet
    {
        type            cyclic;
    }
    outlet
    {
        type            cyclic;
    }
    fixWall
    {
        type            empty;
    }
    procBoundary4to3
    {
        type            processor;
        value           nonuniform List<symmTensor> 8((2.5588e-12 -6.05399e-13 -0 2.55874e-12 -0 2.55877e-12) (2.54968e-12 -6.00712e-13 -0 2.54997e-12 -0 2.54988e-12) (2.53631e-12 -5.95929e-13 -0 2.53683e-12 -0 2.53666e-12) (2.5306e-12 -5.96403e-13 -0 2.53088e-12 -0 2.53079e-12) (2.53689e-12 -5.98474e-13 -0 2.53684e-12 -0 2.53683e-12) (2.54556e-12 -6.01644e-13 -0 2.54523e-12 -0 2.54532e-12) (2.55873e-12 -6.06158e-13 -0 2.55835e-12 -0 2.55848e-12) (2.56812e-12 -6.07655e-13 -0 2.56788e-12 -0 2.56797e-12));
    }
    procBoundary4to5
    {
        type            processor;
        value           nonuniform List<symmTensor> 8((1.11656e-12 -5.19395e-13 -0 1.11676e-12 -0 1.11665e-12) (1.1435e-12 -5.31996e-13 -0 1.14398e-12 -0 1.14375e-12) (1.14498e-12 -5.32619e-13 -0 1.14516e-12 -0 1.14508e-12) (1.14324e-12 -5.31777e-13 -0 1.14326e-12 -0 1.14326e-12) (1.14348e-12 -5.31806e-13 -0 1.14318e-12 -0 1.14331e-12) (1.14444e-12 -5.32222e-13 -0 1.14401e-12 -0 1.1442e-12) (1.14449e-12 -5.32337e-13 -0 1.14444e-12 -0 1.14447e-12) (1.14091e-12 -5.30661e-13 -0 1.14081e-12 -0 1.14087e-12));
    }
}


// ************************************************************************* //
