/*--------------------------------*- C++ -*----------------------------------*\
  =========                 |
  \\      /  F ield         | OpenFOAM: The Open Source CFD Toolbox
   \\    /   O peration     | Website:  https://openfoam.org
    \\  /    A nd           | Version:  dev
     \\/     M anipulation  |

   OpenFOAM for Windows 20.09 (v1)
   Built by CFD Support, www.cfdsupport.com (based on Symscape).
\*---------------------------------------------------------------------------*/
FoamFile
{
    version     2.0;
    format      ascii;
    class       volVectorField;
    location    "10";
    object      U;
}
// * * * * * * * * * * * * * * * * * * * * * * * * * * * * * * * * * * * * * //

dimensions      [0 1 -1 0 0 0 0];

internalField   nonuniform List<vector> 
120
(
(0.108978 -9.11378e-06 0)
(0.108946 -1.69384e-06 0)
(0.109013 3.58737e-06 0)
(0.109125 1.02928e-05 0)
(0.14689 -8.61659e-06 0)
(0.146622 -1.17414e-06 0)
(0.145983 4.48906e-06 0)
(0.14519 1.02165e-05 0)
(0.187928 -5.53885e-06 0)
(0.187688 6.7661e-06 0)
(0.187208 1.59295e-05 0)
(0.186726 1.64637e-05 0)
(0.225608 -1.83451e-06 0)
(0.225412 1.39959e-05 0)
(0.22507 2.50743e-05 0)
(0.224817 1.95846e-05 0)
(0.260102 -1.51389e-07 0)
(0.25996 1.69853e-05 0)
(0.259718 2.7988e-05 0)
(0.259631 1.97277e-05 0)
(0.291597 2.16857e-06 0)
(0.291511 1.98964e-05 0)
(0.291349 3.00467e-05 0)
(0.291367 1.88653e-05 0)
(0.320271 3.54506e-06 0)
(0.320246 2.1583e-05 0)
(0.320145 3.06348e-05 0)
(0.32022 1.73486e-05 0)
(0.346303 4.74972e-06 0)
(0.346324 2.20156e-05 0)
(0.346279 3.04329e-05 0)
(0.346384 1.56215e-05 0)
(0.369874 5.30181e-06 0)
(0.369955 2.19258e-05 0)
(0.369955 2.96365e-05 0)
(0.370061 1.43794e-05 0)
(0.39116 5.76722e-06 0)
(0.391283 2.08818e-05 0)
(0.391326 2.88429e-05 0)
(0.391419 1.26122e-05 0)
(0.410319 5.31638e-06 0)
(0.410486 1.94504e-05 0)
(0.410568 2.76036e-05 0)
(0.410634 1.25386e-05 0)
(0.427524 5.09283e-06 0)
(0.427711 1.67465e-05 0)
(0.427815 2.63387e-05 0)
(0.42785 1.10913e-05 0)
(0.442907 3.42809e-06 0)
(0.443123 1.43402e-05 0)
(0.443247 2.51257e-05 0)
(0.443246 1.25701e-05 0)
(0.456655 3.33242e-06 0)
(0.456858 1.14686e-05 0)
(0.45697 2.45203e-05 0)
(0.456974 1.07535e-05 0)
(0.468842 4.09253e-07 0)
(0.469064 8.27759e-06 0)
(0.469189 2.29379e-05 0)
(0.46915 1.33299e-05 0)
(0.109158 1.98131e-05 0)
(0.109149 -1.57073e-05 0)
(0.109093 -8.94602e-06 0)
(0.109029 1.41574e-06 0)
(0.145202 1.84611e-05 0)
(0.146036 -1.65251e-05 0)
(0.146644 -7.84028e-06 0)
(0.146955 2.80329e-06 0)
(0.186809 1.19528e-05 0)
(0.18738 -2.81543e-05 0)
(0.187791 -1.71185e-05 0)
(0.188025 -1.49008e-07 0)
(0.224922 4.74697e-06 0)
(0.225272 -3.8159e-05 0)
(0.225549 -2.24436e-05 0)
(0.225723 -6.11127e-07 0)
(0.259756 3.20189e-06 0)
(0.259925 -4.06738e-05 0)
(0.260105 -2.57122e-05 0)
(0.26023 -1.12292e-06 0)
(0.291486 6.13909e-07 0)
(0.291507 -4.30335e-05 0)
(0.291635 -2.79424e-05 0)
(0.29173 -7.9016e-07 0)
(0.32032 1.94632e-07 0)
(0.320236 -4.35221e-05 0)
(0.320337 -2.94109e-05 0)
(0.320408 -1.84304e-07 0)
(0.346469 5.28147e-07 0)
(0.346315 -4.30951e-05 0)
(0.346392 -3.07681e-05 0)
(0.346444 3.64544e-07 0)
(0.370114 1.59316e-06 0)
(0.369914 -4.21039e-05 0)
(0.369985 -3.17268e-05 0)
(0.37002 1.50078e-06 0)
(0.391447 2.85216e-06 0)
(0.391218 -4.08693e-05 0)
(0.391266 -3.26006e-05 0)
(0.391295 2.19734e-06 0)
(0.410625 4.8537e-06 0)
(0.410395 -3.93445e-05 0)
(0.410442 -3.31398e-05 0)
(0.41045 3.61118e-06 0)
(0.427842 6.75372e-06 0)
(0.427605 -3.74199e-05 0)
(0.427609 -3.36618e-05 0)
(0.427625 3.99071e-06 0)
(0.443213 9.65016e-06 0)
(0.443022 -3.53319e-05 0)
(0.443032 -3.33635e-05 0)
(0.443005 5.39119e-06 0)
(0.456982 9.85287e-06 0)
(0.456744 -3.40801e-05 0)
(0.456714 -3.35628e-05 0)
(0.456736 5.86761e-06 0)
(0.469129 1.43813e-05 0)
(0.468976 -3.0818e-05 0)
(0.468967 -3.3397e-05 0)
(0.468924 6.8489e-06 0)
)
;

boundaryField
{
    topWall
    {
        type            noSlip;
    }
    botWall
    {
        type            noSlip;
    }
    inlet
    {
        type            cyclic;
    }
    outlet
    {
        type            cyclic;
    }
    fixWall
    {
        type            empty;
    }
    procBoundary4to3
    {
        type            processor;
        value           nonuniform List<vector> 8((0.100478 -9.57795e-06 0) (0.100491 -1.86794e-06 0) (0.100611 3.70231e-06 0) (0.10072 1.05281e-05 0) (0.100734 2.02891e-05 0) (0.100677 -1.54754e-05 0) (0.100576 -9.53112e-06 0) (0.100512 9.29958e-07 0));
    }
    procBoundary4to5
    {
        type            processor;
        value           nonuniform List<vector> 8((0.479688 1.36561e-06 0) (0.479862 6.6912e-06 0) (0.479981 2.33153e-05 0) (0.479977 1.09127e-05 0) (0.480003 1.20792e-05 0) (0.479786 -3.14962e-05 0) (0.47973 -3.29083e-05 0) (0.479759 7.97672e-06 0));
    }
}


// ************************************************************************* //
