/*--------------------------------*- C++ -*----------------------------------*\
  =========                 |
  \\      /  F ield         | OpenFOAM: The Open Source CFD Toolbox
   \\    /   O peration     | Website:  https://openfoam.org
    \\  /    A nd           | Version:  dev
     \\/     M anipulation  |

   OpenFOAM for Windows 20.09 (v1)
   Built by CFD Support, www.cfdsupport.com (based on Symscape).
\*---------------------------------------------------------------------------*/
FoamFile
{
    version     2.0;
    format      ascii;
    class       volVectorField;
    location    "10";
    object      UMean;
}
// * * * * * * * * * * * * * * * * * * * * * * * * * * * * * * * * * * * * * //

dimensions      [0 1 -1 0 0 0 0];

internalField   nonuniform List<vector> 
120
(
(0.0592125 5.0018e-06 0)
(0.0591722 -3.05721e-06 0)
(0.0591344 -9.9398e-07 0)
(0.0591722 -3.2111e-06 0)
(0.0875715 3.20037e-06 0)
(0.0876884 -1.5933e-06 0)
(0.0873189 1.19009e-06 0)
(0.0874331 -3.73883e-06 0)
(0.115367 3.26186e-07 0)
(0.11544 -1.73121e-06 0)
(0.115124 -2.42919e-06 0)
(0.115262 -7.54929e-06 0)
(0.139945 3.098e-06 0)
(0.139985 2.51036e-06 0)
(0.139736 6.06048e-06 0)
(0.139877 -5.66733e-06 0)
(0.161572 -3.1674e-06 0)
(0.161609 5.48708e-06 0)
(0.161416 1.85361e-06 0)
(0.161545 -8.50865e-06 0)
(0.180537 2.62364e-06 0)
(0.180568 2.37732e-06 0)
(0.180423 4.74736e-06 0)
(0.180538 -9.52114e-06 0)
(0.197078 -4.67052e-06 0)
(0.197121 8.0272e-06 0)
(0.197018 3.30228e-06 0)
(0.197107 -9.37458e-06 0)
(0.211468 1.29921e-06 0)
(0.21151 4.19847e-06 0)
(0.211437 5.21676e-06 0)
(0.211513 -1.11347e-05 0)
(0.223919 -4.89072e-06 0)
(0.223972 8.02136e-06 0)
(0.223925 3.27273e-06 0)
(0.223983 -1.00991e-05 0)
(0.234662 -1.16155e-06 0)
(0.234716 4.52019e-06 0)
(0.234697 4.80041e-06 0)
(0.234743 -1.21244e-05 0)
(0.243887 -4.69386e-06 0)
(0.243949 6.87622e-06 0)
(0.243954 3.19348e-06 0)
(0.243984 -1.04829e-05 0)
(0.251793 -3.05109e-06 0)
(0.25184 4.50738e-06 0)
(0.251871 4.32536e-06 0)
(0.251896 -1.0285e-05 0)
(0.258532 -5.01205e-06 0)
(0.258571 5.30791e-06 0)
(0.25862 2.25959e-06 0)
(0.258638 -1.08824e-05 0)
(0.26427 -3.99145e-06 0)
(0.264285 3.56601e-06 0)
(0.264351 3.22577e-06 0)
(0.264372 -8.05943e-06 0)
(0.269121 -4.98789e-06 0)
(0.269124 4.20139e-06 0)
(0.269205 1.22777e-06 0)
(0.26922 -8.92408e-06 0)
(0.0591651 6.41401e-06 0)
(0.0591966 -6.18332e-06 0)
(0.0591662 -5.12097e-06 0)
(0.0591609 7.403e-06 0)
(0.087473 5.59046e-06 0)
(0.0876207 -6.32284e-06 0)
(0.0876611 -4.12652e-06 0)
(0.0874258 4.31229e-06 0)
(0.115283 5.14255e-06 0)
(0.115373 -7.404e-06 0)
(0.115433 -2.61201e-06 0)
(0.115279 1.34957e-05 0)
(0.139879 3.56579e-06 0)
(0.139929 -1.08817e-05 0)
(0.139993 -1.91633e-06 0)
(0.139875 5.25922e-06 0)
(0.16154 2.8015e-06 0)
(0.161563 -7.89393e-06 0)
(0.16163 -2.19657e-06 0)
(0.161538 1.08021e-05 0)
(0.180525 4.49817e-06 0)
(0.180528 -1.34339e-05 0)
(0.180585 -8.37524e-07 0)
(0.180503 9.58912e-06 0)
(0.19709 2.40236e-06 0)
(0.197087 -8.96092e-06 0)
(0.197139 -1.89099e-06 0)
(0.19706 1.05812e-05 0)
(0.211492 4.85904e-06 0)
(0.211481 -1.34224e-05 0)
(0.211525 -4.31118e-07 0)
(0.21145 9.86638e-06 0)
(0.223956 3.11766e-06 0)
(0.223943 -1.05603e-05 0)
(0.223983 -1.04106e-06 0)
(0.223912 1.22736e-05 0)
(0.2347 5.2129e-06 0)
(0.234683 -1.29838e-05 0)
(0.234723 -5.33047e-08 0)
(0.234657 1.03803e-05 0)
(0.243923 4.33018e-06 0)
(0.243911 -1.17911e-05 0)
(0.243957 1.27881e-07 0)
(0.243892 1.36411e-05 0)
(0.251811 6.83161e-06 0)
(0.251802 -1.26271e-05 0)
(0.251849 -1.61597e-07 0)
(0.251796 1.18089e-05 0)
(0.258536 5.29158e-06 0)
(0.258538 -1.36225e-05 0)
(0.258594 -3.80616e-07 0)
(0.258543 1.35539e-05 0)
(0.264259 8.74308e-06 0)
(0.264254 -1.2896e-05 0)
(0.264308 1.62923e-08 0)
(0.264281 1.37595e-05 0)
(0.269096 7.77601e-06 0)
(0.269103 -1.47117e-05 0)
(0.269166 -1.18516e-06 0)
(0.269144 1.35295e-05 0)
)
;

boundaryField
{
    topWall
    {
        type            calculated;
        value           nonuniform List<vector> 0();
    }
    botWall
    {
        type            calculated;
        value           nonuniform List<vector> 0();
    }
    inlet
    {
        type            cyclic;
    }
    outlet
    {
        type            cyclic;
    }
    fixWall
    {
        type            empty;
    }
    procBoundary4to3
    {
        type            processor;
        value           nonuniform List<vector> 8((0.0532028 5.76384e-06 0) (0.0531658 -4.13971e-06 0) (0.0531586 -1.94832e-06 0) (0.0531791 -3.30139e-06 0) (0.0531788 7.00015e-06 0) (0.0531967 -5.94432e-06 0) (0.0531565 -5.48803e-06 0) (0.0531554 9.47982e-06 0));
    }
    procBoundary4to5
    {
        type            processor;
        value           nonuniform List<vector> 8((0.273232 -4.06105e-06 0) (0.273201 1.60069e-06 0) (0.273297 8.26952e-07 0) (0.273323 -8.83872e-06 0) (0.273195 8.72195e-06 0) (0.273191 -1.46284e-05 0) (0.273244 1.76505e-07 0) (0.273257 1.40119e-05 0));
    }
}


// ************************************************************************* //
