/*--------------------------------*- C++ -*----------------------------------*\
  =========                 |
  \\      /  F ield         | OpenFOAM: The Open Source CFD Toolbox
   \\    /   O peration     | Website:  https://openfoam.org
    \\  /    A nd           | Version:  dev
     \\/     M anipulation  |

   OpenFOAM for Windows 20.09 (v1)
   Built by CFD Support, www.cfdsupport.com (based on Symscape).
\*---------------------------------------------------------------------------*/
FoamFile
{
    version     2.0;
    format      ascii;
    class       volSymmTensorField;
    location    "10";
    object      UPrime2Mean;
}
// * * * * * * * * * * * * * * * * * * * * * * * * * * * * * * * * * * * * * //

dimensions      [0 2 -2 0 0 0 0];

internalField   nonuniform List<symmTensor> 
120
(
(0.00056645 -2.23104e-07 0 3.51972e-10 0 0)
(0.000566721 8.09793e-08 0 5.6438e-11 0 0)
(0.000569577 4.7447e-08 0 3.91116e-11 0 0)
(0.000570174 -1.21042e-08 0 1.15327e-10 0 0)
(0.000822059 -2.20539e-07 0 1.69284e-10 0 0)
(0.000804027 1.3925e-07 0 1.4467e-10 0 0)
(0.000801141 3.60664e-08 0 3.14103e-11 0 0)
(0.000796611 -6.92954e-09 0 8.61869e-11 0 0)
(0.00125298 -9.9107e-08 0 1.13778e-10 0 0)
(0.00123578 1.64157e-07 0 2.94812e-11 0 0)
(0.00123562 9.01197e-08 0 2.24905e-10 0 0)
(0.0012335 -2.40178e-08 0 3.43365e-10 0 0)
(0.00176755 -2.20526e-07 0 1.34317e-10 0 0)
(0.00175282 4.53816e-07 0 2.24899e-10 0 0)
(0.00175521 9.25607e-08 0 1.9083e-10 0 0)
(0.00175533 2.31366e-08 0 2.06275e-10 0 0)
(0.00235666 1.4671e-07 0 3.67198e-11 0 0)
(0.00234513 3.75239e-07 0 9.62364e-11 0 0)
(0.00234917 1.16743e-07 0 3.41589e-10 0 0)
(0.00235182 -3.21856e-08 0 4.08794e-10 0 0)
(0.00300935 -1.39068e-07 0 4.01716e-11 0 0)
(0.00300142 6.34097e-07 0 1.51119e-10 0 0)
(0.00300691 3.61943e-08 0 5.03977e-10 0 0)
(0.00301114 -4.49879e-08 0 3.58477e-10 0 0)
(0.00371323 3.11854e-07 0 3.50201e-11 0 0)
(0.0037092 5.24183e-07 0 1.23994e-10 0 0)
(0.00371503 6.05082e-08 0 4.31986e-10 0 0)
(0.00372053 -8.83011e-08 0 4.08637e-10 0 0)
(0.00445421 -2.16054e-08 0 9.33165e-12 0 0)
(0.00445364 7.36897e-07 0 1.32724e-10 0 0)
(0.00446038 -6.86533e-08 0 6.01538e-10 0 0)
(0.0044661 -1.15252e-07 0 3.93685e-10 0 0)
(0.00521921 3.83723e-07 0 3.06939e-11 0 0)
(0.00522242 5.7982e-07 0 9.07159e-11 0 0)
(0.00522945 -4.63895e-08 0 5.16755e-10 0 0)
(0.00523473 -1.66555e-07 0 3.98479e-10 0 0)
(0.00599443 9.09008e-08 0 1.01987e-11 0 0)
(0.00600097 7.47087e-07 0 9.88763e-11 0 0)
(0.00600845 -1.84052e-07 0 6.33008e-10 0 0)
(0.00601215 -1.55818e-07 0 3.72765e-10 0 0)
(0.00676669 3.82739e-07 0 2.32253e-11 0 0)
(0.00677671 5.52833e-07 0 5.87442e-11 0 0)
(0.00678404 -1.7753e-07 0 5.70894e-10 0 0)
(0.00678612 -2.16597e-07 0 3.71161e-10 0 0)
(0.00752482 1.66674e-07 0 1.18196e-11 0 0)
(0.0075385 6.71876e-07 0 6.61534e-11 0 0)
(0.00754468 -2.42324e-07 0 5.38829e-10 0 0)
(0.007544 -1.33795e-07 0 2.63462e-10 0 0)
(0.00825837 2.59867e-07 0 1.91713e-11 0 0)
(0.00827564 4.59835e-07 0 2.96773e-11 0 0)
(0.00828049 -2.67056e-07 0 5.91355e-10 0 0)
(0.00827737 -2.5176e-07 0 3.97869e-10 0 0)
(0.00896099 1.87884e-07 0 1.02627e-11 0 0)
(0.00897986 4.91483e-07 0 3.18856e-11 0 0)
(0.0089823 -2.60179e-07 0 4.74005e-10 0 0)
(0.00897858 -1.48745e-07 0 2.21112e-10 0 0)
(0.00962371 1.08954e-07 0 2.00409e-11 0 0)
(0.00964472 3.56748e-07 0 1.87267e-11 0 0)
(0.00964617 -2.63331e-07 0 5.07549e-10 0 0)
(0.00963978 -1.85772e-07 0 2.99719e-10 0 0)
(0.000569872 8.33629e-08 0 6.18747e-11 0 0)
(0.000569115 -4.54182e-08 0 1.26528e-10 0 0)
(0.000568683 1.57536e-07 0 2.29233e-10 0 0)
(0.000567549 -1.1792e-07 0 1.038e-10 0 0)
(0.000795086 8.49298e-08 0 5.08247e-11 0 0)
(0.000813601 -4.59513e-08 0 1.62964e-10 0 0)
(0.000815338 1.96375e-07 0 2.37624e-10 0 0)
(0.000826048 -8.48969e-08 0 8.61546e-11 0 0)
(0.00123388 3.46866e-08 0 5.08128e-11 0 0)
(0.00125034 -1.81273e-07 0 1.40953e-10 0 0)
(0.00125109 2.31621e-07 0 4.91522e-10 0 0)
(0.00125779 -1.94502e-07 0 2.96766e-10 0 0)
(0.00175714 -8.80387e-08 0 6.0341e-11 0 0)
(0.00176959 -2.8682e-07 0 2.82905e-10 0 0)
(0.0017699 1.47983e-07 0 3.79971e-10 0 0)
(0.00177383 -1.74999e-07 0 6.97693e-11 0 0)
(0.00235446 -1.05155e-07 0 7.28634e-11 0 0)
(0.00236223 -4.09349e-07 0 2.07028e-10 0 0)
(0.00236222 2.0855e-07 0 5.78685e-10 0 0)
(0.00236328 -2.78716e-07 0 1.21924e-10 0 0)
(0.00301369 -2.07646e-07 0 1.39555e-10 0 0)
(0.00301628 -4.22095e-07 0 3.48014e-10 0 0)
(0.00301692 2.29167e-07 0 6.20727e-10 0 0)
(0.0030172 -1.39317e-07 0 1.51541e-10 0 0)
(0.00372206 -1.74747e-07 0 1.05511e-10 0 0)
(0.00371982 -5.38388e-07 0 2.40032e-10 0 0)
(0.00372123 2.23458e-07 0 6.59501e-10 0 0)
(0.00372124 -2.64017e-07 0 8.47332e-11 0 0)
(0.00446672 -2.51079e-07 0 1.5942e-10 0 0)
(0.00446056 -5.25795e-07 0 3.34951e-10 0 0)
(0.00446258 2.49961e-07 0 6.82845e-10 0 0)
(0.00446286 -9.9961e-08 0 1.2557e-10 0 0)
(0.00523369 -1.50345e-07 0 1.09361e-10 0 0)
(0.00522387 -5.59951e-07 0 2.49349e-10 0 0)
(0.00522708 2.34301e-07 0 7.12154e-10 0 0)
(0.00522806 -2.13303e-07 0 1.06138e-10 0 0)
(0.00601043 -1.95222e-07 0 1.40305e-10 0 0)
(0.00599799 -5.74405e-07 0 2.86616e-10 0 0)
(0.00600119 2.30854e-07 0 6.94471e-10 0 0)
(0.00600305 -5.24853e-08 0 1.09007e-10 0 0)
(0.00678361 -5.60358e-08 0 1.04246e-10 0 0)
(0.00676936 -5.40693e-07 0 2.3731e-10 0 0)
(0.0067733 1.84806e-07 0 6.94161e-10 0 0)
(0.00677522 -1.30344e-07 0 1.33692e-10 0 0)
(0.00754372 -4.88587e-08 0 1.32624e-10 0 0)
(0.00752785 -5.33726e-07 0 2.4553e-10 0 0)
(0.00753044 2.12127e-07 0 6.92528e-10 0 0)
(0.00753265 -2.33385e-08 0 1.14597e-10 0 0)
(0.00827808 5.3467e-08 0 7.42965e-11 0 0)
(0.00826266 -4.71935e-07 0 2.2273e-10 0 0)
(0.00826624 1.55811e-07 0 6.38081e-10 0 0)
(0.00826669 -1.02379e-07 0 8.79526e-11 0 0)
(0.00898338 8.28381e-08 0 1.40992e-10 0 0)
(0.00896493 -4.7512e-07 0 2.05204e-10 0 0)
(0.00896714 1.71283e-07 0 6.47499e-10 0 0)
(0.00896926 3.7207e-08 0 1.44271e-10 0 0)
(0.00964456 1.82569e-07 0 7.04817e-11 0 0)
(0.00962945 -3.40258e-07 0 2.15599e-10 0 0)
(0.00963288 1.27429e-07 0 5.90275e-10 0 0)
(0.00963207 -4.37929e-08 0 6.62408e-11 0 0)
)
;

boundaryField
{
    topWall
    {
        type            calculated;
        value           nonuniform List<symmTensor> 0();
    }
    botWall
    {
        type            calculated;
        value           nonuniform List<symmTensor> 0();
    }
    inlet
    {
        type            cyclic;
    }
    outlet
    {
        type            cyclic;
    }
    fixWall
    {
        type            empty;
    }
    procBoundary4to3
    {
        type            processor;
        value           nonuniform List<symmTensor> 8((0.000508086 -2.22007e-07 0 4.06532e-10 0 0) (0.00050961 6.76321e-08 0 4.12855e-11 0 0) (0.000512492 4.95486e-08 0 5.15207e-11 0 0) (0.000512791 -1.42806e-08 0 1.36421e-10 0 0) (0.000512123 8.36126e-08 0 7.15849e-11 0 0) (0.000510676 -4.5863e-08 0 1.16965e-10 0 0) (0.000509822 1.53068e-07 0 2.53604e-10 0 0) (0.00050895 -1.23616e-07 0 1.35974e-10 0 0));
    }
    procBoundary4to5
    {
        type            processor;
        value           nonuniform List<symmTensor> 8((0.0102446 1.22613e-07 0 1.57459e-11 0 0) (0.0102647 2.8559e-07 0 1.25949e-11 0 0) (0.0102648 -2.90695e-07 0 5.48723e-10 0 0) (0.0102598 -2.56819e-07 0 2.92158e-10 0 0) (0.0102683 1.55621e-07 0 8.99339e-11 0 0) (0.0102502 -4.24312e-07 0 1.90277e-10 0 0) (0.0102517 6.54229e-08 0 5.51912e-10 0 0) (0.0102531 1.28188e-07 0 1.19831e-10 0 0));
    }
}


// ************************************************************************* //
