/*--------------------------------*- C++ -*----------------------------------*\
  =========                 |
  \\      /  F ield         | OpenFOAM: The Open Source CFD Toolbox
   \\    /   O peration     | Website:  https://openfoam.org
    \\  /    A nd           | Version:  dev
     \\/     M anipulation  |

   OpenFOAM for Windows 20.09 (v1)
   Built by CFD Support, www.cfdsupport.com (based on Symscape).
\*---------------------------------------------------------------------------*/
FoamFile
{
    version     2.0;
    format      ascii;
    class       surfaceScalarField;
    location    "6";
    object      alphaPhi0.water;
}
// * * * * * * * * * * * * * * * * * * * * * * * * * * * * * * * * * * * * * //

dimensions      [0 3 -1 0 0 0 0];

internalField   nonuniform List<scalar> 
217
(
2.56717e-08
3.16229e-10
2.56631e-08
2.37321e-10
2.56921e-08
-7.5098e-10
-8.04765e-10
2.575e-08
2.56963e-08
3.22824e-10
2.56914e-08
2.42187e-10
2.57258e-08
-7.85354e-10
-8.5883e-10
2.57798e-08
2.57247e-08
3.24988e-10
2.57216e-08
2.45289e-10
2.57547e-08
-8.18494e-10
-9.12227e-10
2.58081e-08
2.57585e-08
3.23265e-10
2.5755e-08
2.4881e-10
2.57872e-08
-8.50715e-10
-9.66282e-10
2.58413e-08
2.57985e-08
3.18367e-10
2.57933e-08
2.54004e-10
2.58237e-08
-8.81025e-10
-1.02037e-09
2.58778e-08
2.58473e-08
3.10689e-10
2.58395e-08
2.61849e-10
2.58678e-08
-9.09374e-10
-1.07508e-09
2.59225e-08
2.59066e-08
3.00592e-10
2.5896e-08
2.72415e-10
2.59221e-08
-9.35464e-10
-1.12963e-09
2.59767e-08
2.59796e-08
2.88122e-10
2.59664e-08
2.85597e-10
2.59903e-08
-9.59273e-10
-1.18399e-09
2.60446e-08
2.60694e-08
2.73378e-10
2.60541e-08
3.00913e-10
2.60753e-08
-9.80495e-10
-1.23712e-09
2.61284e-08
2.618e-08
2.56302e-10
2.61633e-08
3.17593e-10
2.61817e-08
-9.98957e-10
-1.28843e-09
2.6233e-08
2.63159e-08
2.3654e-10
2.62987e-08
3.3475e-10
2.6314e-08
-1.01431e-09
-1.33631e-09
2.63619e-08
2.64822e-08
2.14037e-10
2.64659e-08
3.51065e-10
2.64778e-08
-1.02628e-09
-1.37938e-09
2.65209e-08
2.66851e-08
1.88619e-10
2.66709e-08
3.65355e-10
2.66792e-08
-1.03462e-09
-1.4153e-09
2.67151e-08
2.69312e-08
1.60834e-10
2.69207e-08
3.759e-10
2.69252e-08
-1.03909e-09
-1.44239e-09
2.69522e-08
2.72289e-08
2.72215e-08
2.7224e-08
2.72392e-08
2.57431e-08
1.07613e-09
2.5731e-08
-3.58878e-10
2.57284e-08
-2.35761e-10
5.2554e-10
2.57702e-08
1.08575e-09
2.57527e-08
-3.41352e-10
2.57479e-08
-2.30963e-10
5.70564e-10
2.5798e-08
1.09584e-09
2.57778e-08
-3.21128e-10
2.57704e-08
-2.23555e-10
6.14117e-10
2.58307e-08
1.10638e-09
2.58081e-08
-2.98487e-10
2.57982e-08
-2.13678e-10
6.55542e-10
2.58676e-08
1.11656e-09
2.58441e-08
-2.74965e-10
2.58325e-08
-2.02166e-10
6.94449e-10
2.59133e-08
1.12576e-09
2.58891e-08
-2.50718e-10
2.58758e-08
-1.88907e-10
7.30636e-10
2.59685e-08
1.13393e-09
2.59445e-08
-2.26687e-10
2.593e-08
-1.74445e-10
7.64144e-10
2.6038e-08
1.14056e-09
2.60142e-08
-2.02916e-10
2.59981e-08
-1.58327e-10
7.95084e-10
2.61236e-08
1.14543e-09
2.61006e-08
-1.80016e-10
2.60831e-08
-1.40772e-10
8.23525e-10
2.62304e-08
1.14809e-09
2.62086e-08
-1.58249e-10
2.61891e-08
-1.21267e-10
8.49754e-10
2.63617e-08
1.14834e-09
2.63415e-08
-1.38109e-10
2.63202e-08
-9.9899e-11
8.73826e-10
2.65236e-08
1.14563e-09
2.65057e-08
-1.2019e-10
2.6482e-08
-7.62323e-11
8.96188e-10
2.67206e-08
1.14017e-09
2.67055e-08
-1.05136e-10
2.66798e-08
-5.05287e-11
9.16278e-10
2.69606e-08
1.13182e-09
2.69489e-08
-9.34531e-11
2.69218e-08
-2.34516e-11
9.34641e-10
2.7249e-08
2.72414e-08
2.72132e-08
)
;

boundaryField
{
    topWall
    {
        type            calculated;
        value           nonuniform List<scalar> 0();
    }
    botWall
    {
        type            calculated;
        value           nonuniform List<scalar> 0();
    }
    inlet
    {
        type            cyclic;
        value           nonuniform List<scalar> 
15
(
-2.71981e-08
-2.69034e-08
-2.66597e-08
-2.64597e-08
-2.62961e-08
-2.61629e-08
-2.60547e-08
-2.59672e-08
-2.58965e-08
-2.58396e-08
-2.57936e-08
-2.57568e-08
-2.57269e-08
-2.57029e-08
-2.5683e-08
)
;
    }
    outlet
    {
        type            cyclic;
        value           nonuniform List<scalar> 
15
(
2.71981e-08
2.69034e-08
2.66597e-08
2.64597e-08
2.62961e-08
2.61629e-08
2.60547e-08
2.59672e-08
2.58965e-08
2.58396e-08
2.57936e-08
2.57568e-08
2.57269e-08
2.57029e-08
2.5683e-08
)
;
    }
    fixWall
    {
        type            empty;
        value           nonuniform List<scalar> 0();
    }
    procBoundary2to1
    {
        type            processor;
        value           nonuniform List<scalar> 8(-3.0435e-10 -2.28712e-10 7.22567e-10 7.46874e-10 -1.07049e-09 3.71989e-10 2.37611e-10 -4.79829e-10);
    }
    procBoundary2to3
    {
        type            processor;
        value           nonuniform List<scalar> 8(1.29991e-10 3.82819e-10 -1.04079e-09 -1.4572e-09 1.12152e-09 -8.52058e-11 5.02177e-12 9.49541e-10);
    }
}


// ************************************************************************* //
