/*--------------------------------*- C++ -*----------------------------------*\
  =========                 |
  \\      /  F ield         | OpenFOAM: The Open Source CFD Toolbox
   \\    /   O peration     | Website:  https://openfoam.org
    \\  /    A nd           | Version:  dev
     \\/     M anipulation  |

   OpenFOAM for Windows 20.09 (v1)
   Built by CFD Support, www.cfdsupport.com (based on Symscape).
\*---------------------------------------------------------------------------*/
FoamFile
{
    version     2.0;
    format      ascii;
    class       volSymmTensorField;
    location    "6";
    object      devReff;
}
// * * * * * * * * * * * * * * * * * * * * * * * * * * * * * * * * * * * * * //

dimensions      [0 2 -2 0 0 0 0];

internalField   nonuniform List<symmTensor> 
120
(
(1.25466e-07 -5.54124e-06 -0 -1.14347e-07 -0 -1.11191e-08)
(8.25037e-08 -7.94178e-06 -0 -6.95982e-08 -0 -1.29055e-08)
(-2.79893e-07 -9.76851e-06 -0 2.62223e-07 -0 1.76708e-08)
(-5.58237e-07 -7.86482e-06 -0 5.46868e-07 -0 1.13694e-08)
(8.2381e-08 -6.87756e-06 -0 -6.61895e-08 -0 -1.61915e-08)
(2.41045e-08 -8.51558e-06 -0 -1.25171e-08 -0 -1.15874e-08)
(-2.94243e-07 -9.56277e-06 -0 2.93671e-07 -0 5.71256e-10)
(-5.26377e-07 -8.60155e-06 -0 5.14993e-07 -0 1.13832e-08)
(5.4031e-08 -8.48638e-06 -0 -4.6061e-08 -0 -7.96997e-09)
(1.86864e-08 -9.49736e-06 -0 -3.34211e-08 -0 1.47347e-08)
(-2.97065e-07 -9.59153e-06 -0 2.96427e-07 -0 6.37683e-10)
(-5.25321e-07 -9.25645e-06 -0 5.23663e-07 -0 1.65741e-09)
(1.86502e-08 -1.04483e-05 -0 -9.1858e-09 -0 -9.46437e-09)
(1.48084e-08 -1.0952e-05 -0 -3.27202e-08 -0 1.79119e-08)
(-2.82557e-07 -1.03813e-05 -0 2.81173e-07 -0 1.38444e-09)
(-5.20279e-07 -1.02913e-05 -0 5.1997e-07 -0 3.08226e-10)
(-1.09527e-08 -1.28277e-05 -0 1.97706e-08 -0 -8.81793e-09)
(5.95568e-09 -1.29567e-05 -0 -7.73373e-09 -0 1.77805e-09)
(-2.76344e-07 -1.20773e-05 -0 2.79925e-07 -0 -3.58179e-09)
(-5.14438e-07 -1.21515e-05 -0 5.057e-07 -0 8.738e-09)
(-3.56556e-08 -1.572e-05 -0 4.28248e-08 -0 -7.16914e-09)
(1.90376e-08 -1.56222e-05 -0 -1.81871e-08 -0 -8.50493e-10)
(-2.49224e-07 -1.45857e-05 -0 2.44354e-07 -0 4.87053e-09)
(-5.09051e-07 -1.45903e-05 -0 4.96818e-07 -0 1.22328e-08)
(-6.6178e-08 -1.92875e-05 -0 7.95874e-08 -0 -1.34094e-08)
(3.72234e-08 -1.90693e-05 -0 -3.45048e-08 -0 -2.71863e-09)
(-2.4093e-07 -1.80462e-05 -0 2.46583e-07 -0 -5.65221e-09)
(-5.14167e-07 -1.79295e-05 -0 5.06559e-07 -0 7.60776e-09)
(-7.44161e-08 -2.36256e-05 -0 7.33746e-08 -0 1.04153e-09)
(6.3409e-08 -2.34218e-05 -0 -6.76317e-08 -0 4.22268e-09)
(-2.02962e-07 -2.25189e-05 -0 1.92971e-07 -0 9.99095e-09)
(-4.98079e-07 -2.21358e-05 -0 4.82368e-07 -0 1.57108e-08)
(-1.21311e-07 -2.89701e-05 -0 1.43967e-07 -0 -2.26559e-08)
(7.03906e-08 -2.88207e-05 -0 -6.60729e-08 -0 -4.31766e-09)
(-2.03117e-07 -2.81349e-05 -0 2.17034e-07 -0 -1.39172e-08)
(-5.04784e-07 -2.74072e-05 -0 5.06983e-07 -0 -2.1994e-09)
(-1.20964e-07 -3.54299e-05 -0 1.20123e-07 -0 8.41029e-10)
(6.9743e-08 -3.53894e-05 -0 -5.46222e-08 -0 -1.51208e-08)
(-1.6638e-07 -3.50315e-05 -0 1.70169e-07 -0 -3.78917e-09)
(-4.8387e-07 -3.38464e-05 -0 4.88769e-07 -0 -4.89958e-09)
(-1.35977e-07 -4.32393e-05 -0 1.27043e-07 -0 8.9343e-09)
(1.10184e-07 -4.33053e-05 -0 -1.34621e-07 -0 2.4437e-08)
(-1.0947e-07 -4.33946e-05 -0 8.44675e-08 -0 2.50029e-08)
(-3.72412e-07 -4.16561e-05 -0 2.98179e-07 -0 7.42331e-08)
(-2.02914e-07 -5.25818e-05 -0 2.37361e-07 -0 -3.44469e-08)
(8.95762e-08 -5.27796e-05 -0 -1.01703e-07 -0 1.21268e-08)
(-1.15629e-07 -5.3405e-05 -0 1.26951e-07 -0 -1.13228e-08)
(-4.48625e-07 -5.10245e-05 -0 5.01123e-07 -0 -5.24975e-08)
(-1.75497e-07 -6.37556e-05 -0 1.6182e-07 -0 1.36775e-08)
(6.56722e-08 -6.39659e-05 -0 -7.53491e-08 -0 9.67691e-09)
(-5.74795e-08 -6.52616e-05 -0 4.23126e-08 -0 1.51669e-08)
(-2.99613e-07 -6.22007e-05 -0 2.67807e-07 -0 3.1806e-08)
(-2.21035e-07 -7.68953e-05 -0 2.35013e-07 -0 -1.39789e-08)
(4.0294e-08 -7.71271e-05 -0 -5.57965e-08 -0 1.55025e-08)
(-3.15261e-08 -7.92052e-05 -0 2.08359e-08 -0 1.06902e-08)
(-1.92087e-07 -7.54194e-05 -0 1.41024e-07 -0 5.10624e-08)
(-2.46994e-07 -9.22631e-05 -0 2.76808e-07 -0 -2.98145e-08)
(-7.85392e-08 -9.23934e-05 -0 1.33742e-07 -0 -5.5203e-08)
(-6.90994e-08 -9.5514e-05 -0 1.25781e-07 -0 -5.66814e-08)
(-2.46675e-07 -9.09661e-05 -0 3.57638e-07 -0 -1.10963e-07)
(9.91248e-08 -7.98073e-06 -0 -1.09246e-07 -0 1.01208e-08)
(8.85467e-08 -7.6954e-06 -0 -9.05194e-08 -0 1.97273e-09)
(6.66241e-08 -6.01574e-06 -0 -6.12729e-08 -0 -5.35119e-09)
(3.73098e-07 -5.77106e-06 -0 -3.58572e-07 -0 -1.4526e-08)
(8.45745e-08 -8.37535e-06 -0 -7.08025e-08 -0 -1.3772e-08)
(1.31484e-07 -7.78966e-06 -0 -1.43463e-07 -0 1.19797e-08)
(9.08271e-08 -6.42532e-06 -0 -8.37593e-08 -0 -7.06785e-09)
(3.80858e-07 -6.30265e-06 -0 -3.79152e-07 -0 -1.70606e-09)
(9.30274e-08 -9.17244e-06 -0 -7.32172e-08 -0 -1.98102e-08)
(1.6513e-07 -8.7295e-06 -0 -1.78335e-07 -0 1.32048e-08)
(1.18431e-07 -7.67153e-06 -0 -1.13998e-07 -0 -4.43297e-09)
(3.85203e-07 -7.40967e-06 -0 -3.99304e-07 -0 1.41014e-08)
(8.87892e-08 -1.03694e-05 -0 -6.49363e-08 -0 -2.3853e-08)
(1.79739e-07 -1.0229e-05 -0 -1.89641e-07 -0 9.90208e-09)
(1.41216e-07 -9.35318e-06 -0 -1.39248e-07 -0 -1.96837e-09)
(3.63539e-07 -9.05471e-06 -0 -3.73225e-07 -0 9.68564e-09)
(9.89565e-08 -1.2205e-05 -0 -8.6309e-08 -0 -1.26475e-08)
(2.00707e-07 -1.22792e-05 -0 -2.15401e-07 -0 1.46939e-08)
(1.58921e-07 -1.15818e-05 -0 -1.54549e-07 -0 -4.3717e-09)
(3.44939e-07 -1.12859e-05 -0 -3.56893e-07 -0 1.19534e-08)
(9.37027e-08 -1.4656e-05 -0 -8.23517e-08 -0 -1.13509e-08)
(2.02586e-07 -1.50162e-05 -0 -2.14408e-07 -0 1.18217e-08)
(1.70363e-07 -1.44094e-05 -0 -1.63199e-07 -0 -7.16443e-09)
(3.15053e-07 -1.41306e-05 -0 -3.19475e-07 -0 4.42165e-09)
(7.72957e-08 -1.79384e-05 -0 -6.0572e-08 -0 -1.67237e-08)
(2.05798e-07 -1.85456e-05 -0 -2.17312e-07 -0 1.15139e-08)
(1.8974e-07 -1.79616e-05 -0 -1.85453e-07 -0 -4.28719e-09)
(2.88561e-07 -1.76873e-05 -0 -2.89573e-07 -0 1.01219e-09)
(7.44496e-08 -2.20661e-05 -0 -6.77766e-08 -0 -6.673e-09)
(2.05604e-07 -2.2954e-05 -0 -2.21233e-07 -0 1.56292e-08)
(2.00842e-07 -2.23656e-05 -0 -1.94396e-07 -0 -6.44587e-09)
(2.79053e-07 -2.20716e-05 -0 -2.93476e-07 -0 1.44238e-08)
(3.86211e-08 -2.72176e-05 -0 -1.39291e-08 -0 -2.4692e-08)
(1.91606e-07 -2.84019e-05 -0 -1.99047e-07 -0 7.44079e-09)
(2.18644e-07 -2.7746e-05 -0 -2.12746e-07 -0 -5.89809e-09)
(2.31193e-07 -2.74561e-05 -0 -2.18675e-07 -0 -1.2518e-08)
(3.09239e-08 -3.34869e-05 -0 -1.73082e-08 -0 -1.36157e-08)
(1.79997e-07 -3.49945e-05 -0 -1.87826e-07 -0 7.82934e-09)
(2.36677e-07 -3.42861e-05 -0 -2.33497e-07 -0 -3.17979e-09)
(2.47871e-07 -3.40256e-05 -0 -2.73804e-07 -0 2.59327e-08)
(4.90477e-08 -4.10468e-05 -0 -7.64866e-08 -0 2.74389e-08)
(1.93966e-07 -4.29251e-05 -0 -2.30741e-07 -0 3.67743e-08)
(2.59571e-07 -4.21123e-05 -0 -2.61366e-07 -0 1.79549e-09)
(2.31439e-07 -4.19288e-05 -0 -2.59172e-07 -0 2.77328e-08)
(-7.22075e-08 -5.00891e-05 -0 1.43242e-07 -0 -7.10342e-08)
(1.18831e-07 -5.23307e-05 -0 -1.01367e-07 -0 -1.7464e-08)
(2.38192e-07 -5.15046e-05 -0 -2.02437e-07 -0 -3.57544e-08)
(1.17059e-07 -5.14719e-05 -0 -5.17359e-08 -0 -6.53233e-08)
(-8.66289e-09 -6.08206e-05 -0 -8.04238e-09 -0 1.67053e-08)
(1.26147e-07 -6.33989e-05 -0 -1.42751e-07 -0 1.66041e-08)
(2.82545e-07 -6.25355e-05 -0 -2.779e-07 -0 -4.64445e-09)
(2.16257e-07 -6.28268e-05 -0 -2.66632e-07 -0 5.03755e-08)
(-4.11182e-08 -7.34808e-05 -0 3.78371e-08 -0 3.28103e-09)
(1.10678e-07 -7.62884e-05 -0 -1.42784e-07 -0 3.21057e-08)
(2.92352e-07 -7.55286e-05 -0 -2.91034e-07 -0 -1.31876e-09)
(1.22382e-07 -7.63027e-05 -0 -1.04979e-07 -0 -1.74032e-08)
(-1.6252e-07 -8.84521e-05 -0 2.67324e-07 -0 -1.04804e-07)
(1.46633e-08 -9.17143e-05 -0 1.14267e-08 -0 -2.60899e-08)
(2.68352e-07 -9.09997e-05 -0 -2.4939e-07 -0 -1.89616e-08)
(6.51299e-08 -9.21572e-05 -0 -1.19651e-08 -0 -5.31649e-08)
)
;

boundaryField
{
    topWall
    {
        type            calculated;
        value           nonuniform List<symmTensor> 0();
    }
    botWall
    {
        type            calculated;
        value           nonuniform List<symmTensor> 0();
    }
    inlet
    {
        type            cyclic;
    }
    outlet
    {
        type            cyclic;
    }
    fixWall
    {
        type            empty;
    }
    procBoundary2to1
    {
        type            processor;
        value           nonuniform List<symmTensor> 8((1.56857e-07 -6.14746e-06 -0 -1.42003e-07 -0 -1.48535e-08) (1.65999e-07 -7.90274e-06 -0 -1.53476e-07 -0 -1.25232e-08) (-2.97488e-07 -9.3725e-06 -0 2.94948e-07 -0 2.54069e-09) (-6.02549e-07 -8.11503e-06 -0 6.04865e-07 -0 -2.31639e-09) (1.16372e-07 -8.22274e-06 -0 -1.36867e-07 -0 2.0495e-08) (4.75848e-08 -7.54145e-06 -0 -4.15893e-08 -0 -5.99552e-09) (4.55532e-08 -6.10693e-06 -0 -5.86643e-08 -0 1.31112e-08) (3.68219e-07 -6.25625e-06 -0 -3.68308e-07 -0 8.93889e-11));
    }
    procBoundary2to3
    {
        type            processor;
        value           nonuniform List<symmTensor> 8((-1.67108e-07 -0.000109969 -0 1.18886e-07 -0 4.82223e-08) (-1.24635e-07 -0.000109981 -0 1.632e-07 -0 -3.8565e-08) (9.25366e-09 -0.000112974 -0 -9.9698e-09 -0 7.16139e-10) (1.13578e-07 -0.000108798 -0 -2.29843e-07 -0 1.16265e-07) (1.53559e-08 -0.000106584 -0 -1.0324e-07 -0 8.78838e-08) (5.61552e-08 -0.00010997 -0 -1.19316e-07 -0 6.31612e-08) (3.27733e-07 -0.000109239 -0 -3.76145e-07 -0 4.84117e-08) (2.13753e-07 -0.000110051 -0 -3.31744e-07 -0 1.1799e-07));
    }
}


// ************************************************************************* //
