/*--------------------------------*- C++ -*----------------------------------*\
  =========                 |
  \\      /  F ield         | OpenFOAM: The Open Source CFD Toolbox
   \\    /   O peration     | Website:  https://openfoam.org
    \\  /    A nd           | Version:  dev
     \\/     M anipulation  |

   OpenFOAM for Windows 20.09 (v1)
   Built by CFD Support, www.cfdsupport.com (based on Symscape).
\*---------------------------------------------------------------------------*/
FoamFile
{
    version     2.0;
    format      ascii;
    class       volScalarField;
    location    "6";
    object      epsilon;
}
// * * * * * * * * * * * * * * * * * * * * * * * * * * * * * * * * * * * * * //

dimensions      [0 2 -3 0 0 0 0];

internalField   nonuniform List<scalar> 
120
(
4.93224e-16
4.93116e-16
4.93148e-16
4.93212e-16
4.68817e-16
4.68711e-16
4.68735e-16
4.68795e-16
4.47387e-16
4.47281e-16
4.47298e-16
4.47354e-16
4.28616e-16
4.2851e-16
4.2852e-16
4.28573e-16
4.12235e-16
4.12128e-16
4.1213e-16
4.12182e-16
3.98014e-16
3.97907e-16
3.97902e-16
3.97952e-16
3.85762e-16
3.85653e-16
3.85641e-16
3.8569e-16
3.75315e-16
3.75205e-16
3.75187e-16
3.75233e-16
3.66539e-16
3.66427e-16
3.66402e-16
3.66447e-16
3.65459e-16
3.65181e-16
3.65347e-16
3.65771e-16
3.7581e-16
3.75499e-16
3.75687e-16
3.76175e-16
3.89788e-16
3.89442e-16
3.89651e-16
3.90208e-16
4.0762e-16
4.07237e-16
4.07465e-16
4.08096e-16
4.29629e-16
4.29206e-16
4.29452e-16
4.30164e-16
4.56242e-16
4.55778e-16
4.56038e-16
4.56841e-16
4.93223e-16
4.93148e-16
4.93125e-16
4.9319e-16
4.68806e-16
4.68737e-16
4.68718e-16
4.68779e-16
4.47366e-16
4.47303e-16
4.47287e-16
4.47344e-16
4.28585e-16
4.28527e-16
4.28514e-16
4.28567e-16
4.12193e-16
4.1214e-16
4.1213e-16
4.12179e-16
3.97962e-16
3.97915e-16
3.97907e-16
3.97952e-16
3.85699e-16
3.85658e-16
3.85652e-16
3.85693e-16
3.75241e-16
3.75206e-16
3.75203e-16
3.75239e-16
3.66453e-16
3.66424e-16
3.66424e-16
3.66455e-16
3.65509e-16
3.65415e-16
3.65391e-16
3.65349e-16
3.75874e-16
3.75768e-16
3.75741e-16
3.75689e-16
3.89868e-16
3.89746e-16
3.89717e-16
3.89655e-16
4.07715e-16
4.07577e-16
4.07545e-16
4.07473e-16
4.29738e-16
4.29582e-16
4.29548e-16
4.29466e-16
4.5637e-16
4.56192e-16
4.56158e-16
4.56063e-16
)
;

boundaryField
{
    topWall
    {
        type            epsilonWallFunction;
        value           nonuniform List<scalar> 0();
    }
    botWall
    {
        type            epsilonWallFunction;
        value           nonuniform List<scalar> 0();
    }
    inlet
    {
        type            cyclic;
    }
    outlet
    {
        type            cyclic;
    }
    fixWall
    {
        type            empty;
    }
    procBoundary2to1
    {
        type            processor;
        value           nonuniform List<scalar> 8(5.20675e-16 5.20565e-16 5.20602e-16 5.20672e-16 5.20684e-16 5.20601e-16 5.20575e-16 5.20644e-16);
    }
    procBoundary2to3
    {
        type            processor;
        value           nonuniform List<scalar> 8(4.86825e-16 4.8633e-16 4.866e-16 4.87504e-16 4.86984e-16 4.86777e-16 4.86748e-16 4.86634e-16);
    }
}


// ************************************************************************* //
