/*--------------------------------*- C++ -*----------------------------------*\
  =========                 |
  \\      /  F ield         | OpenFOAM: The Open Source CFD Toolbox
   \\    /   O peration     | Website:  https://openfoam.org
    \\  /    A nd           | Version:  dev
     \\/     M anipulation  |

   OpenFOAM for Windows 20.09 (v1)
   Built by CFD Support, www.cfdsupport.com (based on Symscape).
\*---------------------------------------------------------------------------*/
FoamFile
{
    version     2.0;
    format      ascii;
    class       volTensorField;
    location    "6";
    object      gradU;
}
// * * * * * * * * * * * * * * * * * * * * * * * * * * * * * * * * * * * * * //

dimensions      [0 0 -1 0 0 0 0];

internalField   nonuniform List<tensor> 
120
(
(-0.00036195 -1.66631e-05 0 0.0293852 0.000273553 0 0 0 0)
(-0.000252834 -0.000115347 0 0.0422068 0.000150236 0 0 0 0)
(0.000788545 -0.000322199 0 0.0520953 -0.000648062 0 0 0 0)
(0.00150946 0.000305923 0 0.0413776 -0.00141907 0 0 0 0)
(-0.000261217 -2.36399e-05 0 0.0364747 0.000132495 0 0 0 0)
(-9.45834e-05 -0.000121045 0 0.0452536 2.46387e-06 0 0 0 0)
(0.000781257 -0.000333745 0 0.0510164 -0.000776716 0 0 0 0)
(0.00142506 0.000312631 0 0.0452756 -0.00133457 0 0 0 0)
(-0.000164303 -3.32925e-05 0 0.0450111 0.000100941 0 0 0 0)
(-1.04721e-05 -0.000130501 0 0.0504665 0.000127613 0 0 0 0)
(0.000788911 -0.000344483 0 0.0511796 -0.000783842 0 0 0 0)
(0.00139649 0.000321388 0 0.0487378 -0.00138332 0 0 0 0)
(-7.45035e-05 -3.97718e-05 0 0.0554159 -7.38209e-07 0 0 0 0)
(8.22423e-06 -0.000135792 0 0.0581814 0.000134175 0 0 0 0)
(0.000752445 -0.000358927 0 0.05538 -0.000741439 0 0 0 0)
(0.00137956 0.000328054 0 0.0542159 -0.00137711 0 0 0 0)
(5.6571e-06 -4.79682e-05 0 0.068035 -7.57596e-05 0 0 0 0)
(-1.10707e-05 -0.000142846 0 0.0688132 2.52062e-05 0 0 0 0)
(0.000722819 -0.000369671 0 0.0643793 -0.000751294 0 0 0 0)
(0.00138642 0.000335559 0 0.0640675 -0.00131695 0 0 0 0)
(7.54892e-05 -5.56424e-05 0 0.0833718 -0.000132484 0 0 0 0)
(-5.27035e-05 -0.000147051 0 0.0829449 4.59421e-05 0 0 0 0)
(0.000673351 -0.000381296 0 0.0776853 -0.00063463 0 0 0 0)
(0.0013814 0.000343829 0 0.076985 -0.00128415 0 0 0 0)
(0.000139837 -6.15079e-05 0 0.102285 -0.000246441 0 0 0 0)
(-0.000105846 -0.000151215 0 0.101219 8.42334e-05 0 0 0 0)
(0.000623487 -0.000391839 0 0.0960369 -0.000668422 0 0 0 0)
(0.0013827 0.000349272 0 0.0946772 -0.00132222 0 0 0 0)
(0.000199963 -6.70727e-05 0 0.125283 -0.000191683 0 0 0 0)
(-0.000156844 -0.000154084 0 0.12429 0.000190414 0 0 0 0)
(0.000564325 -0.000404737 0 0.119755 -0.000484897 0 0 0 0)
(0.00136154 0.000356906 0 0.116963 -0.00123664 0 0 0 0)
(0.000261436 -7.19332e-05 0 0.153613 -0.00044155 0 0 0 0)
(-0.000197977 -0.000156102 0 0.152906 0.000163651 0 0 0 0)
(0.00050138 -0.000415624 0 0.149531 -0.000612022 0 0 0 0)
(0.00133185 0.000360053 0 0.144898 -0.00134933 0 0 0 0)
(0.000322784 -7.34505e-05 0 0.187852 -0.000316098 0 0 0 0)
(-0.000224889 -0.000156925 0 0.187721 0.000104679 0 0 0 0)
(0.000430865 -0.000429954 0 0.186097 -0.000460989 0 0 0 0)
(0.00126927 0.000366631 0 0.179019 -0.00130822 0 0 0 0)
(0.000384014 -8.3427e-05 0 0.229251 -0.000312987 0 0 0 0)
(-0.00022723 -0.000158516 0 0.229677 0.000421504 0 0 0 0)
(0.000356354 -0.000439172 0 0.23043 -0.000157581 0 0 0 0)
(0.00118361 0.000367899 0 0.220409 -0.000593456 0 0 0 0)
(0.000446438 -7.9097e-05 0 0.278763 -0.00072029 0 0 0 0)
(-0.000205241 -0.000154335 0 0.279886 0.000301649 0 0 0 0)
(0.000276411 -0.00044687 0 0.283493 -0.000366427 0 0 0 0)
(0.00104974 0.000373847 0 0.270056 -0.00146709 0 0 0 0)
(0.000501313 -7.77994e-05 0 0.337983 -0.000392577 0 0 0 0)
(-0.000148388 -0.000152619 0 0.339172 0.000225319 0 0 0 0)
(0.000192513 -0.000468651 0 0.346355 -7.19359e-05 0 0 0 0)
(0.000878262 0.000364542 0 0.329299 -0.000625404 0 0 0 0)
(0.000548697 -8.93429e-05 0 0.407635 -0.00065983 0 0 0 0)
(-6.56974e-05 -0.000148991 0 0.408923 0.000188942 0 0 0 0)
(0.000111873 -0.000461048 0 0.420248 -2.6886e-05 0 0 0 0)
(0.000644345 0.000376139 0 0.399347 -0.000238399 0 0 0 0)
(0.000575525 -7.85182e-05 0 0.489073 -0.00081255 0 0 0 0)
(6.18408e-05 -0.00014207 0 0.489827 -0.000500705 0 0 0 0)
(3.29077e-05 -0.000475773 0 0.5067 -0.000483525 0 0 0 0)
(0.000359636 0.000363464 0 0.481757 -0.00124179 0 0 0 0)
(-0.000235861 0.000135721 0 0.0421621 0.000316321 0 0 0 0)
(-0.000229421 -0.000199293 0 0.0409849 0.000245104 0 0 0 0)
(-0.000190734 0.000203142 0 0.0316803 0.000148192 0 0 0 0)
(-0.0010272 8.71643e-06 0 0.0305779 0.000911721 0 0 0 0)
(-0.000260618 0.000150866 0 0.0442385 0.000151131 0 0 0 0)
(-0.000316686 -0.000200862 0 0.0414861 0.000411924 0 0 0 0)
(-0.000259422 0.000206519 0 0.0338477 0.000203232 0 0 0 0)
(-0.00101379 9.27643e-06 0 0.0333948 0.00100023 0 0 0 0)
(-0.00029902 0.000164829 0 0.0484491 0.000141529 0 0 0 0)
(-0.000402601 -0.000198424 0 0.0464648 0.00050758 0 0 0 0)
(-0.000325589 0.000212947 0 0.0404462 0.000290347 0 0 0 0)
(-0.000983419 7.53747e-06 0 0.0392637 0.00109553 0 0 0 0)
(-0.000298502 0.000182381 0 0.0547755 0.000108871 0 0 0 0)
(-0.000450068 -0.000198382 0 0.054412 0.000528789 0 0 0 0)
(-0.00037944 0.000216318 0 0.0493555 0.000363791 0 0 0 0)
(-0.000937712 6.11967e-06 0 0.0479838 0.00101471 0 0 0 0)
(-0.000295751 0.000196594 0 0.0644901 0.000195203 0 0 0 0)
(-0.000492934 -0.000194176 0 0.0652741 0.00060975 0 0 0 0)
(-0.000432726 0.000221046 0 0.0611626 0.000397971 0 0 0 0)
(-0.000882413 1.46198e-06 0 0.0598136 0.000977443 0 0 0 0)
(-0.000278392 0.000214492 0 0.0774625 0.000188152 0 0 0 0)
(-0.000505526 -0.000195002 0 0.0797809 0.000599509 0 0 0 0)
(-0.000470448 0.000222446 0 0.0761473 0.000413491 0 0 0 0)
(-0.000823173 -1.77583e-06 0 0.0748941 0.000858325 0 0 0 0)
(-0.000249151 0.000227988 0 0.0948455 0.000116198 0 0 0 0)
(-0.000514853 -0.00019042 0 0.0984822 0.000606388 0 0 0 0)
(-0.000514173 0.000225359 0 0.094971 0.00048009 0 0 0 0)
(-0.000762004 -7.63759e-06 0 0.0937503 0.000770051 0 0 0 0)
(-0.000214975 0.000246636 0 0.116704 0.000161924 0 0 0 0)
(-0.000503434 -0.000188938 0 0.121845 0.000627686 0 0 0 0)
(-0.000549313 0.000225174 0 0.118312 0.000498069 0 0 0 0)
(-0.000701266 -1.38847e-05 0 0.116994 0.000815935 0 0 0 0)
(-0.00016778 0.00025906 0 0.143994 -2.85216e-05 0 0 0 0)
(-0.000488038 -0.000184818 0 0.150715 0.000547192 0 0 0 0)
(-0.000595036 0.000228497 0 0.146826 0.000548146 0 0 0 0)
(-0.000645833 -1.91334e-05 0 0.145536 0.000546316 0 0 0 0)
(-0.00011803 0.000278245 0 0.177203 9.78519e-06 0 0 0 0)
(-0.000456244 -0.000179326 0 0.18565 0.000518487 0 0 0 0)
(-0.00063562 0.000225159 0 0.181491 0.000610341 0 0 0 0)
(-0.000588138 -3.03796e-05 0 0.180366 0.000794303 0 0 0 0)
(-5.72632e-05 0.000289505 0 0.217258 0.000275403 0 0 0 0)
(-0.000416559 -0.000174809 0 0.227678 0.000708914 0 0 0 0)
(-0.000683105 0.000233094 0 0.222962 0.000697379 0 0 0 0)
(-0.000539821 -3.45741e-05 0 0.222257 0.000760297 0 0 0 0)
(3.10915e-06 0.000299951 0 0.265172 -0.000567831 0 0 0 0)
(-0.000361183 -0.000172293 0 0.277525 0.000222344 0 0 0 0)
(-0.000725958 0.000226016 0 0.272748 0.00044171 0 0 0 0)
(-0.000483314 -4.72191e-05 0 0.272848 -3.60066e-05 0 0 0 0)
(6.72256e-05 0.000317663 0 0.322032 6.55813e-05 0 0 0 0)
(-0.000290288 -0.000157983 0 0.336172 0.00042229 0 0 0 0)
(-0.000761052 0.000228788 0 0.33121 0.000724128 0 0 0 0)
(-0.000439586 -5.39408e-05 0 0.333036 0.000840071 0 0 0 0)
(0.000117658 0.000317412 0 0.389131 -9.15737e-05 0 0 0 0)
(-0.000208217 -0.000161318 0 0.40449 0.000463458 0 0 0 0)
(-0.000778229 0.000232979 0 0.400068 0.000767744 0 0 0 0)
(-0.00037043 -6.58308e-05 0 0.40447 0.000232075 0 0 0 0)
(0.000152948 0.00032936 0 0.468467 -0.00098614 0 0 0 0)
(-0.000107996 -0.000143661 0 0.486229 -9.9419e-05 0 0 0 0)
(-0.00076138 0.000224931 0 0.482074 0.000610635 0 0 0 0)
(-0.000313481 -7.77337e-05 0 0.488511 -0.000109179 0 0 0 0)
)
;

boundaryField
{
    topWall
    {
        type            extrapolatedCalculated;
        value           nonuniform List<tensor> 0();
    }
    botWall
    {
        type            extrapolatedCalculated;
        value           nonuniform List<tensor> 0();
    }
    inlet
    {
        type            cyclic;
    }
    outlet
    {
        type            cyclic;
    }
    fixWall
    {
        type            empty;
    }
    procBoundary2to1
    {
        type            processor;
        value           nonuniform List<tensor> 8((-0.000455032 -1.09485e-05 0 0.0325925 0.000336946 0 0 0 0) (-0.000473085 -0.000105685 0 0.0419902 0.000373526 0 0 0 0) (0.000795077 -0.00030759 0 0.0499818 -0.000774878 0 0 0 0) (0.00159062 0.000296558 0 0.0427131 -0.00160903 0 0 0 0) (-0.000254074 0.00012313 0 0.0434574 0.000417009 0 0 0 0) (-0.000141988 -0.00019806 0 0.0401678 9.43236e-05 0 0 0 0) (-8.59714e-05 0.000195409 0 0.0321713 0.000190205 0 0 0 0) (-0.000975543 7.18709e-06 0 0.0331509 0.000976254 0 0 0 0));
    }
    procBoundary2to3
    {
        type            processor;
        value           nonuniform List<tensor> 8((0.000570626 -9.58683e-05 0 0.582934 -0.000187259 0 0 0 0) (0.000228087 -0.000143507 0 0.583041 -0.000534678 0 0 0 0) (-2.26244e-05 -0.0004734 0 0.599238 2.83177e-05 0 0 0 0) (7.1196e-06 0.000367762 0 0.576264 0.000917185 0 0 0 0) (0.000192199 0.000336452 0 0.564559 0.000506477 0 0 0 0) (1.85658e-05 -0.000134705 0 0.582977 0.000483565 0 0 0 0) (-0.000740201 0.000232816 0 0.578732 0.00112507 0 0 0 0) (-0.000253772 -8.95506e-05 0 0.583359 0.0011918 0 0 0 0));
    }
}


// ************************************************************************* //
