/*--------------------------------*- C++ -*----------------------------------*\
  =========                 |
  \\      /  F ield         | OpenFOAM: The Open Source CFD Toolbox
   \\    /   O peration     | Website:  https://openfoam.org
    \\  /    A nd           | Version:  dev
     \\/     M anipulation  |

   OpenFOAM for Windows 20.09 (v1)
   Built by CFD Support, www.cfdsupport.com (based on Symscape).
\*---------------------------------------------------------------------------*/
FoamFile
{
    version     2.0;
    format      ascii;
    class       volVectorField;
    location    "6";
    object      gradp;
}
// * * * * * * * * * * * * * * * * * * * * * * * * * * * * * * * * * * * * * //

dimensions      [1 -2 -2 0 0 0 0];

internalField   nonuniform List<vector> 
120
(
(3.74997 -99.0203 0)
(-1.29136 -98.4193 0)
(-1.27749 -98.3783 0)
(-1.25994 -98.8765 0)
(3.74988 -98.2563 0)
(-1.29021 -98.1961 0)
(-1.29128 -98.117 0)
(-1.25966 -98.9612 0)
(3.74981 -98.2507 0)
(-1.28904 -98.1977 0)
(-1.29024 -98.1114 0)
(-1.2594 -98.0666 0)
(3.74956 -98.2562 0)
(-1.28789 -98.2051 0)
(-1.28909 -98.1097 0)
(-1.25919 -98.0758 0)
(3.74945 -98.259 0)
(-1.2866 -98.2055 0)
(-1.28808 -98.1116 0)
(-1.25895 -98.0819 0)
(3.74937 -98.2515 0)
(-1.28543 -98.1994 0)
(-1.28703 -98.1119 0)
(-1.25871 -98.0724 0)
(3.74929 -98.2502 0)
(-1.28427 -98.1994 0)
(-1.28597 -98.1092 0)
(-1.25847 -98.0721 0)
(3.7492 -98.2488 0)
(-1.28308 -98.1978 0)
(-1.28491 -98.1129 0)
(-1.25825 -98.0746 0)
(3.74914 -98.2433 0)
(-1.28201 -98.1982 0)
(-1.28391 -98.1168 0)
(-1.258 -98.0763 0)
(3.74896 -98.2502 0)
(-1.28097 -98.2001 0)
(-1.28288 -98.1142 0)
(-1.25774 -98.0763 0)
(3.74896 -98.253 0)
(-1.27974 -98.1984 0)
(-1.28185 -98.1021 0)
(-1.25749 -98.0706 0)
(3.74889 -98.2446 0)
(-1.27846 -98.196 0)
(-1.28075 -98.1022 0)
(-1.25741 -98.0738 0)
(3.74889 -98.2442 0)
(-1.27737 -98.1955 0)
(-1.27981 -98.1138 0)
(-1.25718 -98.0797 0)
(3.74846 -97.5416 0)
(-1.27628 -97.2644 0)
(-1.27882 -98.1145 0)
(-1.25694 -98.0769 0)
(3.76073 -98.5456 0)
(-1.28691 -97.8483 0)
(-1.29336 -97.568 0)
(-1.2567 -97.5535 0)
(-1.24604 -98.6303 0)
(-1.23181 -98.6752 0)
(-1.22645 -98.5492 0)
(3.78311 -98.8652 0)
(-1.24542 -98.0844 0)
(-1.23221 -98.9384 0)
(-1.21319 -98.1347 0)
(3.78208 -98.1863 0)
(-1.24566 -98.0827 0)
(-1.23265 -98.1022 0)
(-1.21391 -98.1292 0)
(3.78108 -98.1782 0)
(-1.24601 -98.083 0)
(-1.23299 -98.1058 0)
(-1.21445 -98.1362 0)
(3.78006 -98.1835 0)
(-1.24616 -98.0833 0)
(-1.23353 -98.1077 0)
(-1.21521 -98.1431 0)
(3.77908 -98.1945 0)
(-1.24644 -98.0831 0)
(-1.23398 -98.1074 0)
(-1.2159 -98.137 0)
(3.77812 -98.1898 0)
(-1.24674 -98.0812 0)
(-1.23443 -98.1077 0)
(-1.21658 -98.1372 0)
(3.77718 -98.1894 0)
(-1.24703 -98.0842 0)
(-1.23491 -98.1081 0)
(-1.21726 -98.1374 0)
(3.77624 -98.1891 0)
(-1.2473 -98.0865 0)
(-1.23532 -98.1063 0)
(-1.21793 -98.1336 0)
(3.77532 -98.1836 0)
(-1.24753 -98.0837 0)
(-1.2357 -98.107 0)
(-1.21855 -98.1367 0)
(3.77441 -98.189 0)
(-1.24781 -98.0825 0)
(-1.2362 -98.1087 0)
(-1.2193 -98.1413 0)
(3.77343 -98.1944 0)
(-1.24817 -98.084 0)
(-1.23668 -98.1088 0)
(-1.21997 -98.1399 0)
(3.77255 -98.1919 0)
(-1.24839 -98.0853 0)
(-1.23714 -98.1051 0)
(-1.22068 -98.1289 0)
(3.77169 -98.1692 0)
(-1.24859 -98.0854 0)
(-1.23741 -97.6979 0)
(-1.22104 -97.9723 0)
(3.77063 -97.975 0)
(-1.24208 -97.4203 0)
(-1.23525 -97.7664 0)
(-1.2253 -97.6067 0)
(3.77886 -97.2876 0)
)
;

boundaryField
{
    topWall
    {
        type            extrapolatedCalculated;
        value           nonuniform List<vector> 0();
    }
    botWall
    {
        type            extrapolatedCalculated;
        value           nonuniform List<vector> 0();
    }
    inlet
    {
        type            cyclic;
    }
    outlet
    {
        type            cyclic;
    }
    fixWall
    {
        type            empty;
    }
    procBoundary2to1
    {
        type            processor;
        value           nonuniform List<vector> 8((3.74245 -97.5472 0) (-1.30091 -96.5669 0) (-1.28366 -97.0548 0) (-1.25546 -97.9462 0) (-1.24877 -97.9648 0) (-1.23356 -97.8372 0) (-1.21002 -97.5682 0) (3.78993 -97.994 0));
    }
    procBoundary2to3
    {
        type            processor;
        value           nonuniform List<vector> 8((3.73911 -99.5403 0) (-1.25999 -98.7922 0) (-1.27391 -98.2252 0) (-1.25448 -98.7937 0) (-1.25214 -98.3612 0) (-1.24052 -98.1777 0) (-1.21306 -97.9839 0) (3.75498 -97.9933 0));
    }
}


// ************************************************************************* //
