/*--------------------------------*- C++ -*----------------------------------*\
  =========                 |
  \\      /  F ield         | OpenFOAM: The Open Source CFD Toolbox
   \\    /   O peration     | Website:  https://openfoam.org
    \\  /    A nd           | Version:  dev
     \\/     M anipulation  |

   OpenFOAM for Windows 20.09 (v1)
   Built by CFD Support, www.cfdsupport.com (based on Symscape).
\*---------------------------------------------------------------------------*/
FoamFile
{
    version     2.0;
    format      ascii;
    class       volVectorField;
    location    "6";
    object      gradp_rgh;
}
// * * * * * * * * * * * * * * * * * * * * * * * * * * * * * * * * * * * * * //

dimensions      [1 -2 -2 0 0 0 0];

internalField   nonuniform List<vector> 
120
(
(-1.24939 -0.95818 0)
(-1.2912 -0.366948 0)
(-1.27778 -0.312885 0)
(-1.26048 -0.798429 0)
(-1.25013 -0.175461 0)
(-1.29021 -0.139501 0)
(-1.29128 -0.0456448 0)
(-1.25966 -0.886326 0)
(-1.2502 -0.151205 0)
(-1.28904 -0.0979801 0)
(-1.29023 -0.0113419 0)
(-1.2594 0.0331519 0)
(-1.25044 -0.156089 0)
(-1.28788 -0.104926 0)
(-1.28909 -0.00950562 0)
(-1.25918 0.0243593 0)
(-1.25055 -0.158588 0)
(-1.28659 -0.105038 0)
(-1.28808 -0.0111721 0)
(-1.25895 0.0186224 0)
(-1.25062 -0.151 0)
(-1.28542 -0.0989112 0)
(-1.28703 -0.0115274 0)
(-1.25871 0.0279011 0)
(-1.25071 -0.149672 0)
(-1.28427 -0.0988988 0)
(-1.28596 -0.00894904 0)
(-1.25847 0.0280297 0)
(-1.25079 -0.148317 0)
(-1.28308 -0.0974442 0)
(-1.28491 -0.0128047 0)
(-1.25825 0.0252338 0)
(-1.25086 -0.142966 0)
(-1.28201 -0.0980921 0)
(-1.28392 -0.0170061 0)
(-1.25799 0.0233236 0)
(-1.25104 -0.150257 0)
(-1.28098 -0.100417 0)
(-1.28289 -0.0146844 0)
(-1.25774 0.0231807 0)
(-1.25105 -0.153473 0)
(-1.27975 -0.0991622 0)
(-1.28186 -0.00293827 0)
(-1.25748 0.028868 0)
(-1.25111 -0.145737 0)
(-1.27847 -0.096817 0)
(-1.28076 -0.00259026 0)
(-1.2574 0.0261302 0)
(-1.25112 -0.146586 0)
(-1.27737 -0.0959058 0)
(-1.27981 -0.0126338 0)
(-1.25717 0.0216124 0)
(-1.25153 0.529536 0)
(-1.27624 0.799211 0)
(-1.2788 -0.0099224 0)
(-1.25695 0.0514366 0)
(-1.23974 -0.433556 0)
(-1.28636 0.23742 0)
(-1.29227 0.557582 0)
(-1.25658 0.595297 0)
(-1.24609 -0.512498 0)
(-1.2315 -0.589972 0)
(-1.22673 -0.474213 0)
(-1.21682 -0.787353 0)
(-1.24542 0.0196339 0)
(-1.23221 -0.86088 0)
(-1.21318 -0.0496351 0)
(-1.21791 -0.0914184 0)
(-1.24566 0.0172793 0)
(-1.23265 -0.00232948 0)
(-1.21391 -0.0295367 0)
(-1.21892 -0.078962 0)
(-1.24601 0.0172182 0)
(-1.23299 -0.00559279 0)
(-1.21446 -0.0362305 0)
(-1.21994 -0.0837172 0)
(-1.24616 0.017162 0)
(-1.23354 -0.00733424 0)
(-1.21521 -0.0427122 0)
(-1.22091 -0.0941875 0)
(-1.24644 0.0172308 0)
(-1.23399 -0.00713757 0)
(-1.2159 -0.0366891 0)
(-1.22187 -0.089377 0)
(-1.24675 0.018955 0)
(-1.23444 -0.00744671 0)
(-1.21658 -0.0368121 0)
(-1.22282 -0.0888025 0)
(-1.24703 0.0157748 0)
(-1.23492 -0.00794927 0)
(-1.21726 -0.0370946 0)
(-1.22375 -0.0885262 0)
(-1.2473 0.0134489 0)
(-1.23532 -0.00624198 0)
(-1.21793 -0.0332902 0)
(-1.22467 -0.083151 0)
(-1.24753 0.0160569 0)
(-1.2357 -0.00694143 0)
(-1.21854 -0.036631 0)
(-1.22558 -0.0889265 0)
(-1.2478 0.0171861 0)
(-1.2362 -0.00876453 0)
(-1.21929 -0.0413706 0)
(-1.22657 -0.0947673 0)
(-1.24815 0.0158856 0)
(-1.23667 -0.00863735 0)
(-1.21997 -0.0400029 0)
(-1.22745 -0.0927128 0)
(-1.24838 0.0147601 0)
(-1.23713 -0.00523637 0)
(-1.22069 -0.0294607 0)
(-1.22833 -0.0707437 0)
(-1.2486 0.0258223 0)
(-1.23741 0.418226 0)
(-1.22107 0.121271 0)
(-1.2294 0.11636 0)
(-1.24227 0.717837 0)
(-1.23554 0.347589 0)
(-1.22572 0.502281 0)
(-1.22153 0.833145 0)
)
;

boundaryField
{
    topWall
    {
        type            extrapolatedCalculated;
        value           nonuniform List<vector> 0();
    }
    botWall
    {
        type            extrapolatedCalculated;
        value           nonuniform List<vector> 0();
    }
    inlet
    {
        type            cyclic;
    }
    outlet
    {
        type            cyclic;
    }
    fixWall
    {
        type            empty;
    }
    procBoundary2to1
    {
        type            processor;
        value           nonuniform List<vector> 8((-1.25713 0.571875 0) (-1.30097 1.57624 0) (-1.28408 1.07366 0) (-1.25633 0.179312 0) (-1.24889 0.131807 0) (-1.23285 0.285445 0) (-1.20989 0.546849 0) (-1.20985 0.110963 0));
    }
    procBoundary2to3
    {
        type            processor;
        value           nonuniform List<vector> 8((-1.26146 -1.41267 0) (-1.25972 -0.655598 0) (-1.27283 -0.129133 0) (-1.25428 -0.721362 0) (-1.25273 -0.271768 0) (-1.241 -0.0938052 0) (-1.21297 0.121901 0) (-1.245 0.114545 0));
    }
}


// ************************************************************************* //
