/*--------------------------------*- C++ -*----------------------------------*\
  =========                 |
  \\      /  F ield         | OpenFOAM: The Open Source CFD Toolbox
   \\    /   O peration     | Website:  https://openfoam.org
    \\  /    A nd           | Version:  dev
     \\/     M anipulation  |

   OpenFOAM for Windows 20.09 (v1)
   Built by CFD Support, www.cfdsupport.com (based on Symscape).
\*---------------------------------------------------------------------------*/
FoamFile
{
    version     2.0;
    format      ascii;
    class       volScalarField;
    location    "6";
    object      k;
}
// * * * * * * * * * * * * * * * * * * * * * * * * * * * * * * * * * * * * * //

dimensions      [0 2 -2 0 0 0 0];

internalField   nonuniform List<scalar> 
120
(
2.22045e-16
2.22045e-16
2.22045e-16
2.22045e-16
2.22045e-16
2.22045e-16
2.22045e-16
2.22045e-16
2.22045e-16
2.22045e-16
2.22045e-16
2.22045e-16
2.22045e-16
2.22045e-16
2.22045e-16
2.22045e-16
2.22045e-16
2.22045e-16
2.22045e-16
2.22045e-16
2.22045e-16
2.22045e-16
2.22045e-16
2.22045e-16
2.22045e-16
2.22045e-16
2.22045e-16
2.22045e-16
2.22045e-16
2.22045e-16
2.22045e-16
2.22045e-16
2.22045e-16
2.22045e-16
2.22045e-16
2.22045e-16
2.25838e-16
2.25737e-16
2.2586e-16
2.26095e-16
2.36012e-16
2.35891e-16
2.36036e-16
2.36316e-16
2.47842e-16
2.477e-16
2.47867e-16
2.48195e-16
2.61431e-16
2.61265e-16
2.61455e-16
2.61833e-16
2.76897e-16
2.76706e-16
2.76918e-16
2.77351e-16
2.94377e-16
2.94158e-16
2.94393e-16
2.94886e-16
2.22045e-16
2.22045e-16
2.22045e-16
2.22045e-16
2.22045e-16
2.22045e-16
2.22045e-16
2.22045e-16
2.22045e-16
2.22045e-16
2.22045e-16
2.22045e-16
2.22045e-16
2.22045e-16
2.22045e-16
2.22045e-16
2.22045e-16
2.22045e-16
2.22045e-16
2.22045e-16
2.22045e-16
2.22045e-16
2.22045e-16
2.22045e-16
2.22045e-16
2.22045e-16
2.22045e-16
2.22045e-16
2.22045e-16
2.22045e-16
2.22045e-16
2.22045e-16
2.22045e-16
2.22045e-16
2.22045e-16
2.22045e-16
2.2593e-16
2.25886e-16
2.25869e-16
2.25828e-16
2.36125e-16
2.36068e-16
2.36049e-16
2.36002e-16
2.47977e-16
2.47906e-16
2.47883e-16
2.47832e-16
2.61589e-16
2.61502e-16
2.61475e-16
2.6142e-16
2.77079e-16
2.76976e-16
2.76944e-16
2.76885e-16
2.94586e-16
2.94464e-16
2.94427e-16
2.94365e-16
)
;

boundaryField
{
    topWall
    {
        type            kqRWallFunction;
        value           nonuniform List<scalar> 0();
    }
    botWall
    {
        type            kqRWallFunction;
        value           nonuniform List<scalar> 0();
    }
    inlet
    {
        type            cyclic;
    }
    outlet
    {
        type            cyclic;
    }
    fixWall
    {
        type            empty;
    }
    procBoundary2to1
    {
        type            processor;
        value           uniform 2.22045e-16;
    }
    procBoundary2to3
    {
        type            processor;
        value           nonuniform List<scalar> 8(3.1403e-16 3.13781e-16 3.14038e-16 3.14596e-16 3.14268e-16 3.14124e-16 3.14082e-16 3.14017e-16);
    }
}


// ************************************************************************* //
