/*--------------------------------*- C++ -*----------------------------------*\
  =========                 |
  \\      /  F ield         | OpenFOAM: The Open Source CFD Toolbox
   \\    /   O peration     | Website:  https://openfoam.org
    \\  /    A nd           | Version:  dev
     \\/     M anipulation  |

   OpenFOAM for Windows 20.09 (v1)
   Built by CFD Support, www.cfdsupport.com (based on Symscape).
\*---------------------------------------------------------------------------*/
FoamFile
{
    version     2.0;
    format      ascii;
    class       volScalarField;
    location    "6";
    object      nut;
}
// * * * * * * * * * * * * * * * * * * * * * * * * * * * * * * * * * * * * * //

dimensions      [0 2 -1 0 0 0 0];

internalField   nonuniform List<scalar> 
120
(
8.9966e-18
8.99858e-18
8.99799e-18
8.99682e-18
9.46497e-18
9.46712e-18
9.46664e-18
9.46543e-18
9.91835e-18
9.92069e-18
9.92033e-18
9.91908e-18
1.03527e-17
1.03553e-17
1.03551e-17
1.03538e-17
1.07641e-17
1.07669e-17
1.07668e-17
1.07655e-17
1.11487e-17
1.11517e-17
1.11519e-17
1.11505e-17
1.15028e-17
1.15061e-17
1.15064e-17
1.1505e-17
1.1823e-17
1.18264e-17
1.1827e-17
1.18256e-17
1.21061e-17
1.21097e-17
1.21106e-17
1.21091e-17
1.25603e-17
1.25586e-17
1.25665e-17
1.25781e-17
1.33396e-17
1.3337e-17
1.33467e-17
1.3361e-17
1.41829e-17
1.41792e-17
1.41907e-17
1.42079e-17
1.50904e-17
1.50855e-17
1.50989e-17
1.51192e-17
1.60614e-17
1.60551e-17
1.60706e-17
1.60942e-17
1.70944e-17
1.70864e-17
1.7104e-17
1.71312e-17
8.99663e-18
8.99799e-18
8.99841e-18
8.99722e-18
9.4652e-18
9.46659e-18
9.46698e-18
9.46575e-18
9.91881e-18
9.92022e-18
9.92058e-18
9.91931e-18
1.03535e-17
1.03549e-17
1.03552e-17
1.03539e-17
1.07652e-17
1.07666e-17
1.07669e-17
1.07656e-17
1.11502e-17
1.11515e-17
1.11517e-17
1.11505e-17
1.15047e-17
1.15059e-17
1.15061e-17
1.15049e-17
1.18253e-17
1.18264e-17
1.18265e-17
1.18254e-17
1.21089e-17
1.21098e-17
1.21099e-17
1.21088e-17
1.25688e-17
1.25671e-17
1.25661e-17
1.25629e-17
1.33501e-17
1.33475e-17
1.33462e-17
1.33427e-17
1.41954e-17
1.41918e-17
1.41902e-17
1.41866e-17
1.51051e-17
1.51003e-17
1.50983e-17
1.50946e-17
1.60785e-17
1.60724e-17
1.60699e-17
1.60662e-17
1.71139e-17
1.71064e-17
1.71034e-17
1.70998e-17
)
;

boundaryField
{
    topWall
    {
        type            nutkWallFunction;
        Cmu             0.09;
        kappa           0.41;
        E               9.8;
        value           nonuniform List<scalar> 0();
    }
    botWall
    {
        type            nutkWallFunction;
        Cmu             0.09;
        kappa           0.41;
        E               9.8;
        value           nonuniform List<scalar> 0();
    }
    inlet
    {
        type            cyclic;
    }
    outlet
    {
        type            cyclic;
    }
    fixWall
    {
        type            empty;
    }
    procBoundary2to1
    {
        type            processor;
        value           nonuniform List<scalar> 8(8.5223e-18 8.52409e-18 8.52348e-18 8.52234e-18 8.52215e-18 8.52349e-18 8.52392e-18 8.5228e-18);
    }
    procBoundary2to3
    {
        type            processor;
        value           nonuniform List<scalar> 8(1.8231e-17 1.82207e-17 1.82404e-17 1.82714e-17 1.82527e-17 1.82438e-17 1.82399e-17 1.82367e-17);
    }
}


// ************************************************************************* //
