/*--------------------------------*- C++ -*----------------------------------*\
  =========                 |
  \\      /  F ield         | OpenFOAM: The Open Source CFD Toolbox
   \\    /   O peration     | Website:  https://openfoam.org
    \\  /    A nd           | Version:  dev
     \\/     M anipulation  |

   OpenFOAM for Windows 20.09 (v1)
   Built by CFD Support, www.cfdsupport.com (based on Symscape).
\*---------------------------------------------------------------------------*/
FoamFile
{
    version     2.0;
    format      ascii;
    class       volScalarField;
    location    "6";
    object      omega;
}
// * * * * * * * * * * * * * * * * * * * * * * * * * * * * * * * * * * * * * //

dimensions      [0 0 -1 0 0 0 0];

internalField   nonuniform List<scalar> 
120
(
24.6809
24.6755
24.6771
24.6803
23.4596
23.4543
23.4555
23.4585
22.3873
22.382
22.3828
22.3856
21.448
21.4427
21.4431
21.4458
20.6282
20.6229
20.623
20.6256
19.9166
19.9112
19.911
19.9135
19.3035
19.2981
19.2975
19.2999
18.7808
18.7753
18.7744
18.7767
18.3416
18.336
18.3348
18.337
17.9803
17.9748
17.9732
17.9753
17.6926
17.687
17.685
17.687
17.4747
17.4692
17.4668
17.4687
17.3243
17.319
17.3161
17.3179
17.2398
17.2347
17.2314
17.233
17.2206
17.2159
17.212
17.2134
24.6809
24.6771
24.676
24.6792
23.4591
23.4556
23.4546
23.4577
22.3862
22.383
22.3822
22.3851
21.4464
21.4435
21.4428
21.4455
20.6261
20.6235
20.623
20.6254
19.914
19.9117
19.9113
19.9135
19.3004
19.2983
19.298
19.3001
18.7771
18.7753
18.7752
18.777
18.3373
18.3359
18.3359
18.3374
17.9755
17.9744
17.9745
17.9758
17.6872
17.6864
17.6866
17.6877
17.4688
17.4683
17.4687
17.4695
17.3179
17.3177
17.3182
17.3188
17.2329
17.233
17.2337
17.234
17.2132
17.2137
17.2145
17.2146
)
;

boundaryField
{
    topWall
    {
        beta1           0.075;
        blended         0;
        type            omegaWallFunction;
        value           nonuniform List<scalar> 0();
    }
    botWall
    {
        beta1           0.075;
        blended         0;
        type            omegaWallFunction;
        value           nonuniform List<scalar> 0();
    }
    inlet
    {
        type            cyclic;
    }
    outlet
    {
        type            cyclic;
    }
    fixWall
    {
        type            empty;
    }
    procBoundary2to1
    {
        type            processor;
        value           nonuniform List<scalar> 8(26.0546 26.0491 26.0509 26.0544 26.055 26.0509 26.0496 26.053);
    }
    procBoundary2to3
    {
        type            processor;
        value           nonuniform List<scalar> 8(17.225 17.2211 17.2166 17.218 17.2176 17.2181 17.2194 17.219);
    }
}


// ************************************************************************* //
