/*--------------------------------*- C++ -*----------------------------------*\
  =========                 |
  \\      /  F ield         | OpenFOAM: The Open Source CFD Toolbox
   \\    /   O peration     | Website:  https://openfoam.org
    \\  /    A nd           | Version:  dev
     \\/     M anipulation  |

   OpenFOAM for Windows 20.09 (v1)
   Built by CFD Support, www.cfdsupport.com (based on Symscape).
\*---------------------------------------------------------------------------*/
FoamFile
{
    version     2.0;
    format      ascii;
    class       volScalarField;
    location    "6";
    object      p;
}
// * * * * * * * * * * * * * * * * * * * * * * * * * * * * * * * * * * * * * //

dimensions      [1 -1 -2 0 0 0 0];

internalField   nonuniform List<scalar> 
120
(
-2.4727
-2.53675
-2.60184
-2.6645
-2.55458
-2.61858
-2.6836
-2.74771
-2.63646
-2.70041
-2.76537
-2.82943
-2.71834
-2.78224
-2.84712
-2.91115
-2.80022
-2.86409
-2.92888
-2.99289
-2.8821
-2.94592
-3.01064
-3.07462
-2.96398
-3.02775
-3.0924
-3.15635
-3.04585
-3.10958
-3.17416
-3.23808
-3.12772
-3.19141
-3.25592
-3.31981
-3.20959
-3.27325
-3.33769
-3.40154
-3.29147
-3.35508
-3.41945
-3.48327
-3.37334
-3.43691
-3.50119
-3.56499
-3.45522
-3.51874
-3.58295
-3.64672
-3.53708
-3.60057
-3.66471
-3.72845
-3.61778
-3.68085
-3.74648
-3.81018
-2.72783
-2.7891
-2.85101
-2.91175
-2.80957
-2.87225
-2.93279
-2.99357
-2.89131
-2.954
-3.01457
-3.07539
-2.97304
-3.03575
-3.09634
-3.1572
-3.05478
-3.11751
-3.17813
-3.23903
-3.13651
-3.19927
-3.25991
-3.32086
-3.21825
-3.28102
-3.34169
-3.40268
-3.29998
-3.36278
-3.42347
-3.4845
-3.38172
-3.44454
-3.50526
-3.56633
-3.46346
-3.52629
-3.58703
-3.64814
-3.5452
-3.60805
-3.66882
-3.72998
-3.62693
-3.6898
-3.7506
-3.8118
-3.70867
-3.77156
-3.83238
-3.89363
-3.79041
-3.85331
-3.91415
-3.97542
-3.87215
-3.93439
-3.99567
-4.05692
)
;

boundaryField
{
    topWall
    {
        type            calculated;
        value           nonuniform List<scalar> 0();
    }
    botWall
    {
        type            calculated;
        value           nonuniform List<scalar> 0();
    }
    inlet
    {
        type            cyclic;
    }
    outlet
    {
        type            cyclic;
    }
    fixWall
    {
        type            empty;
    }
    procBoundary2to1
    {
        type            processor;
        value           nonuniform List<scalar> 8(-2.38955 -2.45455 -2.51964 -2.58291 -2.64519 -2.70779 -2.76854 -2.82879);
    }
    procBoundary2to3
    {
        type            processor;
        value           nonuniform List<scalar> 8(-3.70133 -3.76365 -3.82733 -3.89104 -3.95277 -4.01626 -4.07683 -4.13756);
    }
}


// ************************************************************************* //
