/*--------------------------------*- C++ -*----------------------------------*\
  =========                 |
  \\      /  F ield         | OpenFOAM: The Open Source CFD Toolbox
   \\    /   O peration     | Website:  https://openfoam.org
    \\  /    A nd           | Version:  dev
     \\/     M anipulation  |

   OpenFOAM for Windows 20.09 (v1)
   Built by CFD Support, www.cfdsupport.com (based on Symscape).
\*---------------------------------------------------------------------------*/
FoamFile
{
    version     2.0;
    format      ascii;
    class       volScalarField;
    location    "6";
    object      p_rgh;
}
// * * * * * * * * * * * * * * * * * * * * * * * * * * * * * * * * * * * * * //

dimensions      [1 -1 -2 0 0 0 0];

internalField   nonuniform List<scalar> 
120
(
0.0207046
-0.0433031
-0.108416
-0.171082
0.0205419
-0.0434546
-0.108479
-0.172582
0.0204122
-0.0435356
-0.108492
-0.172559
0.0202899
-0.0436179
-0.108498
-0.172527
0.020152
-0.0437105
-0.108507
-0.172518
0.0200256
-0.0437929
-0.108517
-0.172496
0.0199003
-0.0438754
-0.108527
-0.172472
0.0197761
-0.0439577
-0.108532
-0.172449
0.0196531
-0.0440378
-0.108548
-0.17243
0.0195379
-0.0441212
-0.10856
-0.17241
0.0194027
-0.0442051
-0.108572
-0.172391
0.0192821
-0.0442865
-0.108565
-0.172362
0.0191598
-0.0443665
-0.108577
-0.172347
0.0190378
-0.0444463
-0.108586
-0.172326
0.0200424
-0.0430345
-0.108593
-0.172262
-0.234464
-0.29569
-0.357613
-0.418364
-0.234446
-0.297124
-0.357667
-0.418442
-0.234431
-0.297125
-0.357696
-0.418516
-0.234417
-0.297128
-0.357716
-0.418573
-0.234402
-0.297134
-0.357757
-0.418656
-0.234388
-0.29714
-0.357787
-0.41873
-0.234374
-0.297146
-0.357818
-0.418805
-0.234357
-0.297153
-0.357848
-0.418878
-0.234347
-0.297159
-0.357879
-0.418952
-0.234334
-0.297163
-0.357904
-0.419017
-0.234321
-0.297171
-0.357941
-0.4191
-0.234305
-0.297178
-0.357973
-0.419175
-0.234294
-0.297185
-0.358007
-0.419255
-0.234281
-0.297186
-0.358022
-0.419293
-0.234251
-0.296488
-0.357805
-0.419061
)
;

boundaryField
{
    topWall
    {
        type            zeroGradient;
    }
    botWall
    {
        type            zeroGradient;
    }
    inlet
    {
        type            fixedJump;
        patchType       cyclic;
        jump            uniform -0.5;
        value           nonuniform List<scalar> 
15
(
0.0504907
0.0498724
0.0499525
0.0500535
0.0501512
0.0502604
0.0503505
0.0504488
0.0505479
0.0506476
0.0507482
0.0508582
0.050948
0.05105
0.0511704
)
;
    }
    outlet
    {
        type            fixedJump;
        patchType       cyclic;
        value           nonuniform List<scalar> 
15
(
-0.449509
-0.450128
-0.450048
-0.449946
-0.449849
-0.44974
-0.449649
-0.449551
-0.449452
-0.449352
-0.449252
-0.449142
-0.449052
-0.44895
-0.44883
)
;
    }
    fixWall
    {
        type            empty;
    }
    procBoundary2to1
    {
        type            processor;
        value           nonuniform List<scalar> 8(0.0221389 -0.042843 -0.107958 -0.171251 -0.233591 -0.296141 -0.356876 -0.41713);
    }
    procBoundary2to3
    {
        type            processor;
        value           nonuniform List<scalar> 8(0.0183152 -0.0440507 -0.107657 -0.171334 -0.233084 -0.296607 -0.357185 -0.417904);
    }
}


// ************************************************************************* //
