/*--------------------------------*- C++ -*----------------------------------*\
  =========                 |
  \\      /  F ield         | OpenFOAM: The Open Source CFD Toolbox
   \\    /   O peration     | Website:  https://openfoam.org
    \\  /    A nd           | Version:  dev
     \\/     M anipulation  |

   OpenFOAM for Windows 20.09 (v1)
   Built by CFD Support, www.cfdsupport.com (based on Symscape).
\*---------------------------------------------------------------------------*/
FoamFile
{
    version     2.0;
    format      ascii;
    class       surfaceScalarField;
    location    "6";
    object      phi;
}
// * * * * * * * * * * * * * * * * * * * * * * * * * * * * * * * * * * * * * //

dimensions      [0 3 -1 0 0 0 0];

internalField   nonuniform List<scalar> 
217
(
2.62305e-08
-6.16362e-11
2.62211e-08
6.0397e-10
2.62499e-08
-6.53126e-10
-1.04771e-09
2.63125e-08
2.62566e-08
-5.4315e-11
2.62526e-08
6.07958e-10
2.62847e-08
-6.85248e-10
-1.10376e-09
2.63408e-08
2.62871e-08
-5.0896e-11
2.62866e-08
6.08452e-10
2.63191e-08
-7.17742e-10
-1.15866e-09
2.6374e-08
2.63228e-08
-5.11114e-11
2.63231e-08
6.08193e-10
2.63541e-08
-7.48774e-10
-1.21289e-09
2.64084e-08
2.63659e-08
-5.44776e-11
2.63654e-08
6.08715e-10
2.63952e-08
-7.78647e-10
-1.26738e-09
2.64497e-08
2.64177e-08
-6.06251e-11
2.64155e-08
6.10974e-10
2.64434e-08
-8.06513e-10
-1.32168e-09
2.64977e-08
2.64813e-08
-6.93301e-11
2.64768e-08
6.1545e-10
2.65026e-08
-8.32342e-10
-1.37609e-09
2.6557e-08
2.6559e-08
-8.04234e-11
2.65524e-08
6.22064e-10
2.65758e-08
-8.55769e-10
-1.42964e-09
2.66293e-08
2.66545e-08
-9.39314e-11
2.66462e-08
6.30372e-10
2.6667e-08
-8.76626e-10
-1.48195e-09
2.67193e-08
2.67717e-08
-1.09843e-10
2.67623e-08
6.39784e-10
2.67803e-08
-8.94587e-10
-1.53168e-09
2.683e-08
2.69152e-08
-1.28236e-10
2.69057e-08
6.49329e-10
2.69206e-08
-9.09502e-10
-1.57785e-09
2.69667e-08
2.70903e-08
-1.49127e-10
2.70817e-08
6.57988e-10
2.70934e-08
-9.21178e-10
-1.61838e-09
2.71339e-08
2.73031e-08
-1.72212e-10
2.72968e-08
6.6432e-10
2.7305e-08
-9.29451e-10
-1.65179e-09
2.73384e-08
2.75605e-08
-1.97072e-10
2.75576e-08
6.6716e-10
2.75626e-08
-9.34405e-10
-1.67551e-09
2.75863e-08
2.78706e-08
2.78719e-08
2.78743e-08
2.78864e-08
2.63064e-08
8.89668e-10
2.62941e-08
-3.26207e-10
2.62861e-08
-1.04696e-10
7.00714e-10
2.63345e-08
8.95949e-10
2.63172e-08
-3.08917e-10
2.63083e-08
-9.5744e-11
7.45069e-10
2.63661e-08
9.03841e-10
2.63452e-08
-2.88018e-10
2.63335e-08
-8.40529e-11
7.88078e-10
2.64004e-08
9.1177e-10
2.63776e-08
-2.65159e-10
2.63637e-08
-7.0127e-11
8.2912e-10
2.64419e-08
9.19576e-10
2.64173e-08
-2.40509e-10
2.64011e-08
-5.39585e-11
8.67725e-10
2.64906e-08
9.26673e-10
2.64654e-08
-2.15319e-10
2.64477e-08
-3.62377e-11
9.0379e-10
2.65511e-08
9.32587e-10
2.65255e-08
-1.89732e-10
2.6506e-08
-1.6715e-11
9.37238e-10
2.66248e-08
9.37109e-10
2.65997e-08
-1.64626e-10
2.65787e-08
4.25838e-12
9.68088e-10
2.67168e-08
9.39648e-10
2.66923e-08
-1.40125e-10
2.66694e-08
2.71123e-11
9.96551e-10
2.68295e-08
9.40146e-10
2.68063e-08
-1.16972e-10
2.67818e-08
5.16725e-11
1.02251e-09
2.69688e-08
9.38102e-10
2.69472e-08
-9.54027e-11
2.69207e-08
7.81433e-11
1.04644e-09
2.71385e-08
9.33493e-10
2.71192e-08
-7.61161e-11
2.7091e-08
1.06406e-10
1.06794e-09
2.73457e-08
9.26286e-10
2.73294e-08
-5.98213e-11
2.72997e-08
1.3611e-10
1.08758e-09
2.75956e-08
9.16998e-10
2.75826e-08
-4.68468e-11
2.75524e-08
1.66351e-10
1.10434e-09
2.78965e-08
2.78877e-08
2.78586e-08
)
;

boundaryField
{
    topWall
    {
        type            calculated;
        value           nonuniform List<scalar> 0();
    }
    botWall
    {
        type            calculated;
        value           nonuniform List<scalar> 0();
    }
    inlet
    {
        type            cyclic;
        value           nonuniform List<scalar> 
15
(
-2.7844e-08
-2.75356e-08
-2.728e-08
-2.70695e-08
-2.68968e-08
-2.67558e-08
-2.6641e-08
-2.65479e-08
-2.64726e-08
-2.64116e-08
-2.63625e-08
-2.63226e-08
-2.62905e-08
-2.62639e-08
-2.62418e-08
)
;
    }
    outlet
    {
        type            cyclic;
        value           nonuniform List<scalar> 
15
(
2.7844e-08
2.75356e-08
2.728e-08
2.70695e-08
2.68968e-08
2.67558e-08
2.6641e-08
2.65479e-08
2.64726e-08
2.64116e-08
2.63625e-08
2.63226e-08
2.62905e-08
2.62639e-08
2.62418e-08
)
;
    }
    fixWall
    {
        type            empty;
        value           nonuniform List<scalar> 0();
    }
    procBoundary2to1
    {
        type            processor;
        value           nonuniform List<scalar> 8(7.32529e-11 -5.94355e-10 6.24755e-10 9.85543e-10 -8.83578e-10 3.38616e-10 1.13099e-10 -6.56145e-10);
    }
    procBoundary2to3
    {
        type            processor;
        value           nonuniform List<scalar> 8(-2.2371e-10 6.6497e-10 -9.36396e-10 -1.68784e-09 9.06986e-10 -3.73943e-11 1.96054e-10 1.11865e-09);
    }
}


// ************************************************************************* //
