/*--------------------------------*- C++ -*----------------------------------*\
  =========                 |
  \\      /  F ield         | OpenFOAM: The Open Source CFD Toolbox
   \\    /   O peration     | Website:  https://openfoam.org
    \\  /    A nd           | Version:  dev
     \\/     M anipulation  |

   OpenFOAM for Windows 20.09 (v1)
   Built by CFD Support, www.cfdsupport.com (based on Symscape).
\*---------------------------------------------------------------------------*/
FoamFile
{
    version     2.0;
    format      ascii;
    class       volSymmTensorField;
    location    "6";
    object      R;
}
// * * * * * * * * * * * * * * * * * * * * * * * * * * * * * * * * * * * * * //

dimensions      [0 2 -2 0 0 0 0];

internalField   nonuniform List<symmTensor> 
120
(
(1.48036e-16 -2.64217e-19 -0 1.48024e-16 -0 1.48029e-16)
(1.48034e-16 -3.78763e-19 -0 1.48026e-16 -0 1.48029e-16)
(1.48016e-16 -4.65854e-19 -0 1.48042e-16 -0 1.48031e-16)
(1.48003e-16 -3.75019e-19 -0 1.48056e-16 -0 1.4803e-16)
(1.48034e-16 -3.45008e-19 -0 1.48026e-16 -0 1.48029e-16)
(1.48031e-16 -4.27276e-19 -0 1.48029e-16 -0 1.48029e-16)
(1.48015e-16 -4.79795e-19 -0 1.48044e-16 -0 1.4803e-16)
(1.48003e-16 -4.31512e-19 -0 1.48056e-16 -0 1.4803e-16)
(1.48033e-16 -4.46106e-19 -0 1.48027e-16 -0 1.48029e-16)
(1.48031e-16 -4.99368e-19 -0 1.48028e-16 -0 1.48031e-16)
(1.48014e-16 -5.04301e-19 -0 1.48045e-16 -0 1.4803e-16)
(1.48002e-16 -4.86622e-19 -0 1.48057e-16 -0 1.4803e-16)
(1.48031e-16 -5.73293e-19 -0 1.48029e-16 -0 1.48029e-16)
(1.48031e-16 -6.01079e-19 -0 1.48028e-16 -0 1.48031e-16)
(1.48014e-16 -5.69745e-19 -0 1.48045e-16 -0 1.4803e-16)
(1.48001e-16 -5.64735e-19 -0 1.48058e-16 -0 1.4803e-16)
(1.48029e-16 -7.31821e-19 -0 1.48031e-16 -0 1.48029e-16)
(1.4803e-16 -7.39367e-19 -0 1.48029e-16 -0 1.4803e-16)
(1.48014e-16 -6.89182e-19 -0 1.48046e-16 -0 1.4803e-16)
(1.48e-16 -6.93332e-19 -0 1.48059e-16 -0 1.4803e-16)
(1.48028e-16 -9.28868e-19 -0 1.48032e-16 -0 1.48029e-16)
(1.48031e-16 -9.23338e-19 -0 1.48029e-16 -0 1.4803e-16)
(1.48015e-16 -8.62083e-19 -0 1.48044e-16 -0 1.4803e-16)
(1.48e-16 -8.62252e-19 -0 1.48059e-16 -0 1.4803e-16)
(1.48026e-16 -1.17586e-18 -0 1.48035e-16 -0 1.48029e-16)
(1.48032e-16 -1.16289e-18 -0 1.48028e-16 -0 1.4803e-16)
(1.48015e-16 -1.10053e-18 -0 1.48045e-16 -0 1.48029e-16)
(1.47998e-16 -1.09328e-18 -0 1.48061e-16 -0 1.4803e-16)
(1.48025e-16 -1.48042e-18 -0 1.48034e-16 -0 1.4803e-16)
(1.48034e-16 -1.46808e-18 -0 1.48025e-16 -0 1.4803e-16)
(1.48017e-16 -1.41156e-18 -0 1.48042e-16 -0 1.4803e-16)
(1.47999e-16 -1.38737e-18 -0 1.4806e-16 -0 1.48031e-16)
(1.48022e-16 -1.85878e-18 -0 1.48039e-16 -0 1.48028e-16)
(1.48034e-16 -1.84976e-18 -0 1.48025e-16 -0 1.48029e-16)
(1.48017e-16 -1.80587e-18 -0 1.48044e-16 -0 1.48029e-16)
(1.47997e-16 -1.75894e-18 -0 1.48062e-16 -0 1.4803e-16)
(1.50551e-16 -2.35855e-18 -0 1.50567e-16 -0 1.50559e-16)
(1.50496e-16 -2.35553e-18 -0 1.50488e-16 -0 1.5049e-16)
(1.50562e-16 -2.33318e-18 -0 1.50584e-16 -0 1.50573e-16)
(1.50698e-16 -2.25633e-18 -0 1.50763e-16 -0 1.5073e-16)
(1.57332e-16 -3.05702e-18 -0 1.57351e-16 -0 1.57342e-16)
(1.57269e-16 -3.06108e-18 -0 1.57251e-16 -0 1.57263e-16)
(1.5735e-16 -3.06962e-18 -0 1.57363e-16 -0 1.57359e-16)
(1.57518e-16 -2.9498e-18 -0 1.57565e-16 -0 1.57549e-16)
(1.65213e-16 -3.95254e-18 -0 1.65246e-16 -0 1.65226e-16)
(1.6514e-16 -3.96638e-18 -0 1.65126e-16 -0 1.65134e-16)
(1.65236e-16 -4.01664e-18 -0 1.65254e-16 -0 1.65244e-16)
(1.65429e-16 -3.84225e-18 -0 1.65501e-16 -0 1.65459e-16)
(1.74273e-16 -5.09911e-18 -0 1.743e-16 -0 1.74288e-16)
(1.74182e-16 -5.11426e-18 -0 1.74171e-16 -0 1.74178e-16)
(1.74299e-16 -5.22252e-18 -0 1.74307e-16 -0 1.74305e-16)
(1.74532e-16 -4.98427e-18 -0 1.74577e-16 -0 1.74558e-16)
(1.84579e-16 -6.54576e-18 -0 1.84618e-16 -0 1.84597e-16)
(1.84474e-16 -6.5629e-18 -0 1.84466e-16 -0 1.84472e-16)
(1.84609e-16 -6.74622e-18 -0 1.84614e-16 -0 1.84613e-16)
(1.84885e-16 -6.43322e-18 -0 1.84913e-16 -0 1.84905e-16)
(1.96229e-16 -8.35908e-18 -0 1.96276e-16 -0 1.96249e-16)
(1.96098e-16 -8.36697e-18 -0 1.96118e-16 -0 1.961e-16)
(1.96256e-16 -8.65845e-18 -0 1.96274e-16 -0 1.96257e-16)
(1.96569e-16 -8.25929e-18 -0 1.96623e-16 -0 1.96581e-16)
(1.48034e-16 -3.80538e-19 -0 1.48025e-16 -0 1.4803e-16)
(1.48034e-16 -3.66989e-19 -0 1.48025e-16 -0 1.4803e-16)
(1.48033e-16 -2.869e-19 -0 1.48027e-16 -0 1.48029e-16)
(1.48048e-16 -2.75195e-19 -0 1.48013e-16 -0 1.48029e-16)
(1.48034e-16 -4.20154e-19 -0 1.48026e-16 -0 1.48029e-16)
(1.48036e-16 -3.9083e-19 -0 1.48023e-16 -0 1.4803e-16)
(1.48034e-16 -3.2239e-19 -0 1.48026e-16 -0 1.48029e-16)
(1.48049e-16 -3.16194e-19 -0 1.48011e-16 -0 1.4803e-16)
(1.48035e-16 -4.82192e-19 -0 1.48026e-16 -0 1.48029e-16)
(1.48038e-16 -4.58973e-19 -0 1.4802e-16 -0 1.4803e-16)
(1.48036e-16 -4.03362e-19 -0 1.48024e-16 -0 1.4803e-16)
(1.4805e-16 -3.89544e-19 -0 1.48009e-16 -0 1.4803e-16)
(1.48035e-16 -5.69005e-19 -0 1.48026e-16 -0 1.48028e-16)
(1.4804e-16 -5.61376e-19 -0 1.48019e-16 -0 1.4803e-16)
(1.48037e-16 -5.13326e-19 -0 1.48022e-16 -0 1.4803e-16)
(1.4805e-16 -4.96884e-19 -0 1.48009e-16 -0 1.4803e-16)
(1.48035e-16 -6.96366e-19 -0 1.48025e-16 -0 1.48029e-16)
(1.48041e-16 -7.00689e-19 -0 1.48017e-16 -0 1.48031e-16)
(1.48039e-16 -6.60909e-19 -0 1.48021e-16 -0 1.48029e-16)
(1.48049e-16 -6.43944e-19 -0 1.48009e-16 -0 1.4803e-16)
(1.48035e-16 -8.66111e-19 -0 1.48025e-16 -0 1.48029e-16)
(1.48042e-16 -8.87501e-19 -0 1.48017e-16 -0 1.4803e-16)
(1.4804e-16 -8.51653e-19 -0 1.4802e-16 -0 1.48029e-16)
(1.48048e-16 -8.35083e-19 -0 1.48011e-16 -0 1.4803e-16)
(1.48034e-16 -1.09379e-18 -0 1.48026e-16 -0 1.48029e-16)
(1.48042e-16 -1.13094e-18 -0 1.48016e-16 -0 1.4803e-16)
(1.48041e-16 -1.09534e-18 -0 1.48018e-16 -0 1.48029e-16)
(1.48047e-16 -1.0785e-18 -0 1.48012e-16 -0 1.4803e-16)
(1.48034e-16 -1.38297e-18 -0 1.48025e-16 -0 1.48029e-16)
(1.48043e-16 -1.43876e-18 -0 1.48016e-16 -0 1.48031e-16)
(1.48042e-16 -1.40189e-18 -0 1.48018e-16 -0 1.48029e-16)
(1.48047e-16 -1.38333e-18 -0 1.48011e-16 -0 1.48031e-16)
(1.48032e-16 -1.74675e-18 -0 1.48029e-16 -0 1.48028e-16)
(1.48042e-16 -1.82289e-18 -0 1.48017e-16 -0 1.4803e-16)
(1.48044e-16 -1.7808e-18 -0 1.48016e-16 -0 1.48029e-16)
(1.48045e-16 -1.76204e-18 -0 1.48016e-16 -0 1.48029e-16)
(1.50622e-16 -2.23071e-18 -0 1.50619e-16 -0 1.50619e-16)
(1.50603e-16 -2.33083e-18 -0 1.50578e-16 -0 1.50591e-16)
(1.50595e-16 -2.28347e-18 -0 1.50564e-16 -0 1.50579e-16)
(1.50568e-16 -2.26553e-18 -0 1.50534e-16 -0 1.50553e-16)
(1.5742e-16 -2.90428e-18 -0 1.57411e-16 -0 1.57419e-16)
(1.57393e-16 -3.03658e-18 -0 1.57363e-16 -0 1.57382e-16)
(1.57384e-16 -2.9788e-18 -0 1.57347e-16 -0 1.57366e-16)
(1.57351e-16 -2.96506e-18 -0 1.57316e-16 -0 1.57336e-16)
(1.65313e-16 -3.76849e-18 -0 1.65329e-16 -0 1.65313e-16)
(1.6528e-16 -3.93613e-18 -0 1.65263e-16 -0 1.6527e-16)
(1.65273e-16 -3.87355e-18 -0 1.6524e-16 -0 1.65253e-16)
(1.6523e-16 -3.87011e-18 -0 1.65217e-16 -0 1.65216e-16)
(1.74392e-16 -4.86913e-18 -0 1.74392e-16 -0 1.74394e-16)
(1.74345e-16 -5.07391e-18 -0 1.74324e-16 -0 1.74336e-16)
(1.74339e-16 -5.00416e-18 -0 1.74295e-16 -0 1.74316e-16)
(1.74297e-16 -5.02623e-18 -0 1.74259e-16 -0 1.74284e-16)
(1.84716e-16 -6.26176e-18 -0 1.84723e-16 -0 1.8472e-16)
(1.8466e-16 -6.49851e-18 -0 1.84638e-16 -0 1.84653e-16)
(1.84654e-16 -6.43282e-18 -0 1.84605e-16 -0 1.84629e-16)
(1.84601e-16 -6.49725e-18 -0 1.84581e-16 -0 1.84589e-16)
(1.96376e-16 -8.02294e-18 -0 1.96415e-16 -0 1.96381e-16)
(1.9631e-16 -8.31517e-18 -0 1.9631e-16 -0 1.96307e-16)
(1.96309e-16 -8.24894e-18 -0 1.96262e-16 -0 1.96283e-16)
(1.96249e-16 -8.3521e-18 -0 1.96242e-16 -0 1.96238e-16)
)
;

boundaryField
{
    topWall
    {
        type            kqRWallFunction;
        value           nonuniform List<symmTensor> 0();
    }
    botWall
    {
        type            kqRWallFunction;
        value           nonuniform List<symmTensor> 0();
    }
    inlet
    {
        type            cyclic;
    }
    outlet
    {
        type            cyclic;
    }
    fixWall
    {
        type            empty;
    }
    procBoundary2to1
    {
        type            processor;
        value           nonuniform List<symmTensor> 8((1.48037e-16 -2.7767e-19 -0 1.48023e-16 -0 1.48029e-16) (1.48037e-16 -3.57028e-19 -0 1.48023e-16 -0 1.48029e-16) (1.48016e-16 -4.23398e-19 -0 1.48043e-16 -0 1.4803e-16) (1.48003e-16 -3.66543e-19 -0 1.48057e-16 -0 1.4803e-16) (1.48035e-16 -3.71399e-19 -0 1.48024e-16 -0 1.48031e-16) (1.48032e-16 -3.40681e-19 -0 1.48028e-16 -0 1.48029e-16) (1.48032e-16 -2.75892e-19 -0 1.48027e-16 -0 1.4803e-16) (1.48046e-16 -2.826e-19 -0 1.48013e-16 -0 1.4803e-16));
    }
    procBoundary2to3
    {
        type            processor;
        value           nonuniform List<symmTensor> 8((2.09337e-16 -1.06257e-17 -0 2.09365e-16 -0 2.09358e-16) (2.09175e-16 -1.06208e-17 -0 2.09203e-16 -0 2.09183e-16) (2.09359e-16 -1.09217e-17 -0 2.09358e-16 -0 2.09359e-16) (2.09742e-16 -1.05359e-17 -0 2.09709e-16 -0 2.09742e-16) (2.09513e-16 -1.03109e-17 -0 2.09502e-16 -0 2.0952e-16) (2.09421e-16 -1.06332e-17 -0 2.09404e-16 -0 2.09422e-16) (2.09419e-16 -1.05603e-17 -0 2.09351e-16 -0 2.09392e-16) (2.09365e-16 -1.06369e-17 -0 2.09312e-16 -0 2.09356e-16));
    }
}


// ************************************************************************* //
