/*--------------------------------*- C++ -*----------------------------------*\
  =========                 |
  \\      /  F ield         | OpenFOAM: The Open Source CFD Toolbox
   \\    /   O peration     | Website:  https://openfoam.org
    \\  /    A nd           | Version:  dev
     \\/     M anipulation  |

   OpenFOAM for Windows 20.09 (v1)
   Built by CFD Support, www.cfdsupport.com (based on Symscape).
\*---------------------------------------------------------------------------*/
FoamFile
{
    version     2.0;
    format      ascii;
    class       volVectorField;
    location    "6";
    object      U;
}
// * * * * * * * * * * * * * * * * * * * * * * * * * * * * * * * * * * * * * //

dimensions      [0 1 -1 0 0 0 0];

internalField   nonuniform List<vector> 
120
(
(0.0314705 -1.2829e-06 0)
(0.0314789 1.19498e-05 0)
(0.0314452 -1.28176e-05 0)
(0.0315578 -2.02701e-05 0)
(0.0314975 -1.16035e-06 0)
(0.0315148 1.19428e-05 0)
(0.031488 -1.32649e-05 0)
(0.031593 -2.14317e-05 0)
(0.0315313 -1.06207e-06 0)
(0.0315543 1.19539e-05 0)
(0.0315302 -1.41121e-05 0)
(0.0316332 -2.24944e-05 0)
(0.0315725 -9.92115e-07 0)
(0.031599 1.21554e-05 0)
(0.0315733 -1.45713e-05 0)
(0.0316742 -2.37372e-05 0)
(0.0316236 -1.06331e-06 0)
(0.0316513 1.21775e-05 0)
(0.0316225 -1.53479e-05 0)
(0.0317236 -2.47896e-05 0)
(0.0316859 -1.11838e-06 0)
(0.0317136 1.21975e-05 0)
(0.0316806 -1.58234e-05 0)
(0.031781 -2.59322e-05 0)
(0.0317626 -1.28411e-06 0)
(0.0317895 1.22541e-05 0)
(0.031752 -1.64056e-05 0)
(0.0318519 -2.69298e-05 0)
(0.0318564 -1.52912e-06 0)
(0.0318823 1.23378e-05 0)
(0.0318407 -1.69375e-05 0)
(0.0319388 -2.81359e-05 0)
(0.0319714 -1.60358e-06 0)
(0.0319967 1.25715e-05 0)
(0.0319516 -1.72137e-05 0)
(0.0320468 -2.89909e-05 0)
(0.0321124 -2.26503e-06 0)
(0.0321372 1.26106e-05 0)
(0.0320899 -1.79575e-05 0)
(0.0321803 -3.03848e-05 0)
(0.0322845 -2.13041e-06 0)
(0.0323096 1.27459e-05 0)
(0.0322617 -1.79821e-05 0)
(0.0323452 -3.11713e-05 0)
(0.0324945 -2.78668e-06 0)
(0.03252 1.33131e-05 0)
(0.0324739 -1.82202e-05 0)
(0.0325476 -3.13739e-05 0)
(0.0327491 -3.3309e-06 0)
(0.032776 1.32487e-05 0)
(0.0327342 -1.85928e-05 0)
(0.0327953 -3.36164e-05 0)
(0.0330578 -3.44097e-06 0)
(0.0330853 1.36886e-05 0)
(0.0330512 -1.834e-05 0)
(0.0330965 -3.24162e-05 0)
(0.0334285 -4.43061e-06 0)
(0.0334576 1.35636e-05 0)
(0.0334346 -1.86376e-05 0)
(0.0334609 -3.40138e-05 0)
(0.0315961 1.77747e-05 0)
(0.0315342 -6.69807e-06 0)
(0.0315732 -2.15454e-06 0)
(0.0315151 1.36161e-05 0)
(0.0316305 1.79982e-05 0)
(0.0315669 -6.34514e-06 0)
(0.0315989 -2.08799e-06 0)
(0.031541 1.43067e-05 0)
(0.0316699 1.80266e-05 0)
(0.0316033 -6.01153e-06 0)
(0.0316296 -1.81582e-06 0)
(0.0315708 1.52832e-05 0)
(0.0317113 1.82341e-05 0)
(0.0316443 -5.49918e-06 0)
(0.0316663 -1.60408e-06 0)
(0.0316064 1.61326e-05 0)
(0.0317612 1.82081e-05 0)
(0.031694 -5.13021e-06 0)
(0.0317119 -1.2095e-06 0)
(0.0316507 1.69744e-05 0)
(0.0318188 1.85594e-05 0)
(0.0317531 -4.48293e-06 0)
(0.0317682 -9.40798e-07 0)
(0.0317061 1.77617e-05 0)
(0.0318903 1.85217e-05 0)
(0.031827 -4.13103e-06 0)
(0.0318388 -5.20352e-07 0)
(0.0317756 1.84049e-05 0)
(0.0319768 1.87531e-05 0)
(0.0319173 -3.47228e-06 0)
(0.0319265 -1.40648e-07 0)
(0.0318623 1.90451e-05 0)
(0.0320848 1.87915e-05 0)
(0.03203 -3.08489e-06 0)
(0.032036 3.09762e-07 0)
(0.0319705 1.97648e-05 0)
(0.0322168 1.87056e-05 0)
(0.0321685 -2.56029e-06 0)
(0.0321712 7.72929e-07 0)
(0.0321049 1.99556e-05 0)
(0.0323801 1.88078e-05 0)
(0.0323395 -2.22074e-06 0)
(0.0323384 1.327e-06 0)
(0.0322712 2.10886e-05 0)
(0.0325789 1.91646e-05 0)
(0.0325479 -1.37877e-06 0)
(0.0325428 1.93523e-06 0)
(0.0324753 2.12228e-05 0)
(0.0328221 1.78615e-05 0)
(0.032802 -1.85017e-06 0)
(0.032793 2.06318e-06 0)
(0.0327259 2.10286e-05 0)
(0.0331156 1.92739e-05 0)
(0.0331082 -6.74952e-07 0)
(0.0330948 3.14211e-06 0)
(0.0330304 2.26229e-05 0)
(0.0334706 1.77088e-05 0)
(0.0334762 -1.07774e-06 0)
(0.0334598 3.34275e-06 0)
(0.0334 2.14154e-05 0)
)
;

boundaryField
{
    topWall
    {
        type            noSlip;
    }
    botWall
    {
        type            noSlip;
    }
    inlet
    {
        type            cyclic;
    }
    outlet
    {
        type            cyclic;
    }
    fixWall
    {
        type            empty;
    }
    procBoundary2to1
    {
        type            processor;
        value           nonuniform List<vector> 8((0.0314485 -1.61627e-06 0) (0.0314445 1.16924e-05 0) (0.0314012 -1.21848e-05 0) (0.031524 -1.90666e-05 0) (0.0315603 1.7471e-05 0) (0.0314986 -6.75365e-06 0) (0.0315461 -2.33498e-06 0) (0.03149 1.27872e-05 0));
    }
    procBoundary2to3
    {
        type            processor;
        value           nonuniform List<vector> 8((0.0338729 -4.79522e-06 0) (0.0339016 1.28541e-05 0) (0.0338957 -1.91459e-05 0) (0.0338994 -3.44858e-05 0) (0.0338964 1.76303e-05 0) (0.0339186 -8.4065e-07 0) (0.0338983 4.15983e-06 0) (0.0338446 2.2441e-05 0));
    }
}


// ************************************************************************* //
