/*--------------------------------*- C++ -*----------------------------------*\
  =========                 |
  \\      /  F ield         | OpenFOAM: The Open Source CFD Toolbox
   \\    /   O peration     | Website:  https://openfoam.org
    \\  /    A nd           | Version:  dev
     \\/     M anipulation  |

   OpenFOAM for Windows 20.09 (v1)
   Built by CFD Support, www.cfdsupport.com (based on Symscape).
\*---------------------------------------------------------------------------*/
FoamFile
{
    version     2.0;
    format      ascii;
    class       volVectorField;
    location    "6";
    object      UMean;
}
// * * * * * * * * * * * * * * * * * * * * * * * * * * * * * * * * * * * * * //

dimensions      [0 1 -1 0 0 0 0];

internalField   nonuniform List<vector> 
120
(
(0.0233639 7.18351e-06 0)
(0.0233823 -1.63036e-05 0)
(0.0233817 -2.61786e-06 0)
(0.0234172 5.73664e-06 0)
(0.0233802 7.49761e-06 0)
(0.0233927 -1.66071e-05 0)
(0.0233906 -2.85728e-06 0)
(0.0234278 5.30902e-06 0)
(0.0233974 7.81435e-06 0)
(0.0234062 -1.65635e-05 0)
(0.0234019 -3.27092e-06 0)
(0.023441 4.91029e-06 0)
(0.0234156 8.03008e-06 0)
(0.0234215 -1.65121e-05 0)
(0.0234148 -3.47681e-06 0)
(0.0234547 4.45397e-06 0)
(0.0234375 8.28029e-06 0)
(0.0234411 -1.65598e-05 0)
(0.0234319 -3.90732e-06 0)
(0.023473 3.96372e-06 0)
(0.0234633 8.66808e-06 0)
(0.0234649 -1.63665e-05 0)
(0.0234537 -4.05591e-06 0)
(0.0234955 3.55744e-06 0)
(0.0234959 8.88726e-06 0)
(0.0234956 -1.63051e-05 0)
(0.0234822 -4.48007e-06 0)
(0.0235248 3.13588e-06 0)
(0.0235364 9.23454e-06 0)
(0.0235343 -1.61736e-05 0)
(0.0235192 -4.64673e-06 0)
(0.0235622 2.55454e-06 0)
(0.0235883 9.51703e-06 0)
(0.0235843 -1.59018e-05 0)
(0.0235674 -4.95413e-06 0)
(0.0236105 2.31073e-06 0)
(0.0236538 9.73582e-06 0)
(0.0236479 -1.58521e-05 0)
(0.0236295 -5.22342e-06 0)
(0.0236724 1.47073e-06 0)
(0.0237376 1.01092e-05 0)
(0.0237294 -1.54811e-05 0)
(0.0237093 -5.38272e-06 0)
(0.0237515 1.34628e-06 0)
(0.0238434 1.02931e-05 0)
(0.0238328 -1.52719e-05 0)
(0.023811 -5.63566e-06 0)
(0.0238522 7.04304e-07 0)
(0.0239773 1.05437e-05 0)
(0.0239637 -1.48038e-05 0)
(0.02394 -5.74868e-06 0)
(0.0239795 2.11836e-07 0)
(0.0241451 1.06169e-05 0)
(0.0241286 -1.44951e-05 0)
(0.024103 -5.9388e-06 0)
(0.0241401 -8.13266e-08 0)
(0.0243544 1.10423e-05 0)
(0.0243351 -1.40871e-05 0)
(0.0243079 -5.9647e-06 0)
(0.024341 -7.06828e-07 0)
(0.0234283 1.09618e-05 0)
(0.0234026 -5.56825e-06 0)
(0.0234359 -1.21887e-05 0)
(0.0234082 1.3117e-05 0)
(0.023438 1.10437e-05 0)
(0.023412 -5.50827e-06 0)
(0.0234451 -1.25577e-05 0)
(0.0234217 1.33322e-05 0)
(0.023451 1.12614e-05 0)
(0.0234241 -5.54193e-06 0)
(0.0234564 -1.23846e-05 0)
(0.0234357 1.41532e-05 0)
(0.0234648 1.13424e-05 0)
(0.0234379 -5.48475e-06 0)
(0.023471 -1.27641e-05 0)
(0.0234523 1.4349e-05 0)
(0.0234834 1.1539e-05 0)
(0.0234562 -5.59576e-06 0)
(0.0234892 -1.27967e-05 0)
(0.0234717 1.48688e-05 0)
(0.023506 1.17257e-05 0)
(0.0234792 -5.38661e-06 0)
(0.0235126 -1.29555e-05 0)
(0.0234961 1.52756e-05 0)
(0.0235359 1.17758e-05 0)
(0.0235096 -5.68369e-06 0)
(0.0235425 -1.32404e-05 0)
(0.0235265 1.56684e-05 0)
(0.0235737 1.20101e-05 0)
(0.0235484 -5.41221e-06 0)
(0.0235808 -1.33387e-05 0)
(0.0235653 1.60001e-05 0)
(0.0236228 1.20302e-05 0)
(0.023599 -5.73048e-06 0)
(0.0236299 -1.36147e-05 0)
(0.0236147 1.64292e-05 0)
(0.0236852 1.21963e-05 0)
(0.0236634 -5.44631e-06 0)
(0.0236926 -1.36941e-05 0)
(0.0236776 1.65972e-05 0)
(0.0237654 1.22121e-05 0)
(0.0237461 -5.76597e-06 0)
(0.0237724 -1.38773e-05 0)
(0.0237577 1.70847e-05 0)
(0.0238665 1.24157e-05 0)
(0.0238505 -5.4674e-06 0)
(0.0238734 -1.40129e-05 0)
(0.0238591 1.72462e-05 0)
(0.0239948 1.20598e-05 0)
(0.0239831 -5.91173e-06 0)
(0.0240013 -1.42669e-05 0)
(0.0239872 1.74725e-05 0)
(0.0241552 1.24284e-05 0)
(0.0241486 -5.52555e-06 0)
(0.0241615 -1.41282e-05 0)
(0.0241477 1.7768e-05 0)
(0.0243565 1.20796e-05 0)
(0.0243568 -5.82886e-06 0)
(0.0243621 -1.44125e-05 0)
(0.0243482 1.76818e-05 0)
)
;

boundaryField
{
    topWall
    {
        type            calculated;
        value           nonuniform List<vector> 0();
    }
    botWall
    {
        type            calculated;
        value           nonuniform List<vector> 0();
    }
    inlet
    {
        type            cyclic;
    }
    outlet
    {
        type            cyclic;
    }
    fixWall
    {
        type            empty;
    }
    procBoundary2to1
    {
        type            processor;
        value           nonuniform List<vector> 8((0.0233466 6.97231e-06 0) (0.023371 -1.62508e-05 0) (0.0233731 -2.26191e-06 0) (0.0234054 6.05069e-06 0) (0.0234151 1.09007e-05 0) (0.0233915 -5.31671e-06 0) (0.0234287 -1.20207e-05 0) (0.0233958 1.22782e-05 0));
    }
    procBoundary2to3
    {
        type            processor;
        value           nonuniform List<vector> 8((0.0246138 1.08597e-05 0) (0.0245939 -1.3762e-05 0) (0.0245652 -6.19223e-06 0) (0.0245883 -1.21117e-06 0) (0.0246014 1.19637e-05 0) (0.0246137 -5.68125e-06 0) (0.0246101 -1.40166e-05 0) (0.024595 1.76392e-05 0));
    }
}


// ************************************************************************* //
