/*--------------------------------*- C++ -*----------------------------------*\
  =========                 |
  \\      /  F ield         | OpenFOAM: The Open Source CFD Toolbox
   \\    /   O peration     | Website:  https://openfoam.org
    \\  /    A nd           | Version:  dev
     \\/     M anipulation  |

   OpenFOAM for Windows 20.09 (v1)
   Built by CFD Support, www.cfdsupport.com (based on Symscape).
\*---------------------------------------------------------------------------*/
FoamFile
{
    version     2.0;
    format      ascii;
    class       volSymmTensorField;
    location    "6";
    object      UPrime2Mean;
}
// * * * * * * * * * * * * * * * * * * * * * * * * * * * * * * * * * * * * * //

dimensions      [0 2 -2 0 0 0 0];

internalField   nonuniform List<symmTensor> 
120
(
(2.9566e-05 9.10626e-09 0 1.43692e-10 0 0)
(2.95386e-05 6.27057e-08 0 2.76077e-10 0 0)
(2.93055e-05 -2.49936e-08 0 3.41969e-11 0 0)
(2.97749e-05 -7.04701e-08 0 2.20221e-10 0 0)
(2.96599e-05 9.12946e-09 0 1.48512e-10 0 0)
(2.96904e-05 6.40707e-08 0 2.80549e-10 0 0)
(2.94892e-05 -2.55798e-08 0 3.56213e-11 0 0)
(2.99169e-05 -7.28692e-08 0 2.32911e-10 0 0)
(2.97827e-05 9.13673e-09 0 1.54154e-10 0 0)
(2.98478e-05 6.40747e-08 0 2.80326e-10 0 0)
(2.96648e-05 -2.73666e-08 0 3.8413e-11 0 0)
(3.00763e-05 -7.54688e-08 0 2.44913e-10 0 0)
(2.99412e-05 9.21306e-09 0 1.58628e-10 0 0)
(3.00278e-05 6.58154e-08 0 2.80247e-10 0 0)
(2.98394e-05 -2.77273e-08 0 4.03707e-11 0 0)
(3.02371e-05 -7.79876e-08 0 2.59237e-10 0 0)
(3.01375e-05 8.67516e-09 0 1.63123e-10 0 0)
(3.02309e-05 6.61501e-08 0 2.819e-10 0 0)
(3.0032e-05 -2.92618e-08 0 4.27297e-11 0 0)
(3.04276e-05 -8.04155e-08 0 2.70095e-10 0 0)
(3.03783e-05 8.12497e-09 0 1.71143e-10 0 0)
(3.0474e-05 6.71089e-08 0 2.76057e-10 0 0)
(3.02557e-05 -2.99013e-08 0 4.53209e-11 0 0)
(3.06472e-05 -8.29154e-08 0 2.84187e-10 0 0)
(3.06713e-05 7.50941e-09 0 1.77284e-10 0 0)
(3.07636e-05 6.79567e-08 0 2.74935e-10 0 0)
(3.05252e-05 -3.07741e-08 0 4.64383e-11 0 0)
(3.09148e-05 -8.54172e-08 0 2.95821e-10 0 0)
(3.1027e-05 6.13346e-09 0 1.83462e-10 0 0)
(3.11162e-05 6.9437e-08 0 2.71754e-10 0 0)
(3.08576e-05 -3.16979e-08 0 4.94027e-11 0 0)
(3.1241e-05 -8.79347e-08 0 3.08478e-10 0 0)
(3.14568e-05 6.04092e-09 0 1.93697e-10 0 0)
(3.15449e-05 7.03365e-08 0 2.7024e-10 0 0)
(3.1269e-05 -3.19797e-08 0 4.91105e-11 0 0)
(3.16418e-05 -9.06592e-08 0 3.21264e-10 0 0)
(3.19775e-05 3.37243e-09 0 1.98626e-10 0 0)
(3.20663e-05 7.2373e-08 0 2.67816e-10 0 0)
(3.17791e-05 -3.34961e-08 0 5.29956e-11 0 0)
(3.21323e-05 -9.34949e-08 0 3.33287e-10 0 0)
(3.26022e-05 3.93802e-09 0 2.1138e-10 0 0)
(3.26983e-05 7.28491e-08 0 2.63005e-10 0 0)
(3.24079e-05 -3.33754e-08 0 5.1929e-11 0 0)
(3.27304e-05 -9.66367e-08 0 3.47613e-10 0 0)
(3.33528e-05 1.11662e-09 0 2.14901e-10 0 0)
(3.34595e-05 7.66205e-08 0 2.67553e-10 0 0)
(3.31798e-05 -3.37859e-08 0 5.1802e-11 0 0)
(3.34564e-05 -9.71739e-08 0 3.39292e-10 0 0)
(3.42459e-05 -6.84582e-11 0 2.31625e-10 0 0)
(3.4374e-05 7.70422e-08 0 2.57064e-10 0 0)
(3.41198e-05 -3.46535e-08 0 5.41122e-11 0 0)
(3.43335e-05 -1.03956e-07 0 3.77452e-10 0 0)
(3.53092e-05 -1.18027e-09 0 2.2924e-10 0 0)
(3.54598e-05 7.98847e-08 0 2.58759e-10 0 0)
(3.52565e-05 -3.42548e-08 0 5.03606e-11 0 0)
(3.53875e-05 -1.01784e-07 0 3.46179e-10 0 0)
(3.65583e-05 -4.29767e-09 0 2.52516e-10 0 0)
(3.67468e-05 8.12302e-08 0 2.48636e-10 0 0)
(3.66215e-05 -3.49351e-08 0 5.29613e-11 0 0)
(3.6646e-05 -1.07174e-07 0 3.68047e-10 0 0)
(2.99661e-05 1.87853e-08 0 1.51488e-11 0 0)
(2.97675e-05 -1.73493e-08 0 2.5359e-11 0 0)
(2.99384e-05 1.76117e-08 0 4.2225e-11 0 0)
(2.96969e-05 3.37931e-09 0 5.9229e-13 0 0)
(3.00964e-05 1.95314e-08 0 1.58471e-11 0 0)
(2.98918e-05 -1.67869e-08 0 2.58878e-11 0 0)
(3.0034e-05 1.80763e-08 0 4.67632e-11 0 0)
(2.97822e-05 5.03312e-09 0 1.03392e-12 0 0)
(3.02446e-05 1.83543e-08 0 1.48895e-11 0 0)
(3.00406e-05 -1.63023e-08 0 2.7406e-11 0 0)
(3.01564e-05 1.82932e-08 0 4.76757e-11 0 0)
(2.98852e-05 6.59327e-09 0 1.96764e-12 0 0)
(3.04028e-05 1.92698e-08 0 1.55173e-11 0 0)
(3.02059e-05 -1.55481e-08 0 2.89454e-11 0 0)
(3.02956e-05 1.90198e-08 0 5.40642e-11 0 0)
(3.00091e-05 8.81265e-09 0 3.02186e-12 0 0)
(3.0592e-05 1.80394e-08 0 1.44613e-11 0 0)
(3.04063e-05 -1.50683e-08 0 3.19735e-11 0 0)
(3.0473e-05 1.98948e-08 0 5.81138e-11 0 0)
(3.01702e-05 1.0384e-08 0 4.16032e-12 0 0)
(3.08105e-05 1.88609e-08 0 1.52014e-11 0 0)
(3.06379e-05 -1.41302e-08 0 3.29911e-11 0 0)
(3.06864e-05 2.07733e-08 0 6.2372e-11 0 0)
(3.03722e-05 1.22007e-08 0 5.67062e-12 0 0)
(3.10795e-05 1.78127e-08 0 1.48263e-11 0 0)
(3.09229e-05 -1.35623e-08 0 3.81975e-11 0 0)
(3.09542e-05 2.20473e-08 0 7.0135e-11 0 0)
(3.06291e-05 1.32581e-08 0 6.55337e-12 0 0)
(3.14035e-05 1.82433e-08 0 1.47861e-11 0 0)
(3.12646e-05 -1.26414e-08 0 3.90286e-11 0 0)
(3.12824e-05 2.319e-08 0 7.50729e-11 0 0)
(3.09493e-05 1.49944e-08 0 8.38043e-12 0 0)
(3.18032e-05 1.75172e-08 0 1.5001e-11 0 0)
(3.16856e-05 -1.19917e-08 0 4.54591e-11 0 0)
(3.16892e-05 2.4754e-08 0 8.33363e-11 0 0)
(3.1347e-05 1.60804e-08 0 9.3144e-12 0 0)
(3.22877e-05 1.7155e-08 0 1.38692e-11 0 0)
(3.21959e-05 -1.14085e-08 0 4.60267e-11 0 0)
(3.21856e-05 2.61019e-08 0 8.95811e-11 0 0)
(3.1837e-05 1.70846e-08 0 1.07711e-11 0 0)
(3.28779e-05 1.68824e-08 0 1.4433e-11 0 0)
(3.28173e-05 -1.07769e-08 0 5.26434e-11 0 0)
(3.27928e-05 2.80349e-08 0 9.80681e-11 0 0)
(3.24371e-05 1.90639e-08 0 1.23916e-11 0 0)
(3.35876e-05 1.71797e-08 0 1.52293e-11 0 0)
(3.35659e-05 -9.58248e-09 0 5.52641e-11 0 0)
(3.35251e-05 2.9894e-08 0 1.07632e-10 0 0)
(3.31665e-05 1.9956e-08 0 1.3749e-11 0 0)
(3.44392e-05 1.39912e-08 0 1.17199e-11 0 0)
(3.44601e-05 -1.07063e-08 0 5.98153e-11 0 0)
(3.44097e-05 3.12035e-08 0 1.12502e-10 0 0)
(3.40506e-05 1.91879e-08 0 1.30596e-11 0 0)
(3.54495e-05 1.7098e-08 0 1.61008e-11 0 0)
(3.5521e-05 -8.60684e-09 0 6.25132e-11 0 0)
(3.5462e-05 3.40219e-08 0 1.24338e-10 0 0)
(3.5113e-05 2.34399e-08 0 1.70413e-11 0 0)
(3.66414e-05 1.28491e-08 0 1.18261e-11 0 0)
(3.67634e-05 -1.02771e-08 0 6.83724e-11 0 0)
(3.67158e-05 3.57269e-08 0 1.3124e-10 0 0)
(3.63856e-05 2.0952e-08 0 1.47187e-11 0 0)
)
;

boundaryField
{
    topWall
    {
        type            calculated;
        value           nonuniform List<symmTensor> 0();
    }
    botWall
    {
        type            calculated;
        value           nonuniform List<symmTensor> 0();
    }
    inlet
    {
        type            cyclic;
    }
    outlet
    {
        type            cyclic;
    }
    fixWall
    {
        type            empty;
    }
    procBoundary2to1
    {
        type            processor;
        value           nonuniform List<symmTensor> 8((2.94992e-05 8.21575e-09 0 1.40558e-10 0 0) (2.9396e-05 6.10032e-08 0 2.72427e-10 0 0) (2.90937e-05 -2.42379e-08 0 3.23515e-11 0 0) (2.96266e-05 -6.74908e-08 0 2.05284e-10 0 0) (2.98335e-05 1.89009e-08 0 1.43079e-11 0 0) (2.96267e-05 -1.73077e-08 0 2.28065e-11 0 0) (2.98306e-05 1.72154e-08 0 3.87862e-11 0 0) (2.96094e-05 2.45595e-09 0 2.3425e-13 0 0));
    }
    procBoundary2to3
    {
        type            processor;
        value           nonuniform List<symmTensor> 8((3.80261e-05 -5.2611e-09 0 2.52293e-10 0 0) (3.82497e-05 8.00303e-08 0 2.30346e-10 0 0) (3.82436e-05 -3.67609e-08 0 5.52006e-11 0 0) (3.81431e-05 -1.09283e-07 0 3.67321e-10 0 0) (3.80641e-05 1.3344e-08 0 1.18722e-11 0 0) (3.82514e-05 -1.02036e-08 0 6.87307e-11 0 0) (3.82054e-05 3.79252e-08 0 1.35741e-10 0 0) (3.78989e-05 2.42921e-08 0 1.71222e-11 0 0));
    }
}


// ************************************************************************* //
