/*--------------------------------*- C++ -*----------------------------------*\
  =========                 |
  \\      /  F ield         | OpenFOAM: The Open Source CFD Toolbox
   \\    /   O peration     | Website:  https://openfoam.org
    \\  /    A nd           | Version:  dev
     \\/     M anipulation  |

   OpenFOAM for Windows 20.09 (v1)
   Built by CFD Support, www.cfdsupport.com (based on Symscape).
\*---------------------------------------------------------------------------*/
FoamFile
{
    version     2.0;
    format      ascii;
    class       surfaceScalarField;
    location    "4";
    object      alphaPhi0.water;
}
// * * * * * * * * * * * * * * * * * * * * * * * * * * * * * * * * * * * * * //

dimensions      [0 3 -1 0 0 0 0];

internalField   nonuniform List<scalar> 
217
(
1.81997e-08
1.76837e-10
1.82478e-08
-4.05125e-10
1.82369e-08
8.69361e-12
7.64572e-10
1.82218e-08
1.83638e-08
1.81028e-10
1.84144e-08
-4.55704e-10
1.84107e-08
1.24356e-11
7.75083e-10
1.84001e-08
1.84956e-08
1.84673e-10
1.85469e-08
-5.07012e-10
1.85449e-08
1.44644e-11
7.80898e-10
1.85391e-08
1.85977e-08
1.88754e-10
1.86488e-08
-5.5817e-10
1.86494e-08
1.38576e-11
7.83137e-10
1.86472e-08
1.86769e-08
1.929e-10
1.87281e-08
-6.09345e-10
1.87297e-08
1.21736e-11
7.83186e-10
1.87297e-08
1.87372e-08
1.97944e-10
1.87878e-08
-6.60034e-10
1.8791e-08
9.01961e-12
7.81114e-10
1.87931e-08
1.87831e-08
2.03444e-10
1.88333e-08
-7.10164e-10
1.88375e-08
4.82733e-12
7.77783e-10
1.88408e-08
1.88174e-08
2.10293e-10
1.88667e-08
-7.59471e-10
1.8872e-08
-4.07116e-13
7.73142e-10
1.88766e-08
1.88434e-08
2.17981e-10
1.88915e-08
-8.07597e-10
1.88974e-08
-6.31344e-12
7.67259e-10
1.89033e-08
1.88627e-08
2.26859e-10
1.89091e-08
-8.53929e-10
1.89157e-08
-1.29028e-11
7.60369e-10
1.89226e-08
1.88776e-08
2.36621e-10
1.89217e-08
-8.9809e-10
1.8929e-08
-2.00988e-11
7.52279e-10
1.89371e-08
1.88889e-08
2.47741e-10
1.89304e-08
-9.39571e-10
1.89379e-08
-2.76143e-11
7.43743e-10
1.89464e-08
1.88987e-08
2.59879e-10
1.89366e-08
-9.77465e-10
1.89443e-08
-3.53888e-11
7.34263e-10
1.89538e-08
1.89075e-08
2.73003e-10
1.8941e-08
-1.01104e-09
1.89483e-08
-4.2671e-11
7.2518e-10
1.89574e-08
1.89201e-08
1.89441e-08
1.89526e-08
1.89594e-08
1.82062e-08
2.79753e-10
1.82296e-08
-3.0216e-10
1.82582e-08
-5.64384e-10
4.05638e-11
1.83873e-08
2.92598e-10
1.8407e-08
-3.21887e-10
1.84273e-08
-5.84601e-10
9.97927e-11
1.85274e-08
3.04207e-10
1.85448e-08
-3.39245e-10
1.85609e-08
-6.007e-10
1.61459e-10
1.86369e-08
3.14457e-10
1.86527e-08
-3.55006e-10
1.86649e-08
-6.12872e-10
2.24591e-10
1.87206e-08
3.23561e-10
1.87348e-08
-3.69203e-10
1.87443e-08
-6.22343e-10
2.87828e-10
1.8785e-08
3.31651e-10
1.87981e-08
-3.82253e-10
1.88053e-08
-6.29543e-10
3.5088e-10
1.88336e-08
3.38878e-10
1.88456e-08
-3.9424e-10
1.88512e-08
-6.35165e-10
4.13449e-10
1.88702e-08
3.45275e-10
1.88817e-08
-4.05716e-10
1.88863e-08
-6.39788e-10
4.75533e-10
1.88976e-08
3.51049e-10
1.89086e-08
-4.16781e-10
1.89122e-08
-6.43412e-10
5.36739e-10
1.89175e-08
3.56167e-10
1.89288e-08
-4.28049e-10
1.89323e-08
-6.46985e-10
5.97471e-10
1.89326e-08
3.60638e-10
1.8944e-08
-4.39483e-10
1.89471e-08
-6.50032e-10
6.57236e-10
1.89426e-08
3.64419e-10
1.89555e-08
-4.52278e-10
1.89588e-08
-6.53364e-10
7.16055e-10
1.89508e-08
3.67426e-10
1.89644e-08
-4.6585e-10
1.89675e-08
-6.56438e-10
7.72717e-10
1.89546e-08
3.7015e-10
1.89706e-08
-4.81762e-10
1.89747e-08
-6.606e-10
8.26841e-10
1.89585e-08
1.8975e-08
1.89815e-08
)
;

boundaryField
{
    topWall
    {
        type            calculated;
        value           nonuniform List<scalar> 0();
    }
    botWall
    {
        type            calculated;
        value           nonuniform List<scalar> 0();
    }
    inlet
    {
        type            cyclic;
        value           nonuniform List<scalar> 
15
(
-1.89288e-08
-1.89206e-08
-1.89108e-08
-1.89e-08
-1.88873e-08
-1.88716e-08
-1.88511e-08
-1.88242e-08
-1.87886e-08
-1.87422e-08
-1.8681e-08
-1.86017e-08
-1.84992e-08
-1.8368e-08
-1.81972e-08
)
;
    }
    outlet
    {
        type            cyclic;
        value           nonuniform List<scalar> 
15
(
1.89288e-08
1.89206e-08
1.89108e-08
1.89e-08
1.88873e-08
1.88716e-08
1.88511e-08
1.88242e-08
1.87886e-08
1.87422e-08
1.8681e-08
1.86017e-08
1.84992e-08
1.8368e-08
1.81972e-08
)
;
    }
    fixWall
    {
        type            empty;
        value           nonuniform List<scalar> 0();
    }
    procBoundary1to0
    {
        type            processor;
        value           nonuniform List<scalar> 8(-1.79924e-10 3.55158e-10 2.38855e-12 -7.51235e-10 -2.62316e-10 2.77846e-10 5.36681e-10 2.09947e-11);
    }
    procBoundary1to2
    {
        type            processor;
        value           nonuniform List<scalar> 8(2.80981e-10 -1.03685e-09 -5.27599e-11 7.17764e-10 3.70856e-10 -4.97575e-10 -6.67442e-10 8.78435e-10);
    }
}


// ************************************************************************* //
