/*--------------------------------*- C++ -*----------------------------------*\
  =========                 |
  \\      /  F ield         | OpenFOAM: The Open Source CFD Toolbox
   \\    /   O peration     | Website:  https://openfoam.org
    \\  /    A nd           | Version:  dev
     \\/     M anipulation  |

   OpenFOAM for Windows 20.09 (v1)
   Built by CFD Support, www.cfdsupport.com (based on Symscape).
\*---------------------------------------------------------------------------*/
FoamFile
{
    version     2.0;
    format      ascii;
    class       volSymmTensorField;
    location    "4";
    object      devReff;
}
// * * * * * * * * * * * * * * * * * * * * * * * * * * * * * * * * * * * * * //

dimensions      [0 2 -2 0 0 0 0];

internalField   nonuniform List<symmTensor> 
120
(
(1.58419e-07 -5.32081e-05 -0 -2.03284e-07 -0 4.48651e-08)
(-5.10344e-07 -5.57906e-05 -0 5.56046e-07 -0 -4.57022e-08)
(2.89263e-08 -5.44404e-05 -0 -2.92596e-08 -0 3.33258e-10)
(2.28784e-07 -5.65295e-05 -0 -2.26538e-07 -0 -2.24597e-09)
(1.36552e-07 -4.33509e-05 -0 -1.87686e-07 -0 5.11336e-08)
(-5.09874e-07 -4.43729e-05 -0 5.55332e-07 -0 -4.54587e-08)
(4.00592e-08 -4.34318e-05 -0 -5.73115e-08 -0 1.72522e-08)
(1.40202e-07 -4.52962e-05 -0 -1.23234e-07 -0 -1.69681e-08)
(1.20928e-07 -3.41877e-05 -0 -1.59613e-07 -0 3.86851e-08)
(-5.00386e-07 -3.46339e-05 -0 5.36071e-07 -0 -3.56844e-08)
(1.3866e-08 -3.42429e-05 -0 -2.87552e-08 -0 1.48892e-08)
(9.41994e-08 -3.5712e-05 -0 -8.52553e-08 -0 -8.94409e-09)
(1.30274e-07 -2.67987e-05 -0 -1.89687e-07 -0 5.94129e-08)
(-4.94971e-07 -2.68898e-05 -0 5.26543e-07 -0 -3.1572e-08)
(-1.59809e-09 -2.67416e-05 -0 -8.80091e-09 -0 1.0399e-08)
(5.89242e-08 -2.78454e-05 -0 -5.20974e-08 -0 -6.82679e-09)
(1.14611e-07 -2.0846e-05 -0 -1.55805e-07 -0 4.11933e-08)
(-4.9348e-07 -2.06211e-05 -0 5.27289e-07 -0 -3.38083e-08)
(-1.54299e-08 -2.06954e-05 -0 -8.02451e-10 -0 1.62323e-08)
(2.56421e-08 -2.15391e-05 -0 -1.42453e-08 -0 -1.13968e-08)
(1.16365e-07 -1.61243e-05 -0 -1.60873e-07 -0 4.45073e-08)
(-4.91336e-07 -1.57432e-05 -0 5.27622e-07 -0 -3.6286e-08)
(-3.18523e-08 -1.58267e-05 -0 2.23163e-08 -0 9.53605e-09)
(6.91732e-09 -1.64457e-05 -0 3.98323e-09 -0 -1.09006e-08)
(1.17826e-07 -1.23942e-05 -0 -1.58044e-07 -0 4.02182e-08)
(-4.74171e-07 -1.18631e-05 -0 5.02179e-07 -0 -2.80083e-08)
(-3.45379e-08 -1.19483e-05 -0 1.52746e-08 -0 1.92633e-08)
(-5.91811e-09 -1.25082e-05 -0 1.30587e-08 -0 -7.14062e-09)
(1.1893e-07 -9.49276e-06 -0 -1.57834e-07 -0 3.89043e-08)
(-4.7474e-07 -8.86909e-06 -0 5.13095e-07 -0 -3.83549e-08)
(-5.47608e-08 -8.90776e-06 -0 4.79133e-08 -0 6.84747e-09)
(-2.49249e-08 -9.40067e-06 -0 3.81932e-08 -0 -1.32683e-08)
(1.30059e-07 -7.33252e-06 -0 -1.71074e-07 -0 4.10153e-08)
(-4.46896e-07 -6.58556e-06 -0 4.71167e-07 -0 -2.42707e-08)
(-5.11268e-08 -6.50868e-06 -0 3.2078e-08 -0 1.90488e-08)
(-2.98854e-08 -7.03718e-06 -0 3.72531e-08 -0 -7.36767e-09)
(1.31505e-07 -5.73767e-06 -0 -1.70109e-07 -0 3.8604e-08)
(-4.32627e-07 -4.88798e-06 -0 4.60577e-07 -0 -2.795e-08)
(-6.63784e-08 -4.67389e-06 -0 5.74643e-08 -0 8.91413e-09)
(-4.33596e-08 -5.19373e-06 -0 5.27095e-08 -0 -9.34989e-09)
(1.24902e-07 -4.6612e-06 -0 -1.47695e-07 -0 2.2793e-08)
(-4.21154e-07 -3.62479e-06 -0 4.59601e-07 -0 -3.84463e-08)
(-6.56889e-08 -3.27554e-06 -0 5.24304e-08 -0 1.32585e-08)
(-5.39439e-08 -3.84295e-06 -0 6.73076e-08 -0 -1.33636e-08)
(1.40237e-07 -4.02779e-06 -0 -1.73715e-07 -0 3.34776e-08)
(-3.87319e-07 -2.73933e-06 -0 4.20813e-07 -0 -3.34943e-08)
(-6.52561e-08 -2.12245e-06 -0 4.94038e-08 -0 1.58523e-08)
(-6.21859e-08 -2.76379e-06 -0 7.40202e-08 -0 -1.18343e-08)
(1.32947e-07 -3.8546e-06 -0 -1.49234e-07 -0 1.62871e-08)
(-3.40966e-07 -2.17823e-06 -0 3.67587e-07 -0 -2.6621e-08)
(-6.54192e-08 -1.21012e-06 -0 5.25738e-08 -0 1.28454e-08)
(-7.36283e-08 -2.0762e-06 -0 9.14665e-08 -0 -1.78382e-08)
(1.53736e-07 -4.09584e-06 -0 -1.87443e-07 -0 3.37069e-08)
(-2.88625e-07 -1.76706e-06 -0 3.16626e-07 -0 -2.80002e-08)
(-6.29361e-08 -2.03952e-07 -0 4.97125e-08 -0 1.32236e-08)
(-7.52382e-08 -1.57008e-06 -0 8.00522e-08 -0 -4.81399e-09)
(1.73338e-07 -4.66401e-06 -0 -2.15094e-07 -0 4.17559e-08)
(-1.68206e-07 -1.52419e-06 -0 1.56983e-07 -0 1.12234e-08)
(-7.32606e-08 1.82696e-08 -0 7.63897e-08 -0 -3.12906e-09)
(-9.62555e-08 -1.69709e-06 -0 1.01641e-07 -0 -5.38504e-09)
(1.08007e-07 -6.00014e-05 -0 -1.0193e-07 -0 -6.07775e-09)
(-2.17029e-07 -5.90644e-05 -0 1.99309e-07 -0 1.77194e-08)
(-2.92562e-07 -5.92228e-05 -0 3.28893e-07 -0 -3.63302e-08)
(4.61975e-07 -5.54913e-05 -0 -4.5559e-07 -0 -6.38513e-09)
(9.20196e-08 -4.71717e-05 -0 -9.46762e-08 -0 2.65654e-09)
(-1.75323e-07 -4.65025e-05 -0 1.48189e-07 -0 2.71337e-08)
(-2.16162e-07 -4.57152e-05 -0 2.34735e-07 -0 -1.85732e-08)
(4.96508e-07 -4.35097e-05 -0 -4.83315e-07 -0 -1.31927e-08)
(7.68369e-08 -3.68861e-05 -0 -8.15886e-08 -0 4.75166e-09)
(-1.75559e-07 -3.65205e-05 -0 1.66439e-07 -0 9.11974e-09)
(-1.78573e-07 -3.58123e-05 -0 2.03841e-07 -0 -2.52682e-08)
(5.45757e-07 -3.42738e-05 -0 -5.45277e-07 -0 -4.79995e-10)
(5.90656e-08 -2.86208e-05 -0 -5.75461e-08 -0 -1.51947e-09)
(-1.55293e-07 -2.84415e-05 -0 1.4555e-07 -0 9.74254e-09)
(-1.46387e-07 -2.77135e-05 -0 1.73325e-07 -0 -2.69382e-08)
(5.6066e-07 -2.6706e-05 -0 -5.58636e-07 -0 -2.02371e-09)
(5.48879e-08 -2.20275e-05 -0 -5.94523e-08 -0 4.56436e-09)
(-1.35844e-07 -2.20369e-05 -0 1.19029e-07 -0 1.68148e-08)
(-1.09291e-07 -2.13573e-05 -0 1.26503e-07 -0 -1.72119e-08)
(5.63332e-07 -2.07333e-05 -0 -5.51372e-07 -0 -1.19597e-08)
(4.23934e-08 -1.67916e-05 -0 -4.27048e-08 -0 3.11336e-10)
(-1.32335e-07 -1.68955e-05 -0 1.23847e-07 -0 8.48766e-09)
(-9.84336e-08 -1.62942e-05 -0 1.24315e-07 -0 -2.58817e-08)
(5.76208e-07 -1.59542e-05 -0 -5.7436e-07 -0 -1.84709e-09)
(3.88999e-08 -1.27212e-05 -0 -4.44321e-08 -0 5.53213e-09)
(-1.1855e-07 -1.28984e-05 -0 1.0301e-07 -0 1.55405e-08)
(-7.92886e-08 -1.24002e-05 -0 1.01403e-07 -0 -2.21146e-08)
(5.76326e-07 -1.21951e-05 -0 -5.73621e-07 -0 -2.70498e-09)
(2.79891e-08 -9.50558e-06 -0 -2.88812e-08 -0 8.92093e-10)
(-1.1777e-07 -9.72295e-06 -0 1.07508e-07 -0 1.02623e-08)
(-6.92264e-08 -9.38768e-06 -0 9.29382e-08 -0 -2.37118e-08)
(5.70996e-07 -9.30179e-06 -0 -5.65917e-07 -0 -5.07912e-09)
(2.4811e-08 -7.0634e-06 -0 -2.90195e-08 -0 4.20846e-09)
(-1.11997e-07 -7.33024e-06 -0 9.60206e-08 -0 1.59759e-08)
(-6.01002e-08 -7.11063e-06 -0 8.073e-08 -0 -2.06298e-08)
(5.72824e-07 -7.06345e-06 -0 -5.72532e-07 -0 -2.91954e-10)
(1.19529e-08 -5.09734e-06 -0 -8.61614e-09 -0 -3.33674e-09)
(-1.21513e-07 -5.44157e-06 -0 1.15706e-07 -0 5.80713e-09)
(-5.72609e-08 -5.38658e-06 -0 8.16242e-08 -0 -2.43632e-08)
(5.71661e-07 -5.37405e-06 -0 -5.77316e-07 -0 5.65474e-09)
(1.76113e-08 -3.64597e-06 -0 -2.4954e-08 -0 7.34264e-09)
(-1.20807e-07 -4.06861e-06 -0 1.06379e-07 -0 1.44277e-08)
(-6.68409e-08 -4.08858e-06 -0 1.00252e-07 -0 -3.34107e-08)
(5.39268e-07 -4.13696e-06 -0 -5.20013e-07 -0 -1.92549e-08)
(2.23152e-08 -2.45674e-06 -0 -3.89473e-08 -0 1.66321e-08)
(-1.13724e-07 -2.94645e-06 -0 8.78657e-08 -0 2.58579e-08)
(-3.13799e-08 -3.11559e-06 -0 3.14257e-08 -0 -4.58206e-11)
(5.51634e-07 -3.27424e-06 -0 -5.59511e-07 -0 7.87666e-09)
(1.88478e-09 -1.6896e-06 -0 -1.72847e-09 -0 -1.56315e-10)
(-1.52919e-07 -2.18134e-06 -0 1.51189e-07 -0 1.73005e-09)
(-6.90045e-08 -2.35779e-06 -0 9.75728e-08 -0 -2.85683e-08)
(5.24437e-07 -2.67671e-06 -0 -5.24089e-07 -0 -3.47807e-10)
(7.72643e-09 -1.13165e-06 -0 -1.5408e-08 -0 7.68161e-09)
(-1.36108e-07 -1.52035e-06 -0 1.13021e-07 -0 2.30864e-08)
(-7.03119e-08 -1.74324e-06 -0 9.67099e-08 -0 -2.6398e-08)
(4.77611e-07 -2.31726e-06 -0 -4.64978e-07 -0 -1.26326e-08)
(-1.43431e-08 -1.19263e-06 -0 3.01993e-08 -0 -1.58562e-08)
(-1.61343e-07 -1.04421e-06 -0 1.50397e-07 -0 1.09465e-08)
(-6.3452e-08 -9.21092e-07 -0 6.39406e-08 -0 -4.88655e-10)
(4.85869e-07 -2.49267e-06 -0 -5.29148e-07 -0 4.32789e-08)
)
;

boundaryField
{
    topWall
    {
        type            calculated;
        value           nonuniform List<symmTensor> 0();
    }
    botWall
    {
        type            calculated;
        value           nonuniform List<symmTensor> 0();
    }
    inlet
    {
        type            cyclic;
    }
    outlet
    {
        type            cyclic;
    }
    fixWall
    {
        type            empty;
    }
    procBoundary1to0
    {
        type            processor;
        value           nonuniform List<symmTensor> 8((1.54338e-07 -6.63725e-05 -0 -2.1091e-07 -0 5.65721e-08) (-4.56782e-07 -6.98685e-05 -0 4.87866e-07 -0 -3.10837e-08) (6.34879e-08 -6.8696e-05 -0 -8.06196e-08 -0 1.71317e-08) (3.3245e-07 -7.05315e-05 -0 -3.19309e-07 -0 -1.31404e-08) (1.7386e-07 -7.41171e-05 -0 -1.72136e-07 -0 -1.72351e-09) (-2.20237e-07 -7.3379e-05 -0 2.10663e-07 -0 9.57377e-09) (-3.21095e-07 -7.46645e-05 -0 3.22484e-07 -0 -1.38956e-09) (2.94231e-07 -7.00614e-05 -0 -2.78542e-07 -0 -1.56886e-08));
    }
    procBoundary1to2
    {
        type            processor;
        value           nonuniform List<symmTensor> 8((1.64662e-07 -4.6145e-06 -0 -1.80526e-07 -0 1.58642e-08) (-8.23103e-08 -1.3141e-06 -0 6.54148e-08 -0 1.68955e-08) (-8.27856e-08 -1.09101e-07 -0 8.52843e-08 -0 -2.49867e-09) (-1.09465e-07 -1.63284e-06 -0 1.03978e-07 -0 5.48635e-09) (2.40809e-09 -1.01061e-06 -0 1.48006e-08 -0 -1.72087e-08) (-1.52632e-07 -7.44337e-07 -0 1.57934e-07 -0 -5.30196e-09) (-1.50474e-07 -7.69754e-07 -0 2.12821e-07 -0 -6.23469e-08) (3.41584e-07 -2.80903e-06 -0 -3.2168e-07 -0 -1.99034e-08));
    }
}


// ************************************************************************* //
