/*--------------------------------*- C++ -*----------------------------------*\
  =========                 |
  \\      /  F ield         | OpenFOAM: The Open Source CFD Toolbox
   \\    /   O peration     | Website:  https://openfoam.org
    \\  /    A nd           | Version:  dev
     \\/     M anipulation  |

   OpenFOAM for Windows 20.09 (v1)
   Built by CFD Support, www.cfdsupport.com (based on Symscape).
\*---------------------------------------------------------------------------*/
FoamFile
{
    version     2.0;
    format      ascii;
    class       volScalarField;
    location    "4";
    object      epsilon;
}
// * * * * * * * * * * * * * * * * * * * * * * * * * * * * * * * * * * * * * //

dimensions      [0 2 -3 0 0 0 0];

internalField   nonuniform List<scalar> 
120
(
1.82611e-15
1.82594e-15
1.82616e-15
1.82624e-15
1.6034e-15
1.60323e-15
1.60344e-15
1.60352e-15
1.41983e-15
1.41966e-15
1.41987e-15
1.41995e-15
1.26692e-15
1.26676e-15
1.26696e-15
1.26703e-15
1.13839e-15
1.13824e-15
1.13843e-15
1.1385e-15
1.02951e-15
1.02937e-15
1.02955e-15
1.02961e-15
9.36659e-16
9.36517e-16
9.36689e-16
9.3675e-16
8.57017e-16
8.56882e-16
8.57042e-16
8.571e-16
7.88382e-16
7.88252e-16
7.88402e-16
7.88456e-16
7.29001e-16
7.28876e-16
7.29013e-16
7.29064e-16
6.77464e-16
6.77344e-16
6.7747e-16
6.77518e-16
6.32631e-16
6.32517e-16
6.3263e-16
6.32675e-16
5.93569e-16
5.9346e-16
5.9356e-16
5.93603e-16
5.59506e-16
5.59403e-16
5.59491e-16
5.59531e-16
5.29804e-16
5.29706e-16
5.29781e-16
5.29819e-16
1.82618e-15
1.82605e-15
1.82596e-15
1.82611e-15
1.60346e-15
1.60333e-15
1.60325e-15
1.6034e-15
1.41989e-15
1.41976e-15
1.41969e-15
1.41984e-15
1.26698e-15
1.26686e-15
1.26679e-15
1.26693e-15
1.13845e-15
1.13833e-15
1.13827e-15
1.13841e-15
1.02956e-15
1.02946e-15
1.0294e-15
1.02954e-15
9.36703e-16
9.36605e-16
9.36558e-16
9.36685e-16
8.57055e-16
8.56965e-16
8.56923e-16
8.57043e-16
7.88414e-16
7.8833e-16
7.88294e-16
7.88406e-16
7.29025e-16
7.28948e-16
7.28917e-16
7.29021e-16
6.77481e-16
6.7741e-16
6.77385e-16
6.7748e-16
6.3264e-16
6.32576e-16
6.32555e-16
6.32641e-16
5.9357e-16
5.93512e-16
5.93496e-16
5.93572e-16
5.595e-16
5.59448e-16
5.59436e-16
5.59502e-16
5.2979e-16
5.29744e-16
5.29737e-16
5.29793e-16
)
;

boundaryField
{
    topWall
    {
        type            epsilonWallFunction;
        value           nonuniform List<scalar> 0();
    }
    botWall
    {
        type            epsilonWallFunction;
        value           nonuniform List<scalar> 0();
    }
    inlet
    {
        type            cyclic;
    }
    outlet
    {
        type            cyclic;
    }
    fixWall
    {
        type            empty;
    }
    procBoundary1to0
    {
        type            processor;
        value           nonuniform List<scalar> 8(2.09961e-15 2.09943e-15 2.09965e-15 2.09974e-15 2.09967e-15 2.09953e-15 2.09944e-15 2.09959e-15);
    }
    procBoundary1to2
    {
        type            processor;
        value           nonuniform List<scalar> 8(5.02963e-16 5.02864e-16 5.02931e-16 5.02967e-16 5.0294e-16 5.02897e-16 5.02892e-16 5.02943e-16);
    }
}


// ************************************************************************* //
