/*--------------------------------*- C++ -*----------------------------------*\
  =========                 |
  \\      /  F ield         | OpenFOAM: The Open Source CFD Toolbox
   \\    /   O peration     | Website:  https://openfoam.org
    \\  /    A nd           | Version:  dev
     \\/     M anipulation  |

   OpenFOAM for Windows 20.09 (v1)
   Built by CFD Support, www.cfdsupport.com (based on Symscape).
\*---------------------------------------------------------------------------*/
FoamFile
{
    version     2.0;
    format      ascii;
    class       volVectorField;
    location    "4";
    object      gradp;
}
// * * * * * * * * * * * * * * * * * * * * * * * * * * * * * * * * * * * * * //

dimensions      [1 -2 -2 0 0 0 0];

internalField   nonuniform List<vector> 
120
(
(3.73326 -98.3816 0)
(-1.18497 -98.2457 0)
(-1.2241 -98.4329 0)
(-1.24997 -98.7789 0)
(3.76686 -99.1575 0)
(-1.17706 -98.5848 0)
(-1.21566 -98.8083 0)
(-1.23812 -98.106 0)
(3.76682 -97.8486 0)
(-1.17915 -98.0528 0)
(-1.21612 -98.0963 0)
(-1.23833 -98.106 0)
(3.76681 -97.8551 0)
(-1.18119 -98.0504 0)
(-1.21654 -98.0965 0)
(-1.23838 -98.1015 0)
(3.76679 -97.8608 0)
(-1.18317 -98.048 0)
(-1.21697 -98.0962 0)
(-1.23835 -98.1009 0)
(3.76676 -97.8665 0)
(-1.18511 -98.0447 0)
(-1.21742 -98.0967 0)
(-1.23829 -98.0991 0)
(3.76679 -97.8718 0)
(-1.18701 -98.042 0)
(-1.21787 -98.099 0)
(-1.23827 -98.1019 0)
(3.76679 -97.8762 0)
(-1.1889 -98.039 0)
(-1.21842 -98.0984 0)
(-1.2382 -98.1033 0)
(3.76681 -97.8841 0)
(-1.19071 -98.0384 0)
(-1.21895 -98.0961 0)
(-1.23817 -98.1001 0)
(3.76679 -97.8903 0)
(-1.19243 -98.0368 0)
(-1.21945 -98.0955 0)
(-1.23814 -98.0994 0)
(3.7668 -97.8933 0)
(-1.19413 -98.0339 0)
(-1.21999 -98.0896 0)
(-1.23811 -98.0941 0)
(3.76666 -97.8982 0)
(-1.1957 -98.0326 0)
(-1.22045 -98.0886 0)
(-1.23817 -98.1056 0)
(3.76667 -97.9021 0)
(-1.19731 -98.0309 0)
(-1.2212 -98.0914 0)
(-1.23815 -98.1103 0)
(3.76648 -97.4705 0)
(-1.19886 -98.0271 0)
(-1.22178 -97.3108 0)
(-1.23817 -97.2639 0)
(3.7466 -97.7467 0)
(-1.19465 -97.7408 0)
(-1.20848 -97.4741 0)
(-1.25119 -97.971 0)
(-1.24974 -98.4812 0)
(-1.24487 -98.6269 0)
(-1.25943 -98.5553 0)
(3.67981 -99.5629 0)
(-1.26091 -98.1101 0)
(-1.25466 -98.7685 0)
(-1.2903 -98.6825 0)
(3.66984 -100.599 0)
(-1.26078 -98.1117 0)
(-1.25441 -98.0947 0)
(-1.28993 -98.0901 0)
(3.67189 -98.05 0)
(-1.26072 -98.0974 0)
(-1.2543 -98.0942 0)
(-1.28955 -98.0897 0)
(3.67387 -98.0482 0)
(-1.26066 -98.0906 0)
(-1.25428 -98.0915 0)
(-1.28916 -98.0893 0)
(3.6758 -98.0451 0)
(-1.26056 -98.0919 0)
(-1.25428 -98.0924 0)
(-1.28878 -98.0888 0)
(3.67768 -98.0447 0)
(-1.26055 -98.0938 0)
(-1.25423 -98.0952 0)
(-1.28837 -98.0883 0)
(3.67951 -98.0435 0)
(-1.26045 -98.0925 0)
(-1.25419 -98.0944 0)
(-1.28792 -98.0872 0)
(3.68129 -98.04 0)
(-1.2604 -98.0922 0)
(-1.25414 -98.0943 0)
(-1.28746 -98.0897 0)
(3.68302 -98.0384 0)
(-1.26035 -98.0922 0)
(-1.25414 -98.0943 0)
(-1.28699 -98.0903 0)
(3.68471 -98.0363 0)
(-1.26031 -98.0918 0)
(-1.25411 -98.094 0)
(-1.28649 -98.0876 0)
(3.68636 -98.026 0)
(-1.26035 -98.0909 0)
(-1.25408 -98.0923 0)
(-1.28585 -98.0865 0)
(3.68795 -98.0247 0)
(-1.26009 -98.0911 0)
(-1.25404 -98.0899 0)
(-1.28537 -98.0856 0)
(3.68949 -98.0204 0)
(-1.26001 -98.0932 0)
(-1.25398 -98.0907 0)
(-1.28469 -97.1048 0)
(3.69101 -96.8229 0)
(-1.27387 -97.4676 0)
(-1.23756 -97.8674 0)
(-1.26424 -97.9571 0)
(3.6834 -97.3327 0)
)
;

boundaryField
{
    topWall
    {
        type            extrapolatedCalculated;
        value           nonuniform List<vector> 0();
    }
    botWall
    {
        type            extrapolatedCalculated;
        value           nonuniform List<vector> 0();
    }
    inlet
    {
        type            cyclic;
    }
    outlet
    {
        type            cyclic;
    }
    fixWall
    {
        type            empty;
    }
    procBoundary1to0
    {
        type            processor;
        value           nonuniform List<vector> 8((3.74491 -97.0571 0) (-1.1762 -97.7156 0) (-1.20677 -97.7193 0) (-1.23732 -97.5023 0) (-1.26344 -97.7195 0) (-1.25343 -97.9468 0) (-1.2747 -97.9536 0) (3.66695 -97.0155 0));
    }
    procBoundary1to2
    {
        type            processor;
        value           nonuniform List<vector> 8((3.75968 -98.1772 0) (-1.19431 -99.0429 0) (-1.22561 -98.2866 0) (-1.23806 -98.8011 0) (-1.25829 -98.3371 0) (-1.26214 -98.3139 0) (-1.27578 -98.941 0) (3.69452 -98.524 0));
    }
}


// ************************************************************************* //
