/*--------------------------------*- C++ -*----------------------------------*\
  =========                 |
  \\      /  F ield         | OpenFOAM: The Open Source CFD Toolbox
   \\    /   O peration     | Website:  https://openfoam.org
    \\  /    A nd           | Version:  dev
     \\/     M anipulation  |

   OpenFOAM for Windows 20.09 (v1)
   Built by CFD Support, www.cfdsupport.com (based on Symscape).
\*---------------------------------------------------------------------------*/
FoamFile
{
    version     2.0;
    format      ascii;
    class       volTensorField;
    location    "4";
    object      gradU;
}
// * * * * * * * * * * * * * * * * * * * * * * * * * * * * * * * * * * * * * //

dimensions      [0 0 -1 0 0 0 0];

internalField   nonuniform List<tensor> 
120
(
(-0.000300917 -9.45029e-05 0 0.282097 0.000657595 0 0 0 0)
(0.0012313 -0.000111737 0 0.295802 -0.00159463 0 0 0 0)
(-7.57717e-05 0.0002808 0 0.288253 7.84211e-05 0 0 0 0)
(-0.000612229 6.0278e-05 0 0.299546 0.000594374 0 0 0 0)
(-0.00022636 -0.000118678 0 0.229878 0.000632872 0 0 0 0)
(0.0012307 -0.000121906 0 0.235298 -0.0015921 0 0 0 0)
(-6.04386e-05 0.000300521 0 0.229888 0.000197594 0 0 0 0)
(-0.000416502 6.25651e-05 0 0.240007 0.000281605 0 0 0 0)
(-0.000217943 -0.000141802 0 0.181337 0.000525489 0 0 0 0)
(0.00123146 -0.000118991 0 0.183679 -0.00151515 0 0 0 0)
(2.71141e-06 0.000312028 0 0.181175 0.000115658 0 0 0 0)
(-0.00027333 6.12837e-05 0 0.189212 0.000202225 0 0 0 0)
(-0.000187781 -0.000167993 0 0.142201 0.000660114 0 0 0 0)
(0.00122801 -0.000128737 0 0.142644 -0.00147901 0 0 0 0)
(3.17923e-05 0.000329144 0 0.141401 5.08798e-05 0 0 0 0)
(-0.00017424 6.44509e-05 0 0.147516 0.000119967 0 0 0 0)
(-0.000194558 -0.000191035 0 0.110675 0.000522045 0 0 0 0)
(0.00121813 -0.000129145 0 0.109421 -0.00148691 0 0 0 0)
(8.39048e-05 0.000338678 0 0.109347 4.51422e-05 0 0 0 0)
(-9.8153e-05 6.29102e-05 0 0.114094 7.54856e-06 0 0 0 0)
(-0.000190424 -0.000216599 0 0.0856754 0.000544257 0 0 0 0)
(0.00120588 -0.000136685 0 0.0835756 -0.00149436 0 0 0 0)
(0.000109679 0.000354051 0 0.0835273 -3.38677e-05 0 0 0 0)
(-4.72174e-05 6.65259e-05 0 0.0870957 -3.9442e-05 0 0 0 0)
(-0.00020566 -0.000241227 0 0.0659307 0.000525394 0 0 0 0)
(0.00118233 -0.000138781 0 0.063013 -0.001405 0 0 0 0)
(0.000142573 0.000362926 0 0.0629631 1.05701e-05 0 0 0 0)
(-3.23963e-06 6.53745e-05 0 0.066228 -5.35283e-05 0 0 0 0)
(-0.000212068 -0.000265231 0 0.0505769 0.000521357 0 0 0 0)
(0.00115642 -0.000145266 0 0.0471514 -0.00146134 0 0 0 0)
(0.000163262 0.000376576 0 0.0468345 -0.000108824 0 0 0 0)
(3.08899e-05 6.85565e-05 0 0.049755 -0.000136373 0 0 0 0)
(-0.000235965 -0.000290353 0 0.0391527 0.000562037 0 0 0 0)
(0.00111996 -0.000149284 0 0.0350527 -0.00131291 0 0 0 0)
(0.000185966 0.000385009 0 0.034111 -3.45273e-05 0 0 0 0)
(5.9672e-05 6.85033e-05 0 0.0372285 -0.000118245 0 0 0 0)
(-0.000246187 -0.000312386 0 0.030722 0.000553088 0 0 0 0)
(0.00107239 -0.000155208 0 0.0260615 -0.0012946 0 0 0 0)
(0.000199525 0.000396487 0 0.0243751 -0.000128658 0 0 0 0)
(9.01259e-05 7.05995e-05 0 0.0274562 -0.000164457 0 0 0 0)
(-0.000270589 -0.000337678 0 0.025042 0.000451793 0 0 0 0)
(0.00101418 -0.000160646 0 0.019372 -0.00131982 0 0 0 0)
(0.000209211 0.000403845 0 0.0169565 -0.000103806 0 0 0 0)
(0.000107538 7.08807e-05 0 0.0202968 -0.000213779 0 0 0 0)
(-0.000282912 -0.0003565 0 0.0217038 0.00054906 0 0 0 0)
(0.000937635 -0.000164468 0 0.0146829 -0.00120391 0 0 0 0)
(0.000214937 0.000414921 0 0.0108341 -8.89113e-05 0 0 0 0)
(0.000133432 7.3756e-05 0 0.0145743 -0.000227514 0 0 0 0)
(-0.000309148 -0.000382803 0 0.0208122 0.000438631 0 0 0 0)
(0.000833015 -0.000171279 0 0.0117159 -0.00104465 0 0 0 0)
(0.000207401 0.000420118 0 0.0059935 -0.00010528 0 0 0 0)
(0.000147844 7.48173e-05 0 0.010929 -0.000289657 0 0 0 0)
(-0.000318076 -0.000397043 0 0.022105 0.000586046 0 0 0 0)
(0.000690657 -0.000173533 0 0.00953898 -0.000913258 0 0 0 0)
(0.000201823 0.000427504 0 0.000653441 -9.66957e-05 0 0 0 0)
(0.000186624 7.55801e-05 0 0.00824583 -0.000224896 0 0 0 0)
(-0.000348692 -0.000418002 0 0.0251373 0.000680651 0 0 0 0)
(0.000475489 -0.000182658 0 0.00826086 -0.000386263 0 0 0 0)
(0.000185849 0.000431591 0 -0.00052842 -0.000210725 0 0 0 0)
(0.000240807 7.74487e-05 0 0.00891711 -0.000283618 0 0 0 0)
(-0.000302326 -0.000204616 0 0.318212 0.000254008 0 0 0 0)
(0.000622082 -0.000213836 0 0.313255 -0.000481213 0 0 0 0)
(0.000679015 1.8319e-05 0 0.313863 -0.00096784 0 0 0 0)
(-0.00124115 0.000265294 0 0.293839 0.00119039 0 0 0 0)
(-0.000236812 -0.000211716 0 0.250222 0.000257932 0 0 0 0)
(0.000536509 -0.000222263 0 0.246685 -0.000320796 0 0 0 0)
(0.00052361 2.98735e-05 0 0.242261 -0.000671267 0 0 0 0)
(-0.00135071 0.000281604 0 0.23032 0.00124583 0 0 0 0)
(-0.000191026 -0.000214656 0 0.195711 0.000228802 0 0 0 0)
(0.000489399 -0.000229322 0 0.193788 -0.000416897 0 0 0 0)
(0.000406257 4.44293e-05 0 0.189761 -0.000607139 0 0 0 0)
(-0.00144753 0.00028703 0 0.181364 0.00144371 0 0 0 0)
(-0.00016055 -0.000222035 0 0.151912 0.000148471 0 0 0 0)
(0.000437343 -0.000236196 0 0.150976 -0.00035989 0 0 0 0)
(0.000316539 6.08836e-05 0 0.146821 -0.000530699 0 0 0 0)
(-0.00149111 0.000300482 0 0.141241 0.00147502 0 0 0 0)
(-0.000133357 -0.000222654 0 0.116969 0.000169644 0 0 0 0)
(0.000404545 -0.000240642 0 0.117036 -0.000270867 0 0 0 0)
(0.000244011 7.50112e-05 0 0.113119 -0.000380845 0 0 0 0)
(-0.00152452 0.000306877 0 0.10958 0.00142944 0 0 0 0)
(-0.000111518 -0.000226675 0 0.0892221 0.000113993 0 0 0 0)
(0.00037318 -0.00024537 0 0.0897917 -0.000305703 0 0 0 0)
(0.000192263 8.92222e-05 0 0.0862699 -0.000398022 0 0 0 0)
(-0.00153184 0.00031553 0 0.0842417 0.00151716 0 0 0 0)
(-8.84247e-05 -0.000227091 0 0.0676495 0.000132405 0 0 0 0)
(0.000355341 -0.000249175 0 0.0686106 -0.000231794 0 0 0 0)
(0.000151511 0.000105392 0 0.0656159 -0.000327322 0 0 0 0)
(-0.00153443 0.000322581 0 0.0643117 0.00151293 0 0 0 0)
(-7.1807e-05 -0.000229646 0 0.0506092 7.88992e-05 0 0 0 0)
(0.000339287 -0.000253033 0 0.0517847 -0.000257701 0 0 0 0)
(0.000120614 0.000118301 0 0.0496364 -0.000309123 0 0 0 0)
(-0.0015266 0.000329742 0 0.0489698 0.00148622 0 0 0 0)
(-5.45968e-05 -0.000229113 0 0.0376652 8.8054e-05 0 0 0 0)
(0.000339127 -0.000255642 0 0.0391059 -0.000212118 0 0 0 0)
(0.000104597 0.000134458 0 0.0375519 -0.000268604 0 0 0 0)
(-0.00151876 0.000336423 0 0.0370998 0.00151644 0 0 0 0)
(-4.05175e-05 -0.000231211 0 0.0272471 1.39904e-05 0 0 0 0)
(0.000337398 -0.000258977 0 0.0290993 -0.000291232 0 0 0 0)
(8.71789e-05 0.00014711 0 0.0284017 -0.000280867 0 0 0 0)
(-0.00149992 0.000343586 0 0.0281389 0.00154487 0 0 0 0)
(-2.7212e-05 -0.000231226 0 0.0195549 8.5586e-05 0 0 0 0)
(0.000358371 -0.000260557 0 0.0218242 -0.000243671 0 0 0 0)
(8.859e-05 0.000165059 0 0.0215044 -0.000354205 0 0 0 0)
(-0.00148009 0.000350322 0 0.0215756 0.00132701 0 0 0 0)
(-1.50602e-05 -0.000231709 0 0.0132524 0.000147285 0 0 0 0)
(0.000369891 -0.000266307 0 0.0158825 -0.000164321 0 0 0 0)
(8.30352e-05 0.000173288 0 0.0163393 -8.33995e-05 0 0 0 0)
(-0.00144096 0.000357019 0 0.0169965 0.00150358 0 0 0 0)
(-5.40891e-06 -0.000230173 0 0.00918504 4.16621e-06 0 0 0 0)
(0.00040982 -0.000264401 0 0.0118255 -0.000396066 0 0 0 0)
(0.000107156 0.000192858 0 0.0123034 -0.000334274 0 0 0 0)
(-0.00139068 0.000360863 0 0.0138257 0.00138791 0 0 0 0)
(-1.18762e-07 -0.000233482 0 0.00623122 6.11876e-05 0 0 0 0)
(0.000421865 -0.000271947 0 0.00832979 -0.000238327 0 0 0 0)
(0.000116372 0.000203021 0 0.00903613 -0.000326236 0 0 0 0)
(-0.00129915 0.000369901 0 0.0119116 0.00119872 0 0 0 0)
(-4.00952e-06 -0.000230397 0 0.00655135 -0.000122047 0 0 0 0)
(0.000456568 -0.000270858 0 0.00580517 -0.000369544 0 0 0 0)
(0.000166853 0.000216808 0 0.00466498 -0.000170738 0 0 0 0)
(-0.00117286 0.000376067 0 0.0128351 0.00151693 0 0 0 0)
)
;

boundaryField
{
    topWall
    {
        type            extrapolatedCalculated;
        value           nonuniform List<tensor> 0();
    }
    botWall
    {
        type            extrapolatedCalculated;
        value           nonuniform List<tensor> 0();
    }
    inlet
    {
        type            cyclic;
    }
    outlet
    {
        type            cyclic;
    }
    fixWall
    {
        type            empty;
    }
    procBoundary1to0
    {
        type            processor;
        value           nonuniform List<tensor> 8((-0.000259079 -7.22613e-05 0 0.351846 0.000708827 0 0 0 0) (0.0011281 -0.000112253 0 0.370415 -0.00137522 0 0 0 0) (-0.000122844 0.000264037 0 0.363825 0.000259041 0 0 0 0) (-0.000915813 5.96387e-05 0 0.373757 0.000811347 0 0 0 0) (-0.000465296 -0.000193789 0 0.393015 0.000451594 0 0 0 0) (0.000608999 -0.000201899 0 0.389111 -0.000532888 0 0 0 0) (0.000847219 2.0134e-06 0 0.39572 -0.000858266 0 0 0 0) (-0.000821287 0.000254514 0 0.371071 0.000696563 0 0 0 0));
    }
    procBoundary1to2
    {
        type            processor;
        value           nonuniform List<tensor> 8((-0.000394313 -0.000428763 0 0.0248856 0.000520434 0 0 0 0) (0.000262895 -0.00018839 0 0.00715311 -0.000128576 0 0 0 0) (0.00021276 0.000429215 0 0.000149021 -0.000232625 0 0 0 0) (0.00030462 7.70581e-05 0 0.00857699 -0.000261004 0 0 0 0) (-5.19844e-05 -0.000234914 0 0.00559117 -8.48245e-05 0 0 0 0) (0.000390425 -0.000272759 0 0.00421775 -0.000432576 0 0 0 0) (0.000233537 0.000234462 0 0.00384523 -0.000729195 0 0 0 0) (-0.000957941 0.000384091 0 0.0145038 0.000799709 0 0 0 0));
    }
}


// ************************************************************************* //
