/*--------------------------------*- C++ -*----------------------------------*\
  =========                 |
  \\      /  F ield         | OpenFOAM: The Open Source CFD Toolbox
   \\    /   O peration     | Website:  https://openfoam.org
    \\  /    A nd           | Version:  dev
     \\/     M anipulation  |

   OpenFOAM for Windows 20.09 (v1)
   Built by CFD Support, www.cfdsupport.com (based on Symscape).
\*---------------------------------------------------------------------------*/
FoamFile
{
    version     2.0;
    format      ascii;
    class       volVectorField;
    location    "4";
    object      gradp_rgh;
}
// * * * * * * * * * * * * * * * * * * * * * * * * * * * * * * * * * * * * * //

dimensions      [1 -2 -2 0 0 0 0];

internalField   nonuniform List<vector> 
120
(
(-1.2672 -0.288561 0)
(-1.18511 -0.148118 0)
(-1.22434 -0.337225 0)
(-1.25021 -0.663442 0)
(-1.23315 -1.07555 0)
(-1.17706 -0.491975 0)
(-1.21565 -0.718192 0)
(-1.23812 0.00125292 0)
(-1.23318 0.251085 0)
(-1.17915 0.0472133 0)
(-1.21612 0.0034398 0)
(-1.23833 -0.00608092 0)
(-1.23318 0.244704 0)
(-1.18119 0.0496101 0)
(-1.21654 0.00320866 0)
(-1.23838 -0.001621 0)
(-1.23321 0.238945 0)
(-1.18318 0.0518847 0)
(-1.21697 0.00348986 0)
(-1.23835 -0.00111248 0)
(-1.23323 0.233281 0)
(-1.18511 0.0552414 0)
(-1.21743 0.00314888 0)
(-1.23829 0.000824274 0)
(-1.23321 0.227994 0)
(-1.18701 0.0579285 0)
(-1.21788 0.00099492 0)
(-1.23827 -0.0018916 0)
(-1.23321 0.223588 0)
(-1.18889 0.0609433 0)
(-1.21842 0.00175152 0)
(-1.2382 -0.00316347 0)
(-1.23319 0.215861 0)
(-1.19071 0.0616504 0)
(-1.21895 0.00415483 0)
(-1.23817 0.000147024 0)
(-1.23321 0.209878 0)
(-1.19242 0.0632954 0)
(-1.21945 0.00479033 0)
(-1.23814 0.000783436 0)
(-1.2332 0.207187 0)
(-1.19413 0.0663638 0)
(-1.21999 0.0106447 0)
(-1.23811 0.0061693 0)
(-1.23335 0.202201 0)
(-1.1957 0.0674842 0)
(-1.22045 0.0111233 0)
(-1.23818 -0.00571549 0)
(-1.23334 0.198151 0)
(-1.19731 0.0693846 0)
(-1.22121 0.00809502 0)
(-1.23814 -0.0106747 0)
(-1.23351 0.640772 0)
(-1.19886 0.0994467 0)
(-1.22179 0.810194 0)
(-1.23815 0.814481 0)
(-1.25348 0.357454 0)
(-1.19449 0.393897 0)
(-1.20929 0.643482 0)
(-1.25144 0.12568 0)
(-1.24946 -0.371804 0)
(-1.24464 -0.533762 0)
(-1.25901 -0.461293 0)
(-1.32004 -1.48202 0)
(-1.2609 -0.00541069 0)
(-1.25466 -0.678058 0)
(-1.2903 -0.590935 0)
(-1.33016 -2.53345 0)
(-1.26078 -0.0120144 0)
(-1.2544 0.00483624 0)
(-1.28993 0.00945073 0)
(-1.32811 0.0494904 0)
(-1.26072 0.00234335 0)
(-1.2543 0.0054831 0)
(-1.28955 0.0100626 0)
(-1.32613 0.0515395 0)
(-1.26066 0.00920878 0)
(-1.25427 0.00829745 0)
(-1.28916 0.0105665 0)
(-1.3242 0.0548359 0)
(-1.26056 0.00808596 0)
(-1.25428 0.00756078 0)
(-1.28878 0.011022 0)
(-1.32233 0.0552446 0)
(-1.26055 0.00621786 0)
(-1.25423 0.00487632 0)
(-1.28837 0.0115686 0)
(-1.3205 0.0564561 0)
(-1.26045 0.00762566 0)
(-1.25419 0.00572772 0)
(-1.28792 0.0126422 0)
(-1.31872 0.0600262 0)
(-1.2604 0.00784939 0)
(-1.25414 0.00593847 0)
(-1.28746 0.0103214 0)
(-1.31698 0.0617731 0)
(-1.26035 0.00794428 0)
(-1.25415 0.00592522 0)
(-1.28699 0.00993168 0)
(-1.31529 0.0640057 0)
(-1.26032 0.00840496 0)
(-1.25411 0.00637012 0)
(-1.28649 0.0129649 0)
(-1.31365 0.0745109 0)
(-1.26035 0.00932039 0)
(-1.25407 0.00794667 0)
(-1.28585 0.0140414 0)
(-1.31206 0.0755886 0)
(-1.26009 0.00974878 0)
(-1.25403 0.010145 0)
(-1.28537 0.0144718 0)
(-1.31051 0.0793064 0)
(-1.26 0.0127454 0)
(-1.25399 0.0035811 0)
(-1.2847 1.02048 0)
(-1.309 1.30764 0)
(-1.2736 0.654545 0)
(-1.23723 0.220577 0)
(-1.26363 0.146447 0)
(-1.31684 0.785897 0)
)
;

boundaryField
{
    topWall
    {
        type            extrapolatedCalculated;
        value           nonuniform List<vector> 0();
    }
    botWall
    {
        type            extrapolatedCalculated;
        value           nonuniform List<vector> 0();
    }
    inlet
    {
        type            cyclic;
    }
    outlet
    {
        type            cyclic;
    }
    fixWall
    {
        type            empty;
    }
    procBoundary1to0
    {
        type            processor;
        value           nonuniform List<vector> 8((-1.25538 1.06068 0) (-1.17625 0.392351 0) (-1.20707 0.39092 0) (-1.23755 0.589725 0) (-1.26306 0.375418 0) (-1.25317 0.162549 0) (-1.27449 0.154893 0) (-1.33304 1.11868 0));
    }
    procBoundary1to2
    {
        type            processor;
        value           nonuniform List<vector> 8((-1.24004 -0.0884637 0) (-1.1941 -0.969327 0) (-1.22626 -0.206863 0) (-1.23796 -0.67921 0) (-1.25842 -0.243113 0) (-1.26246 -0.208204 0) (-1.27528 -0.866216 0) (-1.30548 -0.454672 0));
    }
}


// ************************************************************************* //
