/*--------------------------------*- C++ -*----------------------------------*\
  =========                 |
  \\      /  F ield         | OpenFOAM: The Open Source CFD Toolbox
   \\    /   O peration     | Website:  https://openfoam.org
    \\  /    A nd           | Version:  dev
     \\/     M anipulation  |

   OpenFOAM for Windows 20.09 (v1)
   Built by CFD Support, www.cfdsupport.com (based on Symscape).
\*---------------------------------------------------------------------------*/
FoamFile
{
    version     2.0;
    format      ascii;
    class       volScalarField;
    location    "4";
    object      nut;
}
// * * * * * * * * * * * * * * * * * * * * * * * * * * * * * * * * * * * * * //

dimensions      [0 2 -1 0 0 0 0];

internalField   nonuniform List<scalar> 
120
(
2.42994e-18
2.43017e-18
2.42987e-18
2.42977e-18
2.76746e-18
2.76775e-18
2.76738e-18
2.76725e-18
3.12527e-18
3.12564e-18
3.12518e-18
3.12501e-18
3.50247e-18
3.50291e-18
3.50236e-18
3.50216e-18
3.8979e-18
3.89843e-18
3.89777e-18
3.89754e-18
4.31013e-18
4.31075e-18
4.30999e-18
4.30972e-18
4.73742e-18
4.73813e-18
4.73727e-18
4.73696e-18
5.17766e-18
5.17848e-18
5.17751e-18
5.17716e-18
5.62841e-18
5.62934e-18
5.62828e-18
5.62789e-18
6.08689e-18
6.08793e-18
6.08678e-18
6.08635e-18
6.54993e-18
6.55109e-18
6.54987e-18
6.54941e-18
7.01411e-18
7.01537e-18
7.01412e-18
7.01362e-18
7.4757e-18
7.47707e-18
7.47581e-18
7.47527e-18
7.93082e-18
7.93228e-18
7.93103e-18
7.93046e-18
8.37544e-18
8.37699e-18
8.3758e-18
8.3752e-18
2.42985e-18
2.43003e-18
2.43014e-18
2.42994e-18
2.76735e-18
2.76758e-18
2.76771e-18
2.76746e-18
3.12514e-18
3.12541e-18
3.12557e-18
3.12525e-18
3.50231e-18
3.50264e-18
3.50282e-18
3.50242e-18
3.89772e-18
3.8981e-18
3.89831e-18
3.89783e-18
4.30993e-18
4.31037e-18
4.31059e-18
4.31003e-18
4.73719e-18
4.73769e-18
4.73793e-18
4.73728e-18
5.17743e-18
5.17798e-18
5.17823e-18
5.1775e-18
5.62819e-18
5.62879e-18
5.62904e-18
5.62824e-18
6.08668e-18
6.08733e-18
6.08758e-18
6.08671e-18
6.54977e-18
6.55045e-18
6.5507e-18
6.54978e-18
7.014e-18
7.01472e-18
7.01495e-18
7.01399e-18
7.47568e-18
7.47642e-18
7.47662e-18
7.47566e-18
7.93091e-18
7.93164e-18
7.93181e-18
7.93087e-18
8.37567e-18
8.37639e-18
8.37651e-18
8.37562e-18
)
;

boundaryField
{
    topWall
    {
        type            nutkWallFunction;
        Cmu             0.09;
        kappa           0.41;
        E               9.8;
        value           nonuniform List<scalar> 0();
    }
    botWall
    {
        type            nutkWallFunction;
        Cmu             0.09;
        kappa           0.41;
        E               9.8;
        value           nonuniform List<scalar> 0();
    }
    inlet
    {
        type            cyclic;
    }
    outlet
    {
        type            cyclic;
    }
    fixWall
    {
        type            empty;
    }
    procBoundary1to0
    {
        type            processor;
        value           nonuniform List<scalar> 8(2.11341e-18 2.11359e-18 2.11337e-18 2.11328e-18 2.11335e-18 2.11349e-18 2.11358e-18 2.11343e-18);
    }
    procBoundary1to2
    {
        type            processor;
        value           nonuniform List<scalar> 8(8.82241e-18 8.82413e-18 8.82297e-18 8.82233e-18 8.82282e-18 8.82356e-18 8.82364e-18 8.82275e-18);
    }
}


// ************************************************************************* //
