/*--------------------------------*- C++ -*----------------------------------*\
  =========                 |
  \\      /  F ield         | OpenFOAM: The Open Source CFD Toolbox
   \\    /   O peration     | Website:  https://openfoam.org
    \\  /    A nd           | Version:  dev
     \\/     M anipulation  |

   OpenFOAM for Windows 20.09 (v1)
   Built by CFD Support, www.cfdsupport.com (based on Symscape).
\*---------------------------------------------------------------------------*/
FoamFile
{
    version     2.0;
    format      ascii;
    class       volScalarField;
    location    "4";
    object      omega;
}
// * * * * * * * * * * * * * * * * * * * * * * * * * * * * * * * * * * * * * //

dimensions      [0 0 -1 0 0 0 0];

internalField   nonuniform List<scalar> 
120
(
91.3787
91.3701
91.3811
91.3851
80.2341
80.2255
80.2363
80.2402
71.0482
71.0398
71.0502
71.054
63.3966
63.3886
63.3986
63.4023
56.9652
56.9574
56.967
56.9705
51.5169
51.5095
51.5186
51.5218
46.8704
46.8633
46.8719
46.875
42.8851
42.8783
42.8864
42.8893
39.4507
39.4441
39.4516
39.4543
36.4792
36.4729
36.4798
36.4824
33.9003
33.8943
33.9006
33.903
31.6569
31.6511
31.6568
31.6591
29.7022
29.6967
29.7018
29.7039
27.9977
27.9925
27.9969
27.9989
26.5114
26.5065
26.5103
26.5122
91.3819
91.3753
91.3711
91.3785
80.2372
80.2307
80.2268
80.2342
71.0511
71.0449
71.0412
71.0486
63.3994
63.3935
63.3902
63.3974
56.9678
56.9623
56.9593
56.9662
51.5193
51.5141
51.5114
51.5181
46.8726
46.8677
46.8653
46.8717
42.887
42.8825
42.8804
42.8864
39.4522
39.448
39.4462
39.4518
36.4804
36.4765
36.475
36.4802
33.9011
33.8976
33.8963
33.9011
31.6573
31.6541
31.6531
31.6574
29.7023
29.6993
29.6985
29.7024
27.9974
27.9948
27.9942
27.9975
26.5107
26.5084
26.508
26.5108
)
;

boundaryField
{
    topWall
    {
        beta1           0.075;
        blended         0;
        type            omegaWallFunction;
        value           nonuniform List<scalar> 0();
    }
    botWall
    {
        beta1           0.075;
        blended         0;
        type            omegaWallFunction;
        value           nonuniform List<scalar> 0();
    }
    inlet
    {
        type            cyclic;
    }
    outlet
    {
        type            cyclic;
    }
    fixWall
    {
        type            empty;
    }
    procBoundary1to0
    {
        type            processor;
        value           nonuniform List<scalar> 8(105.065 105.055 105.067 105.071 105.068 105.061 105.056 105.063);
    }
    procBoundary1to2
    {
        type            processor;
        value           nonuniform List<scalar> 8(25.1683 25.1633 25.1666 25.1685 25.1671 25.165 25.1647 25.1673);
    }
}


// ************************************************************************* //
