/*--------------------------------*- C++ -*----------------------------------*\
  =========                 |
  \\      /  F ield         | OpenFOAM: The Open Source CFD Toolbox
   \\    /   O peration     | Website:  https://openfoam.org
    \\  /    A nd           | Version:  dev
     \\/     M anipulation  |

   OpenFOAM for Windows 20.09 (v1)
   Built by CFD Support, www.cfdsupport.com (based on Symscape).
\*---------------------------------------------------------------------------*/
FoamFile
{
    version     2.0;
    format      ascii;
    class       volScalarField;
    location    "4";
    object      p;
}
// * * * * * * * * * * * * * * * * * * * * * * * * * * * * * * * * * * * * * //

dimensions      [1 -1 -2 0 0 0 0];

internalField   nonuniform List<scalar> 
120
(
-1.22359
-1.28168
-1.34209
-1.40409
-1.30732
-1.36427
-1.42502
-1.48584
-1.38886
-1.44599
-1.50677
-1.5676
-1.4704
-1.52769
-1.58852
-1.64935
-1.55195
-1.6094
-1.67027
-1.7311
-1.6335
-1.69111
-1.75201
-1.81285
-1.71506
-1.77281
-1.83376
-1.8946
-1.79662
-1.85451
-1.91551
-1.97635
-1.87819
-1.93621
-1.99726
-2.0581
-1.95976
-2.01791
-2.079
-2.13985
-2.04134
-2.0996
-2.16075
-2.2216
-2.12292
-2.1813
-2.24249
-2.30334
-2.2045
-2.26299
-2.32423
-2.38511
-2.28609
-2.34468
-2.40597
-2.46686
-2.36695
-2.42637
-2.48642
-2.54722
-1.46709
-1.52906
-1.59157
-1.655
-1.54884
-1.61193
-1.6743
-1.74096
-1.6306
-1.69368
-1.75605
-1.82267
-1.71236
-1.77542
-1.83779
-1.90438
-1.7941
-1.85717
-1.91953
-1.98608
-1.87584
-1.93891
-2.00127
-2.06778
-1.95759
-2.02065
-2.08301
-2.14949
-2.03933
-2.1024
-2.16475
-2.23119
-2.12107
-2.18414
-2.24649
-2.31289
-2.20282
-2.26589
-2.32823
-2.39459
-2.28456
-2.34763
-2.40997
-2.47628
-2.3663
-2.42938
-2.49171
-2.55796
-2.44805
-2.51112
-2.57345
-2.63966
-2.52979
-2.59286
-2.65519
-2.72133
-2.61153
-2.67461
-2.73529
-2.80103
)
;

boundaryField
{
    topWall
    {
        type            calculated;
        value           nonuniform List<scalar> 0();
    }
    botWall
    {
        type            calculated;
        value           nonuniform List<scalar> 0();
    }
    inlet
    {
        type            cyclic;
    }
    outlet
    {
        type            cyclic;
    }
    fixWall
    {
        type            empty;
    }
    procBoundary1to0
    {
        type            processor;
        value           nonuniform List<scalar> 8(-1.14335 -1.20053 -1.26097 -1.32121 -1.3847 -1.44755 -1.51004 -1.57502);
    }
    procBoundary1to2
    {
        type            processor;
        value           nonuniform List<scalar> 8(-2.449 -2.50758 -2.56843 -2.63015 -2.69223 -2.75597 -2.81845 -2.88355);
    }
}


// ************************************************************************* //
