/*--------------------------------*- C++ -*----------------------------------*\
  =========                 |
  \\      /  F ield         | OpenFOAM: The Open Source CFD Toolbox
   \\    /   O peration     | Website:  https://openfoam.org
    \\  /    A nd           | Version:  dev
     \\/     M anipulation  |

   OpenFOAM for Windows 20.09 (v1)
   Built by CFD Support, www.cfdsupport.com (based on Symscape).
\*---------------------------------------------------------------------------*/
FoamFile
{
    version     2.0;
    format      ascii;
    class       volScalarField;
    location    "4";
    object      p_rgh;
}
// * * * * * * * * * * * * * * * * * * * * * * * * * * * * * * * * * * * * * //

dimensions      [1 -1 -2 0 0 0 0];

internalField   nonuniform List<scalar> 
120
(
0.0435613
-0.0145409
-0.0749493
-0.136975
0.0415565
-0.0153983
-0.0761492
-0.136964
0.0417688
-0.0153609
-0.0761463
-0.136972
0.041975
-0.0153196
-0.0761435
-0.136974
0.0421766
-0.0152782
-0.076141
-0.136975
0.0423733
-0.0152331
-0.0761377
-0.136976
0.0425654
-0.0151861
-0.0761357
-0.136974
0.0427532
-0.0151366
-0.076136
-0.136979
0.042938
-0.0150845
-0.0761328
-0.136979
0.043113
-0.0150338
-0.0761291
-0.136979
0.0432878
-0.014979
-0.0761248
-0.136978
0.0434583
-0.0149232
-0.0761114
-0.136968
0.0436248
-0.0148666
-0.0761063
-0.136987
0.0437886
-0.0148076
-0.0760979
-0.136986
0.0446928
-0.0147008
-0.074756
-0.13563
-0.199971
-0.26192
-0.324435
-0.387821
-0.199962
-0.263054
-0.325427
-0.392084
-0.19998
-0.26305
-0.32542
-0.392043
-0.199982
-0.263046
-0.325412
-0.392001
-0.199976
-0.263041
-0.325403
-0.391957
-0.199966
-0.263032
-0.325394
-0.39191
-0.199962
-0.263029
-0.325385
-0.391865
-0.199956
-0.263024
-0.325375
-0.391816
-0.19995
-0.263019
-0.325364
-0.391765
-0.199943
-0.263014
-0.325358
-0.391713
-0.199936
-0.263009
-0.325347
-0.391659
-0.199929
-0.263004
-0.325336
-0.391589
-0.199921
-0.262996
-0.325324
-0.391533
-0.199913
-0.262987
-0.325312
-0.391456
-0.1999
-0.26299
-0.323623
-0.389353
)
;

boundaryField
{
    topWall
    {
        type            zeroGradient;
    }
    botWall
    {
        type            zeroGradient;
    }
    inlet
    {
        type            fixedJump;
        patchType       cyclic;
        jump            uniform -0.5;
        value           nonuniform List<scalar> 
15
(
0.0776698
0.0761661
0.0760461
0.0759348
0.0758146
0.0757001
0.0755864
0.0754687
0.07535
0.0752317
0.0751096
0.0749869
0.0748627
0.0747364
0.0778702
)
;
    }
    outlet
    {
        type            fixedJump;
        patchType       cyclic;
        value           nonuniform List<scalar> 
15
(
-0.42233
-0.423834
-0.423954
-0.424065
-0.424185
-0.4243
-0.424414
-0.424531
-0.42465
-0.424768
-0.42489
-0.425013
-0.425137
-0.425264
-0.42213
)
;
    }
    fixWall
    {
        type            empty;
    }
    procBoundary1to0
    {
        type            processor;
        value           nonuniform List<scalar> 8(0.0420375 -0.0151514 -0.0755872 -0.135858 -0.199342 -0.262164 -0.324659 -0.389614);
    }
    procBoundary1to2
    {
        type            processor;
        value           nonuniform List<scalar> 8(0.0443843 -0.0141511 -0.0750254 -0.136777 -0.198822 -0.262619 -0.325068 -0.390147);
    }
}


// ************************************************************************* //
