/*--------------------------------*- C++ -*----------------------------------*\
  =========                 |
  \\      /  F ield         | OpenFOAM: The Open Source CFD Toolbox
   \\    /   O peration     | Website:  https://openfoam.org
    \\  /    A nd           | Version:  dev
     \\/     M anipulation  |

   OpenFOAM for Windows 20.09 (v1)
   Built by CFD Support, www.cfdsupport.com (based on Symscape).
\*---------------------------------------------------------------------------*/
FoamFile
{
    version     2.0;
    format      ascii;
    class       surfaceScalarField;
    location    "4";
    object      phi;
}
// * * * * * * * * * * * * * * * * * * * * * * * * * * * * * * * * * * * * * //

dimensions      [0 3 -1 0 0 0 0];

internalField   nonuniform List<scalar> 
217
(
1.86792e-08
6.74321e-10
1.87467e-08
-7.18418e-10
1.87352e-08
9.12895e-11
7.33399e-10
1.87147e-08
1.88616e-08
7.00611e-10
1.89257e-08
-7.82556e-10
1.89187e-08
9.83163e-11
7.47513e-10
1.89046e-08
1.90036e-08
7.25843e-10
1.90674e-08
-8.46305e-10
1.90631e-08
1.02629e-10
7.55692e-10
1.90549e-08
1.91158e-08
7.49057e-10
1.91789e-08
-9.09379e-10
1.91759e-08
1.05625e-10
7.59685e-10
1.91719e-08
1.92022e-08
7.71947e-10
1.92645e-08
-9.71711e-10
1.92637e-08
1.06452e-10
7.605e-10
1.92629e-08
1.92692e-08
7.94069e-10
1.93307e-08
-1.03318e-09
1.9331e-08
1.06198e-10
7.59148e-10
1.93324e-08
1.93203e-08
8.16256e-10
1.93805e-08
-1.09342e-09
1.9382e-08
1.04727e-10
7.55843e-10
1.93854e-08
1.93593e-08
8.38127e-10
1.94181e-08
-1.15218e-09
1.94206e-08
1.02205e-10
7.51267e-10
1.94253e-08
1.93885e-08
8.60735e-10
1.94457e-08
-1.20935e-09
1.94491e-08
9.88197e-11
7.45468e-10
1.9455e-08
1.94114e-08
8.82986e-10
1.94661e-08
-1.26403e-09
1.94701e-08
9.47715e-11
7.38397e-10
1.94773e-08
1.94286e-08
9.05771e-10
1.94806e-08
-1.31603e-09
1.94851e-08
9.0317e-11
7.30587e-10
1.94929e-08
1.94427e-08
9.28561e-10
1.94913e-08
-1.36456e-09
1.9496e-08
8.55243e-11
7.21779e-10
1.95049e-08
1.94543e-08
9.52185e-10
1.94984e-08
-1.40866e-09
1.95027e-08
8.12172e-11
7.12265e-10
1.95122e-08
1.94657e-08
9.75738e-10
1.95035e-08
-1.44651e-09
1.95077e-08
7.70547e-11
7.01181e-10
1.95188e-08
1.94815e-08
1.95015e-08
1.95105e-08
1.95216e-08
1.87019e-08
3.95825e-10
1.87194e-08
-3.0376e-10
1.87644e-08
-6.94056e-10
-1.82672e-10
1.88937e-08
4.0667e-10
1.89117e-08
-3.21698e-10
1.89408e-08
-7.23164e-10
-1.29759e-10
1.9046e-08
4.15592e-10
1.9062e-08
-3.3769e-10
1.90863e-08
-7.47449e-10
-7.23756e-11
1.91642e-08
4.2332e-10
1.91781e-08
-3.51574e-10
1.91986e-08
-7.68041e-10
-1.27352e-11
1.92563e-08
4.29883e-10
1.92688e-08
-3.64098e-10
1.92864e-08
-7.85664e-10
4.86905e-11
1.93267e-08
4.35547e-10
1.93379e-08
-3.7533e-10
1.93534e-08
-8.01171e-10
1.1078e-10
1.93806e-08
4.40247e-10
1.93912e-08
-3.85836e-10
1.9405e-08
-8.15003e-10
1.73337e-10
1.94213e-08
4.4416e-10
1.94312e-08
-3.9567e-10
1.94438e-08
-8.27579e-10
2.3591e-10
1.94517e-08
4.47341e-10
1.94617e-08
-4.05553e-10
1.94735e-08
-8.39411e-10
2.98285e-10
1.94747e-08
4.49905e-10
1.94845e-08
-4.15334e-10
1.94957e-08
-8.50612e-10
3.6034e-10
1.94909e-08
4.5189e-10
1.95016e-08
-4.26002e-10
1.95129e-08
-8.61874e-10
4.21836e-10
1.95034e-08
4.53299e-10
1.95146e-08
-4.37155e-10
1.95256e-08
-8.72908e-10
4.8198e-10
1.95112e-08
4.54274e-10
1.9524e-08
-4.4996e-10
1.9536e-08
-8.84873e-10
5.40094e-10
1.9518e-08
4.55053e-10
1.95315e-08
-4.6339e-10
1.95437e-08
-8.97182e-10
5.94588e-10
1.95213e-08
1.95365e-08
1.95518e-08
)
;

boundaryField
{
    topWall
    {
        type            calculated;
        value           nonuniform List<scalar> 0();
    }
    botWall
    {
        type            calculated;
        value           nonuniform List<scalar> 0();
    }
    inlet
    {
        type            cyclic;
        value           nonuniform List<scalar> 
15
(
-1.94976e-08
-1.94893e-08
-1.94779e-08
-1.94655e-08
-1.94514e-08
-1.94336e-08
-1.94111e-08
-1.93812e-08
-1.93424e-08
-1.92913e-08
-1.9225e-08
-1.9139e-08
-1.90289e-08
-1.88879e-08
-1.87055e-08
)
;
    }
    outlet
    {
        type            cyclic;
        value           nonuniform List<scalar> 
15
(
1.94976e-08
1.94893e-08
1.94779e-08
1.94655e-08
1.94514e-08
1.94336e-08
1.94111e-08
1.93812e-08
1.93424e-08
1.92913e-08
1.9225e-08
1.9139e-08
1.90289e-08
1.88879e-08
1.87055e-08
)
;
    }
    fixWall
    {
        type            empty;
        value           nonuniform List<scalar> 0();
    }
    procBoundary1to0
    {
        type            processor;
        value           nonuniform List<scalar> 8(-6.47924e-10 6.52172e-10 -8.0895e-11 -7.13327e-10 -3.87945e-10 2.88444e-10 6.51318e-10 2.41031e-10);
    }
    procBoundary1to2
    {
        type            processor;
        value           nonuniform List<scalar> 8(9.91622e-10 -1.46534e-09 6.95377e-11 6.87945e-10 4.55442e-10 -4.79294e-10 -9.11125e-10 6.4741e-10);
    }
}


// ************************************************************************* //
