/*--------------------------------*- C++ -*----------------------------------*\
  =========                 |
  \\      /  F ield         | OpenFOAM: The Open Source CFD Toolbox
   \\    /   O peration     | Website:  https://openfoam.org
    \\  /    A nd           | Version:  dev
     \\/     M anipulation  |

   OpenFOAM for Windows 20.09 (v1)
   Built by CFD Support, www.cfdsupport.com (based on Symscape).
\*---------------------------------------------------------------------------*/
FoamFile
{
    version     2.0;
    format      ascii;
    class       volSymmTensorField;
    location    "4";
    object      R;
}
// * * * * * * * * * * * * * * * * * * * * * * * * * * * * * * * * * * * * * //

dimensions      [0 2 -2 0 0 0 0];

internalField   nonuniform List<symmTensor> 
120
(
(1.48032e-16 -6.85249e-19 -0 1.48027e-16 -0 1.4803e-16)
(1.48023e-16 -7.18576e-19 -0 1.48037e-16 -0 1.48029e-16)
(1.4803e-16 -7.01101e-19 -0 1.48029e-16 -0 1.4803e-16)
(1.48033e-16 -7.27974e-19 -0 1.48027e-16 -0 1.4803e-16)
(1.48032e-16 -6.35851e-19 -0 1.48027e-16 -0 1.4803e-16)
(1.48022e-16 -6.5091e-19 -0 1.48038e-16 -0 1.48029e-16)
(1.4803e-16 -6.3702e-19 -0 1.48029e-16 -0 1.4803e-16)
(1.48032e-16 -6.64333e-19 -0 1.48028e-16 -0 1.48029e-16)
(1.48032e-16 -5.66283e-19 -0 1.48027e-16 -0 1.4803e-16)
(1.48021e-16 -5.73741e-19 -0 1.48039e-16 -0 1.48029e-16)
(1.4803e-16 -5.6718e-19 -0 1.48029e-16 -0 1.4803e-16)
(1.48031e-16 -5.91482e-19 -0 1.48028e-16 -0 1.4803e-16)
(1.48032e-16 -4.97466e-19 -0 1.48026e-16 -0 1.48031e-16)
(1.48021e-16 -4.9922e-19 -0 1.4804e-16 -0 1.48029e-16)
(1.4803e-16 -4.96391e-19 -0 1.4803e-16 -0 1.4803e-16)
(1.48031e-16 -5.1685e-19 -0 1.48029e-16 -0 1.4803e-16)
(1.48032e-16 -4.30654e-19 -0 1.48027e-16 -0 1.48031e-16)
(1.4802e-16 -4.26067e-19 -0 1.48041e-16 -0 1.48029e-16)
(1.48029e-16 -4.27531e-19 -0 1.4803e-16 -0 1.4803e-16)
(1.4803e-16 -4.44932e-19 -0 1.48029e-16 -0 1.4803e-16)
(1.48032e-16 -3.68339e-19 -0 1.48026e-16 -0 1.48031e-16)
(1.48019e-16 -3.59685e-19 -0 1.48042e-16 -0 1.48029e-16)
(1.48029e-16 -3.61528e-19 -0 1.4803e-16 -0 1.4803e-16)
(1.4803e-16 -3.75645e-19 -0 1.4803e-16 -0 1.48029e-16)
(1.48033e-16 -3.11198e-19 -0 1.48026e-16 -0 1.48031e-16)
(1.48018e-16 -2.97907e-19 -0 1.48042e-16 -0 1.48029e-16)
(1.48029e-16 -2.99992e-19 -0 1.4803e-16 -0 1.4803e-16)
(1.4803e-16 -3.14029e-19 -0 1.4803e-16 -0 1.4803e-16)
(1.48033e-16 -2.60496e-19 -0 1.48025e-16 -0 1.48031e-16)
(1.48017e-16 -2.4342e-19 -0 1.48044e-16 -0 1.48029e-16)
(1.48028e-16 -2.44436e-19 -0 1.48031e-16 -0 1.4803e-16)
(1.48029e-16 -2.57944e-19 -0 1.48031e-16 -0 1.48029e-16)
(1.48034e-16 -2.18733e-19 -0 1.48025e-16 -0 1.48031e-16)
(1.48016e-16 -1.96484e-19 -0 1.48044e-16 -0 1.48029e-16)
(1.48028e-16 -1.94153e-19 -0 1.48031e-16 -0 1.4803e-16)
(1.48029e-16 -2.09904e-19 -0 1.48031e-16 -0 1.4803e-16)
(1.48034e-16 -1.851e-19 -0 1.48024e-16 -0 1.48031e-16)
(1.48016e-16 -1.57716e-19 -0 1.48045e-16 -0 1.48029e-16)
(1.48028e-16 -1.50779e-19 -0 1.48032e-16 -0 1.4803e-16)
(1.48028e-16 -1.67538e-19 -0 1.48031e-16 -0 1.48029e-16)
(1.48034e-16 -1.61812e-19 -0 1.48025e-16 -0 1.48031e-16)
(1.48015e-16 -1.25855e-19 -0 1.48046e-16 -0 1.48028e-16)
(1.48027e-16 -1.13708e-19 -0 1.48032e-16 -0 1.4803e-16)
(1.48028e-16 -1.33396e-19 -0 1.48032e-16 -0 1.48029e-16)
(1.48035e-16 -1.49732e-19 -0 1.48023e-16 -0 1.48031e-16)
(1.48015e-16 -1.01852e-19 -0 1.48045e-16 -0 1.48028e-16)
(1.48027e-16 -7.89018e-20 -0 1.48032e-16 -0 1.4803e-16)
(1.48027e-16 -1.02736e-19 -0 1.48032e-16 -0 1.48029e-16)
(1.48035e-16 -1.52724e-19 -0 1.48024e-16 -0 1.4803e-16)
(1.48016e-16 -8.63198e-20 -0 1.48044e-16 -0 1.48029e-16)
(1.48027e-16 -4.7947e-20 -0 1.48032e-16 -0 1.4803e-16)
(1.48027e-16 -8.22566e-20 -0 1.48033e-16 -0 1.48029e-16)
(1.48036e-16 -1.72162e-19 -0 1.48022e-16 -0 1.48031e-16)
(1.48018e-16 -7.42894e-20 -0 1.48043e-16 -0 1.48029e-16)
(1.48027e-16 -8.57302e-21 -0 1.48032e-16 -0 1.4803e-16)
(1.48027e-16 -6.59926e-20 -0 1.48033e-16 -0 1.4803e-16)
(1.48037e-16 -2.07035e-19 -0 1.4802e-16 -0 1.48032e-16)
(1.48022e-16 -6.76711e-20 -0 1.48037e-16 -0 1.4803e-16)
(1.48026e-16 8.11019e-22 -0 1.48033e-16 -0 1.4803e-16)
(1.48025e-16 -7.53312e-20 -0 1.48034e-16 -0 1.48029e-16)
(1.48031e-16 -7.72711e-19 -0 1.48028e-16 -0 1.4803e-16)
(1.48027e-16 -7.60699e-19 -0 1.48032e-16 -0 1.4803e-16)
(1.48026e-16 -7.62775e-19 -0 1.48034e-16 -0 1.48029e-16)
(1.48036e-16 -7.14656e-19 -0 1.48024e-16 -0 1.4803e-16)
(1.48031e-16 -6.91867e-19 -0 1.48028e-16 -0 1.4803e-16)
(1.48027e-16 -6.82105e-19 -0 1.48032e-16 -0 1.4803e-16)
(1.48027e-16 -6.70591e-19 -0 1.48033e-16 -0 1.48029e-16)
(1.48037e-16 -6.38179e-19 -0 1.48023e-16 -0 1.4803e-16)
(1.48031e-16 -6.10953e-19 -0 1.48028e-16 -0 1.4803e-16)
(1.48027e-16 -6.04951e-19 -0 1.48032e-16 -0 1.4803e-16)
(1.48027e-16 -5.93251e-19 -0 1.48033e-16 -0 1.48029e-16)
(1.48039e-16 -5.67704e-19 -0 1.48021e-16 -0 1.4803e-16)
(1.48031e-16 -5.31266e-19 -0 1.48029e-16 -0 1.4803e-16)
(1.48027e-16 -5.27988e-19 -0 1.48032e-16 -0 1.4803e-16)
(1.48027e-16 -5.145e-19 -0 1.48033e-16 -0 1.48029e-16)
(1.4804e-16 -4.9574e-19 -0 1.48019e-16 -0 1.4803e-16)
(1.48031e-16 -4.55043e-19 -0 1.48029e-16 -0 1.4803e-16)
(1.48027e-16 -4.55281e-19 -0 1.48032e-16 -0 1.4803e-16)
(1.48027e-16 -4.41264e-19 -0 1.48032e-16 -0 1.48029e-16)
(1.48041e-16 -4.28319e-19 -0 1.48018e-16 -0 1.48029e-16)
(1.48031e-16 -3.83564e-19 -0 1.48029e-16 -0 1.4803e-16)
(1.48027e-16 -3.85978e-19 -0 1.48033e-16 -0 1.4803e-16)
(1.48027e-16 -3.72259e-19 -0 1.48033e-16 -0 1.48029e-16)
(1.48043e-16 -3.64444e-19 -0 1.48017e-16 -0 1.4803e-16)
(1.48031e-16 -3.19393e-19 -0 1.48029e-16 -0 1.4803e-16)
(1.48027e-16 -3.23875e-19 -0 1.48032e-16 -0 1.4803e-16)
(1.48028e-16 -3.11383e-19 -0 1.48032e-16 -0 1.48029e-16)
(1.48044e-16 -3.06191e-19 -0 1.48015e-16 -0 1.4803e-16)
(1.48031e-16 -2.60837e-19 -0 1.48029e-16 -0 1.4803e-16)
(1.48027e-16 -2.66829e-19 -0 1.48033e-16 -0 1.4803e-16)
(1.48028e-16 -2.57641e-19 -0 1.48032e-16 -0 1.48029e-16)
(1.48045e-16 -2.55248e-19 -0 1.48014e-16 -0 1.4803e-16)
(1.4803e-16 -2.10697e-19 -0 1.48029e-16 -0 1.4803e-16)
(1.48026e-16 -2.1868e-19 -0 1.48033e-16 -0 1.4803e-16)
(1.48028e-16 -2.12138e-19 -0 1.48032e-16 -0 1.48029e-16)
(1.48047e-16 -2.107e-19 -0 1.48013e-16 -0 1.4803e-16)
(1.4803e-16 -1.64437e-19 -0 1.48029e-16 -0 1.4803e-16)
(1.48026e-16 -1.7556e-19 -0 1.48033e-16 -0 1.4803e-16)
(1.48028e-16 -1.73793e-19 -0 1.48032e-16 -0 1.48029e-16)
(1.48048e-16 -1.73365e-19 -0 1.48011e-16 -0 1.4803e-16)
(1.4803e-16 -1.26565e-19 -0 1.48029e-16 -0 1.4803e-16)
(1.48026e-16 -1.41252e-19 -0 1.48033e-16 -0 1.4803e-16)
(1.48027e-16 -1.4195e-19 -0 1.48033e-16 -0 1.48029e-16)
(1.48048e-16 -1.4361e-19 -0 1.48012e-16 -0 1.48029e-16)
(1.48031e-16 -9.13274e-20 -0 1.48028e-16 -0 1.4803e-16)
(1.48026e-16 -1.09543e-19 -0 1.48033e-16 -0 1.48031e-16)
(1.48029e-16 -1.15835e-19 -0 1.48031e-16 -0 1.4803e-16)
(1.4805e-16 -1.21717e-19 -0 1.48009e-16 -0 1.4803e-16)
(1.4803e-16 -6.69438e-20 -0 1.4803e-16 -0 1.4803e-16)
(1.48024e-16 -8.64356e-20 -0 1.48036e-16 -0 1.4803e-16)
(1.48027e-16 -9.34301e-20 -0 1.48034e-16 -0 1.48029e-16)
(1.48051e-16 -1.06054e-19 -0 1.48009e-16 -0 1.4803e-16)
(1.4803e-16 -4.75675e-20 -0 1.48029e-16 -0 1.4803e-16)
(1.48024e-16 -6.39119e-20 -0 1.48034e-16 -0 1.48031e-16)
(1.48027e-16 -7.32832e-20 -0 1.48034e-16 -0 1.48029e-16)
(1.4805e-16 -9.7403e-20 -0 1.4801e-16 -0 1.48029e-16)
(1.48029e-16 -5.29422e-20 -0 1.48031e-16 -0 1.48029e-16)
(1.48023e-16 -4.63575e-20 -0 1.48036e-16 -0 1.4803e-16)
(1.48027e-16 -4.08924e-20 -0 1.48033e-16 -0 1.4803e-16)
(1.48051e-16 -1.10652e-19 -0 1.48006e-16 -0 1.48032e-16)
)
;

boundaryField
{
    topWall
    {
        type            kqRWallFunction;
        value           nonuniform List<symmTensor> 0();
    }
    botWall
    {
        type            kqRWallFunction;
        value           nonuniform List<symmTensor> 0();
    }
    inlet
    {
        type            cyclic;
    }
    outlet
    {
        type            cyclic;
    }
    fixWall
    {
        type            empty;
    }
    procBoundary1to0
    {
        type            processor;
        value           nonuniform List<symmTensor> 8((1.48031e-16 -7.43443e-19 -0 1.48027e-16 -0 1.4803e-16) (1.48025e-16 -7.8267e-19 -0 1.48035e-16 -0 1.48029e-16) (1.4803e-16 -7.69454e-19 -0 1.48029e-16 -0 1.4803e-16) (1.48033e-16 -7.8998e-19 -0 1.48026e-16 -0 1.4803e-16) (1.48032e-16 -8.30168e-19 -0 1.48028e-16 -0 1.4803e-16) (1.48027e-16 -8.21955e-19 -0 1.48032e-16 -0 1.4803e-16) (1.48026e-16 -8.3639e-19 -0 1.48033e-16 -0 1.4803e-16) (1.48033e-16 -7.84771e-19 -0 1.48027e-16 -0 1.4803e-16));
    }
    procBoundary1to2
    {
        type            processor;
        value           nonuniform List<symmTensor> 8((1.48037e-16 -2.15768e-19 -0 1.48021e-16 -0 1.4803e-16) (1.48026e-16 -6.14577e-20 -0 1.48033e-16 -0 1.48031e-16) (1.48026e-16 -5.10176e-21 -0 1.48034e-16 -0 1.4803e-16) (1.48025e-16 -7.63489e-20 -0 1.48035e-16 -0 1.4803e-16) (1.4803e-16 -4.72573e-20 -0 1.4803e-16 -0 1.48029e-16) (1.48023e-16 -3.48088e-20 -0 1.48037e-16 -0 1.48029e-16) (1.48023e-16 -3.59978e-20 -0 1.4804e-16 -0 1.48027e-16) (1.48046e-16 -1.31352e-19 -0 1.48015e-16 -0 1.48029e-16));
    }
}


// ************************************************************************* //
