/*--------------------------------*- C++ -*----------------------------------*\
  =========                 |
  \\      /  F ield         | OpenFOAM: The Open Source CFD Toolbox
   \\    /   O peration     | Website:  https://openfoam.org
    \\  /    A nd           | Version:  dev
     \\/     M anipulation  |

   OpenFOAM for Windows 20.09 (v1)
   Built by CFD Support, www.cfdsupport.com (based on Symscape).
\*---------------------------------------------------------------------------*/
FoamFile
{
    version     2.0;
    format      ascii;
    class       volVectorField;
    location    "4";
    object      U;
}
// * * * * * * * * * * * * * * * * * * * * * * * * * * * * * * * * * * * * * //

dimensions      [0 1 -1 0 0 0 0];

internalField   nonuniform List<vector> 
120
(
(0.0223878 1.3025e-05 0)
(0.0224689 -1.35977e-05 0)
(0.0225109 1.85136e-06 0)
(0.0224613 1.44823e-05 0)
(0.0226018 1.39266e-05 0)
(0.02269 -1.51412e-05 0)
(0.0227248 1.736e-06 0)
(0.0226839 1.49109e-05 0)
(0.0227709 1.40798e-05 0)
(0.022861 -1.62512e-05 0)
(0.022894 2.18068e-06 0)
(0.0228613 1.49517e-05 0)
(0.022904 1.48024e-05 0)
(0.0229961 -1.76664e-05 0)
(0.0230268 1.92876e-06 0)
(0.0229993 1.52479e-05 0)
(0.0230079 1.518e-05 0)
(0.0230988 -1.87162e-05 0)
(0.0231297 2.26548e-06 0)
(0.0231072 1.51516e-05 0)
(0.0230885 1.56725e-05 0)
(0.0231785 -2.01446e-05 0)
(0.023209 2.004e-06 0)
(0.0231894 1.52605e-05 0)
(0.0231507 1.60871e-05 0)
(0.0232381 -2.12068e-05 0)
(0.0232689 2.20903e-06 0)
(0.0232523 1.50859e-05 0)
(0.0231983 1.65482e-05 0)
(0.0232835 -2.24863e-05 0)
(0.023314 2.02162e-06 0)
(0.0232998 1.51713e-05 0)
(0.023235 1.6956e-05 0)
(0.0233167 -2.36423e-05 0)
(0.023347 2.02766e-06 0)
(0.0233353 1.48586e-05 0)
(0.0232636 1.74849e-05 0)
(0.0233419 -2.46745e-05 0)
(0.0233708 1.96407e-06 0)
(0.0233619 1.49742e-05 0)
(0.0232862 1.78778e-05 0)
(0.0233601 -2.58e-05 0)
(0.0233876 1.81323e-06 0)
(0.023381 1.45845e-05 0)
(0.0233053 1.82379e-05 0)
(0.0233742 -2.68742e-05 0)
(0.0233991 1.79106e-06 0)
(0.0233957 1.46179e-05 0)
(0.0233223 1.87929e-05 0)
(0.0233846 -2.78065e-05 0)
(0.0234056 1.66504e-06 0)
(0.0234053 1.42053e-05 0)
(0.02334 1.89689e-05 0)
(0.0233937 -2.86153e-05 0)
(0.0234091 1.61559e-06 0)
(0.0234139 1.41352e-05 0)
(0.0233592 1.97697e-05 0)
(0.0234005 -2.93286e-05 0)
(0.0234067 1.50388e-06 0)
(0.023419 1.38305e-05 0)
(0.0224497 7.87916e-06 0)
(0.0224311 -5.97927e-06 0)
(0.0225119 -1.35044e-05 0)
(0.022499 -4.14738e-06 0)
(0.0226832 7.99251e-06 0)
(0.0226602 -6.2607e-06 0)
(0.0227368 -1.42338e-05 0)
(0.0227126 -3.27336e-06 0)
(0.0228667 8.30905e-06 0)
(0.0228422 -6.51393e-06 0)
(0.0229156 -1.46232e-05 0)
(0.0228828 -2.071e-06 0)
(0.0230094 8.37385e-06 0)
(0.0229832 -6.95553e-06 0)
(0.0230531 -1.52457e-05 0)
(0.0230149 -8.67168e-07 0)
(0.0231199 8.5565e-06 0)
(0.0230938 -7.11375e-06 0)
(0.0231603 -1.55077e-05 0)
(0.0231182 3.87369e-07 0)
(0.0232043 8.65659e-06 0)
(0.0231783 -7.40698e-06 0)
(0.0232416 -1.58805e-05 0)
(0.0231975 1.51524e-06 0)
(0.0232686 8.74649e-06 0)
(0.0232435 -7.62325e-06 0)
(0.0233041 -1.6171e-05 0)
(0.0232586 2.91597e-06 0)
(0.0233171 8.87727e-06 0)
(0.0232926 -7.7933e-06 0)
(0.023351 -1.6426e-05 0)
(0.0233047 4.03678e-06 0)
(0.0233529 8.87798e-06 0)
(0.0233298 -8.05276e-06 0)
(0.0233868 -1.66862e-05 0)
(0.0233403 5.393e-06 0)
(0.0233799 9.02402e-06 0)
(0.0233578 -8.14683e-06 0)
(0.0234136 -1.68737e-05 0)
(0.0233665 6.56418e-06 0)
(0.0233983 8.9013e-06 0)
(0.0233783 -8.53814e-06 0)
(0.0234342 -1.71544e-05 0)
(0.0233871 7.96779e-06 0)
(0.0234124 9.16667e-06 0)
(0.0233942 -8.55295e-06 0)
(0.0234494 -1.7464e-05 0)
(0.0234025 8.77586e-06 0)
(0.0234204 9.14678e-06 0)
(0.0234048 -8.81201e-06 0)
(0.0234614 -1.72934e-05 0)
(0.0234155 1.04738e-05 0)
(0.0234278 9.17361e-06 0)
(0.0234139 -9.21306e-06 0)
(0.0234699 -1.80211e-05 0)
(0.0234255 1.1089e-05 0)
(0.0234308 9.24876e-06 0)
(0.0234186 -9.20922e-06 0)
(0.0234765 -1.78371e-05 0)
(0.0234353 1.24716e-05 0)
)
;

boundaryField
{
    topWall
    {
        type            noSlip;
    }
    botWall
    {
        type            noSlip;
    }
    inlet
    {
        type            cyclic;
    }
    outlet
    {
        type            cyclic;
    }
    fixWall
    {
        type            empty;
    }
    procBoundary1to0
    {
        type            processor;
        value           nonuniform List<vector> 8((0.0221316 1.28306e-05 0) (0.022197 -1.24835e-05 0) (0.0222444 1.6053e-06 0) (0.0221847 1.39203e-05 0) (0.0221528 7.56917e-06 0) (0.0221382 -5.45868e-06 0) (0.0222137 -1.26207e-05 0) (0.0222229 -5.25734e-06 0));
    }
    procBoundary1to2
    {
        type            processor;
        value           nonuniform List<vector> 8((0.0233819 2.01034e-05 0) (0.0234075 -2.9259e-05 0) (0.0234082 1.26439e-06 0) (0.0234288 1.36625e-05 0) (0.0234387 8.9702e-06 0) (0.0234236 -9.82897e-06 0) (0.0234777 -1.83057e-05 0) (0.0234469 1.36173e-05 0));
    }
}


// ************************************************************************* //
