/*--------------------------------*- C++ -*----------------------------------*\
  =========                 |
  \\      /  F ield         | OpenFOAM: The Open Source CFD Toolbox
   \\    /   O peration     | Website:  https://openfoam.org
    \\  /    A nd           | Version:  dev
     \\/     M anipulation  |

   OpenFOAM for Windows 20.09 (v1)
   Built by CFD Support, www.cfdsupport.com (based on Symscape).
\*---------------------------------------------------------------------------*/
FoamFile
{
    version     2.0;
    format      ascii;
    class       volVectorField;
    location    "4";
    object      UMean;
}
// * * * * * * * * * * * * * * * * * * * * * * * * * * * * * * * * * * * * * //

dimensions      [0 1 -1 0 0 0 0];

internalField   nonuniform List<vector> 
120
(
(0.0199982 6.82926e-06 0)
(0.0200661 -1.21504e-05 0)
(0.0201056 2.17567e-06 0)
(0.0200605 1.21126e-05 0)
(0.0201627 7.35082e-06 0)
(0.0202337 -1.34517e-05 0)
(0.0202704 2.07834e-06 0)
(0.0202322 1.26007e-05 0)
(0.020291 7.28853e-06 0)
(0.020362 -1.4309e-05 0)
(0.0203984 2.30692e-06 0)
(0.0203666 1.27905e-05 0)
(0.02039 7.68259e-06 0)
(0.0204618 -1.54841e-05 0)
(0.0204977 2.1047e-06 0)
(0.0204699 1.3216e-05 0)
(0.0204662 7.80123e-06 0)
(0.0205369 -1.63557e-05 0)
(0.0205735 2.22353e-06 0)
(0.0205492 1.32927e-05 0)
(0.0205243 8.01843e-06 0)
(0.0205943 -1.75352e-05 0)
(0.0206311 1.99958e-06 0)
(0.0206089 1.36049e-05 0)
(0.0205684 8.1674e-06 0)
(0.0206368 -1.8416e-05 0)
(0.020674 2.03227e-06 0)
(0.0206537 1.36399e-05 0)
(0.0206017 8.34412e-06 0)
(0.0206688 -1.94972e-05 0)
(0.0207059 1.84451e-06 0)
(0.0206871 1.39204e-05 0)
(0.0206268 8.51446e-06 0)
(0.0206918 -2.04623e-05 0)
(0.0207289 1.756e-06 0)
(0.0207116 1.38815e-05 0)
(0.0206463 8.70478e-06 0)
(0.0207092 -2.13587e-05 0)
(0.0207452 1.63964e-06 0)
(0.0207299 1.41705e-05 0)
(0.0206615 8.91198e-06 0)
(0.0207213 -2.2347e-05 0)
(0.0207562 1.44589e-06 0)
(0.0207427 1.40891e-05 0)
(0.0206745 8.95947e-06 0)
(0.0207307 -2.32502e-05 0)
(0.0207633 1.36434e-06 0)
(0.0207525 1.42651e-05 0)
(0.0206862 9.26733e-06 0)
(0.0207371 -2.39839e-05 0)
(0.0207665 1.22529e-06 0)
(0.0207585 1.41979e-05 0)
(0.0206987 9.23926e-06 0)
(0.0207428 -2.48131e-05 0)
(0.0207671 1.05707e-06 0)
(0.0207637 1.4259e-05 0)
(0.0207125 9.76462e-06 0)
(0.0207462 -2.53356e-05 0)
(0.020763 9.64194e-07 0)
(0.0207659 1.42168e-05 0)
(0.0200433 6.57147e-06 0)
(0.0200287 -3.82304e-06 0)
(0.0200828 -1.19373e-05 0)
(0.0200746 2.70911e-07 0)
(0.0202213 6.80067e-06 0)
(0.020205 -3.97061e-06 0)
(0.0202543 -1.24469e-05 0)
(0.0202378 8.8472e-07 0)
(0.0203594 6.93652e-06 0)
(0.0203423 -4.10103e-06 0)
(0.0203883 -1.27618e-05 0)
(0.0203663 1.78546e-06 0)
(0.0204651 7.24517e-06 0)
(0.0204469 -4.29324e-06 0)
(0.0204896 -1.31822e-05 0)
(0.0204639 2.60442e-06 0)
(0.0205459 7.27574e-06 0)
(0.0205279 -4.33955e-06 0)
(0.0205678 -1.33979e-05 0)
(0.0205395 3.54506e-06 0)
(0.0206067 7.59472e-06 0)
(0.0205886 -4.44983e-06 0)
(0.020626 -1.36515e-05 0)
(0.0205964 4.31673e-06 0)
(0.0206524 7.62269e-06 0)
(0.0206351 -4.50266e-06 0)
(0.0206706 -1.38739e-05 0)
(0.0206399 5.33058e-06 0)
(0.0206865 7.88608e-06 0)
(0.0206695 -4.53895e-06 0)
(0.0207034 -1.40535e-05 0)
(0.0206721 6.10677e-06 0)
(0.0207114 7.9425e-06 0)
(0.0206953 -4.62642e-06 0)
(0.0207285 -1.42416e-05 0)
(0.0206969 7.09794e-06 0)
(0.0207301 8.12939e-06 0)
(0.0207142 -4.60044e-06 0)
(0.0207467 -1.4391e-05 0)
(0.0207151 7.90995e-06 0)
(0.0207429 8.21193e-06 0)
(0.0207281 -4.77969e-06 0)
(0.0207609 -1.45853e-05 0)
(0.0207295 8.95143e-06 0)
(0.0207529 8.32695e-06 0)
(0.0207384 -4.71755e-06 0)
(0.0207711 -1.48377e-05 0)
(0.0207403 9.48842e-06 0)
(0.0207588 8.58119e-06 0)
(0.0207456 -4.76291e-06 0)
(0.0207794 -1.472e-05 0)
(0.0207498 1.07102e-05 0)
(0.0207644 8.53776e-06 0)
(0.0207517 -4.94766e-06 0)
(0.0207848 -1.52726e-05 0)
(0.020757 1.11502e-05 0)
(0.020767 8.76462e-06 0)
(0.0207557 -4.84953e-06 0)
(0.0207895 -1.51698e-05 0)
(0.0207642 1.21127e-05 0)
)
;

boundaryField
{
    topWall
    {
        type            calculated;
        value           nonuniform List<vector> 0();
    }
    botWall
    {
        type            calculated;
        value           nonuniform List<vector> 0();
    }
    inlet
    {
        type            cyclic;
    }
    outlet
    {
        type            cyclic;
    }
    fixWall
    {
        type            empty;
    }
    procBoundary1to0
    {
        type            processor;
        value           nonuniform List<vector> 8((0.0197952 6.89858e-06 0) (0.0198561 -1.12716e-05 0) (0.0198977 1.99654e-06 0) (0.0198441 1.15498e-05 0) (0.019814 6.22184e-06 0) (0.0198008 -3.5757e-06 0) (0.0198557 -1.12277e-05 0) (0.0198615 -5.72798e-07 0));
    }
    procBoundary1to2
    {
        type            processor;
        value           nonuniform List<vector> 8((0.0207283 9.9361e-06 0) (0.0207499 -2.54892e-05 0) (0.0207601 6.98262e-07 0) (0.0207705 1.41919e-05 0) (0.0207728 8.7468e-06 0) (0.0207588 -5.20093e-06 0) (0.0207903 -1.5451e-05 0) (0.0207725 1.29547e-05 0));
    }
}


// ************************************************************************* //
