/*--------------------------------*- C++ -*----------------------------------*\
  =========                 |
  \\      /  F ield         | OpenFOAM: The Open Source CFD Toolbox
   \\    /   O peration     | Website:  https://openfoam.org
    \\  /    A nd           | Version:  dev
     \\/     M anipulation  |

   OpenFOAM for Windows 20.09 (v1)
   Built by CFD Support, www.cfdsupport.com (based on Symscape).
\*---------------------------------------------------------------------------*/
FoamFile
{
    version     2.0;
    format      ascii;
    class       volSymmTensorField;
    location    "4";
    object      UPrime2Mean;
}
// * * * * * * * * * * * * * * * * * * * * * * * * * * * * * * * * * * * * * //

dimensions      [0 2 -2 0 0 0 0];

internalField   nonuniform List<symmTensor> 
120
(
(8.81143e-06 2.28471e-08 0 5.92399e-11 0 0)
(8.90922e-06 -5.36632e-09 0 3.23231e-12 0 0)
(8.92836e-06 -1.20384e-09 0 1.62317e-13 0 0)
(8.89491e-06 8.77964e-09 0 8.66585e-12 0 0)
(9.18088e-06 2.47517e-08 0 6.67305e-11 0 0)
(9.31029e-06 -6.40402e-09 0 4.40496e-12 0 0)
(9.29689e-06 -1.2967e-09 0 1.8086e-13 0 0)
(9.27645e-06 8.74096e-09 0 8.23639e-12 0 0)
(9.4908e-06 2.59906e-08 0 7.11752e-11 0 0)
(9.63794e-06 -7.49031e-09 0 5.82124e-12 0 0)
(9.61132e-06 -4.86172e-10 0 2.45922e-14 0 0)
(9.60435e-06 8.32036e-09 0 7.20802e-12 0 0)
(9.75337e-06 2.76224e-08 0 7.8229e-11 0 0)
(9.91182e-06 -8.53519e-09 0 7.34976e-12 0 0)
(9.87094e-06 -6.86684e-10 0 4.777e-14 0 0)
(9.87334e-06 7.93165e-09 0 6.37182e-12 0 0)
(9.96949e-06 2.89423e-08 0 8.40222e-11 0 0)
(1.01287e-05 -9.33209e-09 0 8.59818e-12 0 0)
(1.00835e-05 1.65464e-10 0 2.71515e-15 0 0)
(1.00978e-05 7.33794e-09 0 5.33237e-12 0 0)
(1.01469e-05 3.02882e-08 0 9.04093e-11 0 0)
(1.03052e-05 -1.04059e-08 0 1.05076e-11 0 0)
(1.02556e-05 1.75947e-11 0 3.01859e-17 0 0)
(1.02768e-05 6.59313e-09 0 4.22987e-12 0 0)
(1.02907e-05 3.15605e-08 0 9.67927e-11 0 0)
(1.04421e-05 -1.1203e-08 0 1.20193e-11 0 0)
(1.0391e-05 7.07844e-10 0 4.82188e-14 0 0)
(1.0421e-05 5.79855e-09 0 3.22647e-12 0 0)
(1.04055e-05 3.28756e-08 0 1.03869e-10 0 0)
(1.055e-05 -1.20608e-08 0 1.37879e-11 0 0)
(1.04973e-05 7.12837e-10 0 4.84067e-14 0 0)
(1.05341e-05 5.04362e-09 0 2.41483e-12 0 0)
(1.04977e-05 3.39768e-08 0 1.09969e-10 0 0)
(1.06322e-05 -1.28812e-08 0 1.56059e-11 0 0)
(1.0578e-05 1.09758e-09 0 1.13886e-13 0 0)
(1.06224e-05 3.95607e-09 0 1.47335e-12 0 0)
(1.05713e-05 3.54633e-08 0 1.18967e-10 0 0)
(1.06962e-05 -1.34713e-08 0 1.69662e-11 0 0)
(1.06391e-05 1.31458e-09 0 1.62431e-13 0 0)
(1.06905e-05 3.26445e-09 0 9.96836e-13 0 0)
(1.06314e-05 3.63161e-08 0 1.24054e-10 0 0)
(1.07457e-05 -1.40614e-08 0 1.84001e-11 0 0)
(1.06856e-05 1.49168e-09 0 2.08234e-13 0 0)
(1.07418e-05 2.01708e-09 0 3.78764e-13 0 0)
(1.06808e-05 3.76694e-08 0 1.32854e-10 0 0)
(1.07839e-05 -1.47839e-08 0 2.02675e-11 0 0)
(1.07214e-05 1.73573e-09 0 2.81005e-13 0 0)
(1.07819e-05 1.43907e-09 0 1.92075e-13 0 0)
(1.07245e-05 3.8752e-08 0 1.40027e-10 0 0)
(1.08168e-05 -1.56181e-08 0 2.25506e-11 0 0)
(1.07484e-05 1.79098e-09 0 2.98429e-13 0 0)
(1.08111e-05 3.02674e-11 0 8.47383e-17 0 0)
(1.07663e-05 3.96592e-08 0 1.46091e-10 0 0)
(1.08451e-05 -1.55546e-08 0 2.23093e-11 0 0)
(1.07722e-05 2.27723e-09 0 4.81405e-13 0 0)
(1.08392e-05 -5.06382e-10 0 2.3657e-14 0 0)
(1.08104e-05 4.08651e-08 0 1.54478e-10 0 0)
(1.0872e-05 -1.63557e-08 0 2.46052e-11 0 0)
(1.0786e-05 2.20186e-09 0 4.49486e-13 0 0)
(1.08628e-05 -1.58173e-09 0 2.30317e-13 0 0)
(8.93642e-06 4.85625e-09 0 2.639e-12 0 0)
(8.90656e-06 -7.994e-09 0 7.17495e-12 0 0)
(9.10519e-06 -5.8741e-09 0 3.7896e-12 0 0)
(9.07038e-06 -1.65303e-08 0 3.01255e-11 0 0)
(9.35337e-06 4.52812e-09 0 2.19214e-12 0 0)
(9.30319e-06 -8.67726e-09 0 8.09344e-12 0 0)
(9.51091e-06 -6.84586e-09 0 4.92758e-12 0 0)
(9.45156e-06 -1.58803e-08 0 2.66816e-11 0 0)
(9.70157e-06 5.31073e-09 0 2.90715e-12 0 0)
(9.64424e-06 -9.30866e-09 0 8.98477e-12 0 0)
(9.85686e-06 -7.25947e-09 0 5.34652e-12 0 0)
(9.77326e-06 -1.49769e-08 0 2.29512e-11 0 0)
(9.98952e-06 4.43157e-09 0 1.96595e-12 0 0)
(9.92706e-06 -1.04203e-08 0 1.0938e-11 0 0)
(1.01415e-05 -8.16336e-09 0 6.57109e-12 0 0)
(1.00422e-05 -1.36665e-08 0 1.85987e-11 0 0)
(1.02246e-05 5.08746e-09 0 2.53138e-12 0 0)
(1.01608e-05 -1.09854e-08 0 1.18768e-11 0 0)
(1.03725e-05 -8.44109e-09 0 6.86933e-12 0 0)
(1.02618e-05 -1.2566e-08 0 1.53875e-11 0 0)
(1.04129e-05 4.25667e-09 0 1.74008e-12 0 0)
(1.03493e-05 -1.18179e-08 0 1.3495e-11 0 0)
(1.05579e-05 -8.99729e-09 0 7.66738e-12 0 0)
(1.04409e-05 -1.12453e-08 0 1.21117e-11 0 0)
(1.05623e-05 4.53711e-09 0 1.94895e-12 0 0)
(1.04996e-05 -1.25614e-08 0 1.5028e-11 0 0)
(1.0703e-05 -9.3359e-09 0 8.14341e-12 0 0)
(1.05833e-05 -9.75824e-09 0 8.99745e-12 0 0)
(1.0679e-05 4.02379e-09 0 1.51614e-12 0 0)
(1.06189e-05 -1.3174e-08 0 1.63439e-11 0 0)
(1.08177e-05 -9.69355e-09 0 8.68624e-12 0 0)
(1.06953e-05 -8.40967e-09 0 6.61247e-12 0 0)
(1.0768e-05 3.81344e-09 0 1.35051e-12 0 0)
(1.07111e-05 -1.39303e-08 0 1.8117e-11 0 0)
(1.09059e-05 -1.0029e-08 0 9.22256e-12 0 0)
(1.07829e-05 -6.95489e-09 0 4.48585e-12 0 0)
(1.08353e-05 3.65828e-09 0 1.23513e-12 0 0)
(1.07848e-05 -1.44679e-08 0 1.94089e-11 0 0)
(1.09756e-05 -1.02177e-08 0 9.51204e-12 0 0)
(1.0849e-05 -5.50655e-09 0 2.79492e-12 0 0)
(1.08819e-05 2.82499e-09 0 7.33383e-13 0 0)
(1.08391e-05 -1.53716e-08 0 2.17994e-11 0 0)
(1.10282e-05 -1.05981e-08 0 1.01849e-11 0 0)
(1.08996e-05 -4.03419e-09 0 1.49314e-12 0 0)
(1.09153e-05 3.44636e-09 0 1.08814e-12 0 0)
(1.08842e-05 -1.57189e-08 0 2.27012e-11 0 0)
(1.10705e-05 -1.08555e-08 0 1.06446e-11 0 0)
(1.09372e-05 -2.92746e-09 0 7.83562e-13 0 0)
(1.09329e-05 2.32317e-09 0 4.93657e-13 0 0)
(1.09123e-05 -1.66162e-08 0 2.53014e-11 0 0)
(1.11011e-05 -1.06512e-08 0 1.02195e-11 0 0)
(1.09661e-05 -9.72525e-10 0 8.62478e-14 0 0)
(1.09468e-05 2.61343e-09 0 6.23925e-13 0 0)
(1.09373e-05 -1.75238e-08 0 2.80767e-11 0 0)
(1.11262e-05 -1.13889e-08 0 1.16578e-11 0 0)
(1.09895e-05 -2.51885e-10 0 5.77334e-15 0 0)
(1.09508e-05 1.99025e-09 0 3.61719e-13 0 0)
(1.09431e-05 -1.7916e-08 0 2.93318e-11 0 0)
(1.11414e-05 -1.10601e-08 0 1.09793e-11 0 0)
(1.10104e-05 1.47943e-09 0 1.98785e-13 0 0)
)
;

boundaryField
{
    topWall
    {
        type            calculated;
        value           nonuniform List<symmTensor> 0();
    }
    botWall
    {
        type            calculated;
        value           nonuniform List<symmTensor> 0();
    }
    inlet
    {
        type            cyclic;
    }
    outlet
    {
        type            cyclic;
    }
    fixWall
    {
        type            empty;
    }
    procBoundary1to0
    {
        type            processor;
        value           nonuniform List<symmTensor> 8((8.4242e-06 2.13886e-08 0 5.43046e-11 0 0) (8.45613e-06 -4.37781e-09 0 2.26643e-12 0 0) (8.49886e-06 -1.41688e-09 0 2.36215e-13 0 0) (8.45438e-06 8.56212e-09 0 8.67123e-12 0 0) (8.44196e-06 4.86303e-09 0 2.80137e-12 0 0) (8.43116e-06 -6.79208e-09 0 5.47166e-12 0 0) (8.58118e-06 -5.06943e-09 0 2.99483e-12 0 0) (8.60504e-06 -1.70709e-08 0 3.38658e-11 0 0));
    }
    procBoundary1to2
    {
        type            processor;
        value           nonuniform List<symmTensor> 8((1.08666e-05 4.16355e-08 0 1.59527e-10 0 0) (1.08994e-05 -1.54608e-08 0 2.19311e-11 0 0) (1.08215e-05 2.3135e-09 0 4.94597e-13 0 0) (1.0905e-05 -2.17197e-09 0 4.32594e-13 0 0) (1.09672e-05 9.19047e-10 0 7.70155e-14 0 0) (1.09582e-05 -1.90318e-08 0 3.30537e-11 0 0) (1.1145e-05 -1.18391e-08 0 1.25764e-11 0 0) (1.10377e-05 2.73463e-09 0 6.77513e-13 0 0));
    }
}


// ************************************************************************* //
