/*--------------------------------*- C++ -*----------------------------------*\
  =========                 |
  \\      /  F ield         | OpenFOAM: The Open Source CFD Toolbox
   \\    /   O peration     | Website:  https://openfoam.org
    \\  /    A nd           | Version:  dev
     \\/     M anipulation  |

   OpenFOAM for Windows 20.09 (v1)
   Built by CFD Support, www.cfdsupport.com (based on Symscape).
\*---------------------------------------------------------------------------*/
FoamFile
{
    version     2.0;
    format      ascii;
    class       surfaceScalarField;
    location    "8";
    object      alphaPhi0.water;
}
// * * * * * * * * * * * * * * * * * * * * * * * * * * * * * * * * * * * * * //

dimensions      [0 3 -1 0 0 0 0];

internalField   nonuniform List<scalar> 
217
(
3.46489e-08
-2.75113e-10
3.46255e-08
4.87914e-10
3.46086e-08
8.77524e-10
1.28108e-10
3.4656e-08
3.47286e-08
-2.94259e-10
3.47089e-08
5.07646e-10
3.46992e-08
8.87215e-10
7.50888e-11
3.47522e-08
3.48134e-08
-3.13759e-10
3.4797e-08
5.24035e-10
3.47937e-08
8.90578e-10
1.80294e-11
3.48507e-08
3.49071e-08
-3.34379e-10
3.48941e-08
5.37046e-10
3.48961e-08
8.88604e-10
-4.15585e-11
3.49557e-08
3.50129e-08
-3.56049e-10
3.50031e-08
5.46811e-10
3.50091e-08
8.82662e-10
-1.02072e-10
3.50696e-08
3.51352e-08
-3.79043e-10
3.51284e-08
5.53526e-10
3.51375e-08
8.73628e-10
-1.62228e-10
3.51976e-08
3.52777e-08
-4.03259e-10
3.52738e-08
5.57432e-10
3.5285e-08
8.62463e-10
-2.2065e-10
3.53434e-08
3.54452e-08
-4.28645e-10
3.54441e-08
5.58488e-10
3.54569e-08
8.49665e-10
-2.76345e-10
3.55126e-08
3.56423e-08
-4.54903e-10
3.56439e-08
5.56814e-10
3.56579e-08
8.3573e-10
-3.28232e-10
3.57097e-08
3.58743e-08
-4.8136e-10
3.58789e-08
5.52177e-10
3.58943e-08
8.20388e-10
-3.75409e-10
3.59415e-08
3.61477e-08
-5.08079e-10
3.61547e-08
5.45162e-10
3.61716e-08
8.03499e-10
-4.17227e-10
3.62134e-08
3.64686e-08
-5.33726e-10
3.64783e-08
5.35401e-10
3.64974e-08
7.84363e-10
-4.53225e-10
3.65334e-08
3.68442e-08
-5.57378e-10
3.68558e-08
5.23796e-10
3.68779e-08
7.62195e-10
-4.83633e-10
3.69083e-08
3.72828e-08
-5.77957e-10
3.72963e-08
5.10278e-10
3.73223e-08
7.36229e-10
-5.08221e-10
3.73469e-08
3.77947e-08
3.78039e-08
3.78365e-08
3.7858e-08
3.46832e-08
-6.69917e-10
3.46836e-08
-1.08115e-09
3.46418e-08
6.83748e-10
-1.49052e-10
3.47765e-08
-6.94178e-10
3.47669e-08
-1.07159e-09
3.47207e-08
7.2995e-10
-1.37817e-10
3.4871e-08
-7.14505e-10
3.48541e-08
-1.05462e-09
3.48052e-08
7.78834e-10
-1.26535e-10
3.49721e-08
-7.30974e-10
3.49489e-08
-1.03139e-09
3.48975e-08
8.30236e-10
-1.15531e-10
3.50829e-08
-7.44286e-10
3.50549e-08
-1.00336e-09
3.50014e-08
8.83634e-10
-1.05311e-10
3.52082e-08
-7.54856e-10
3.51763e-08
-9.71485e-10
3.51212e-08
9.3874e-10
-9.62785e-11
3.53518e-08
-7.63228e-10
3.5317e-08
-9.36766e-10
3.52607e-08
9.95043e-10
-8.90611e-11
3.55188e-08
-7.6942e-10
3.54819e-08
-8.99942e-10
3.5425e-08
1.05202e-09
-8.38717e-11
3.57138e-08
-7.7352e-10
3.56755e-08
-8.61655e-10
3.56185e-08
1.10903e-09
-8.1337e-11
3.5943e-08
-7.75034e-10
3.59035e-08
-8.22183e-10
3.58473e-08
1.16524e-09
-8.1906e-11
3.62121e-08
-7.73666e-10
3.61715e-08
-7.81614e-10
3.61168e-08
1.21997e-09
-8.61432e-11
3.6528e-08
-7.68222e-10
3.64862e-08
-7.39798e-10
3.64343e-08
1.27187e-09
-9.47645e-11
3.68985e-08
-7.58346e-10
3.68549e-08
-6.9623e-10
3.68063e-08
1.32055e-09
-1.09046e-10
3.7331e-08
-7.424e-10
3.72854e-08
-6.50593e-10
3.72419e-08
1.36399e-09
-1.29418e-10
3.78356e-08
3.77861e-08
3.7749e-08
)
;

boundaryField
{
    topWall
    {
        type            calculated;
        value           nonuniform List<scalar> 0();
    }
    botWall
    {
        type            calculated;
        value           nonuniform List<scalar> 0();
    }
    inlet
    {
        type            cyclic;
        value           nonuniform List<scalar> 
15
(
-3.77758e-08
-3.72623e-08
-3.68206e-08
-3.64429e-08
-3.6121e-08
-3.58478e-08
-3.5616e-08
-3.54198e-08
-3.52535e-08
-3.51122e-08
-3.49912e-08
-3.48865e-08
-3.47939e-08
-3.47095e-08
-3.46286e-08
)
;
    }
    outlet
    {
        type            cyclic;
        value           nonuniform List<scalar> 
15
(
3.77758e-08
3.72623e-08
3.68206e-08
3.64429e-08
3.6121e-08
3.58478e-08
3.5616e-08
3.54198e-08
3.52535e-08
3.51122e-08
3.49912e-08
3.48865e-08
3.47939e-08
3.47095e-08
3.46286e-08
)
;
    }
    fixWall
    {
        type            empty;
        value           nonuniform List<scalar> 0();
    }
    procBoundary2to1
    {
        type            processor;
        value           nonuniform List<scalar> 8(2.54802e-10 -4.63998e-10 -8.60614e-10 -1.75058e-10 6.42611e-10 1.08141e-09 -6.40496e-10 1.61606e-10);
    }
    procBoundary2to3
    {
        type            processor;
        value           nonuniform List<scalar> 8(-5.96979e-10 4.99664e-10 7.03203e-10 -5.30994e-10 -7.18992e-10 -6.00396e-10 1.39895e-09 -1.57579e-10);
    }
}


// ************************************************************************* //
