/*--------------------------------*- C++ -*----------------------------------*\
  =========                 |
  \\      /  F ield         | OpenFOAM: The Open Source CFD Toolbox
   \\    /   O peration     | Website:  https://openfoam.org
    \\  /    A nd           | Version:  dev
     \\/     M anipulation  |

   OpenFOAM for Windows 20.09 (v1)
   Built by CFD Support, www.cfdsupport.com (based on Symscape).
\*---------------------------------------------------------------------------*/
FoamFile
{
    version     2.0;
    format      ascii;
    class       volSymmTensorField;
    location    "8";
    object      devReff;
}
// * * * * * * * * * * * * * * * * * * * * * * * * * * * * * * * * * * * * * //

dimensions      [0 2 -2 0 0 0 0];

internalField   nonuniform List<symmTensor> 
120
(
(-2.01838e-07 -2.24238e-05 -0 1.87973e-07 -0 1.38655e-08)
(1.8243e-07 -2.322e-05 -0 -1.54334e-07 -0 -2.80962e-08)
(1.98062e-07 -2.4393e-05 -0 -2.3784e-07 -0 3.97784e-08)
(-4.2221e-07 -2.71166e-05 -0 4.43782e-07 -0 -2.15718e-08)
(-2.03132e-07 -2.36442e-05 -0 1.86526e-07 -0 1.66063e-08)
(1.66419e-07 -2.40918e-05 -0 -1.49774e-07 -0 -1.66444e-08)
(1.1285e-07 -2.53484e-05 -0 -1.30286e-07 -0 1.74367e-08)
(-4.76006e-07 -2.75448e-05 -0 4.93162e-07 -0 -1.71562e-08)
(-2.10057e-07 -2.55153e-05 -0 1.90122e-07 -0 1.99341e-08)
(1.26524e-07 -2.5968e-05 -0 -1.0031e-07 -0 -2.62134e-08)
(6.48822e-08 -2.72539e-05 -0 -9.04201e-08 -0 2.55379e-08)
(-5.2227e-07 -2.89181e-05 -0 5.4397e-07 -0 -2.16993e-08)
(-2.18227e-07 -2.84488e-05 -0 2.00565e-07 -0 1.76615e-08)
(1.0278e-07 -2.88465e-05 -0 -8.1501e-08 -0 -2.12791e-08)
(2.16994e-08 -3.01412e-05 -0 -5.02111e-08 -0 2.85117e-08)
(-5.5366e-07 -3.12569e-05 -0 5.82145e-07 -0 -2.84843e-08)
(-2.24544e-07 -3.24265e-05 -0 2.02954e-07 -0 2.15893e-08)
(7.31037e-08 -3.27938e-05 -0 -5.10309e-08 -0 -2.20728e-08)
(-2.8789e-08 -3.40781e-05 -0 1.25766e-08 -0 1.62124e-08)
(-5.55448e-07 -3.46891e-05 -0 5.74023e-07 -0 -1.85749e-08)
(-2.3694e-07 -3.75428e-05 -0 2.18416e-07 -0 1.85242e-08)
(4.26401e-08 -3.78328e-05 -0 -1.74995e-08 -0 -2.51406e-08)
(-4.40118e-08 -3.91394e-05 -0 1.40064e-08 -0 3.00054e-08)
(-5.54847e-07 -3.9273e-05 -0 5.75104e-07 -0 -2.02567e-08)
(-2.48043e-07 -4.38904e-05 -0 2.30401e-07 -0 1.76413e-08)
(1.69416e-08 -4.40726e-05 -0 6.78048e-09 -0 -2.37221e-08)
(-7.38784e-08 -4.54244e-05 -0 5.06639e-08 -0 2.32145e-08)
(-5.4338e-07 -4.5157e-05 -0 5.64681e-07 -0 -2.13012e-08)
(-2.54395e-07 -5.15393e-05 -0 2.34725e-07 -0 1.96704e-08)
(-8.73361e-09 -5.15828e-05 -0 3.27507e-08 -0 -2.40171e-08)
(-8.8613e-08 -5.3039e-05 -0 6.29463e-08 -0 2.56666e-08)
(-5.19391e-07 -5.24439e-05 -0 5.40351e-07 -0 -2.09597e-08)
(-2.60469e-07 -6.06536e-05 -0 2.41234e-07 -0 1.9235e-08)
(-3.38015e-08 -6.04877e-05 -0 5.68576e-08 -0 -2.30561e-08)
(-1.04171e-07 -6.20964e-05 -0 7.83971e-08 -0 2.57737e-08)
(-4.875e-07 -6.12815e-05 -0 5.0834e-07 -0 -2.08397e-08)
(-2.63143e-07 -7.13471e-05 -0 2.44876e-07 -0 1.82665e-08)
(-5.6692e-08 -7.09528e-05 -0 7.90983e-08 -0 -2.24063e-08)
(-1.20813e-07 -7.2743e-05 -0 9.67189e-08 -0 2.40937e-08)
(-4.50591e-07 -7.18028e-05 -0 4.73861e-07 -0 -2.32701e-08)
(-2.58815e-07 -8.3837e-05 -0 2.39407e-07 -0 1.94078e-08)
(-8.308e-08 -8.30894e-05 -0 1.07371e-07 -0 -2.42914e-08)
(-1.33392e-07 -8.50571e-05 -0 1.04319e-07 -0 2.90724e-08)
(-4.00803e-07 -8.41334e-05 -0 4.19116e-07 -0 -1.83134e-08)
(-2.48421e-07 -9.82392e-05 -0 2.2904e-07 -0 1.93808e-08)
(-1.08141e-07 -9.71617e-05 -0 1.39772e-07 -0 -3.16309e-08)
(-1.64465e-07 -9.93605e-05 -0 1.45032e-07 -0 1.94326e-08)
(-3.58034e-07 -9.84711e-05 -0 3.79544e-07 -0 -2.15095e-08)
(-2.26343e-07 -0.000114788 -0 2.02609e-07 -0 2.37338e-08)
(-1.19293e-07 -0.000113129 -0 1.40847e-07 -0 -2.15534e-08)
(-1.75989e-07 -0.000115584 -0 1.4167e-07 -0 3.43192e-08)
(-3.07743e-07 -0.000114993 -0 3.30057e-07 -0 -2.23135e-08)
(-2.04367e-07 -0.000133632 -0 1.9022e-07 -0 1.41467e-08)
(-1.31873e-07 -0.000131398 -0 1.59093e-07 -0 -2.722e-08)
(-2.26274e-07 -0.000134147 -0 2.02375e-07 -0 2.38988e-08)
(-2.61659e-07 -0.000133887 -0 2.81111e-07 -0 -1.94519e-08)
(-1.58694e-07 -0.000154773 -0 1.40934e-07 -0 1.77606e-08)
(-1.22556e-07 -0.000151752 -0 1.28571e-07 -0 -6.01534e-09)
(-2.94652e-07 -0.000154929 -0 2.9188e-07 -0 2.7719e-09)
(-2.09545e-07 -0.000155192 -0 2.249e-07 -0 -1.53553e-08)
(-2.73519e-07 -2.81516e-05 -0 2.59378e-07 -0 1.41412e-08)
(1.65837e-08 -2.48982e-05 -0 -2.2964e-09 -0 -1.42873e-08)
(3.44289e-07 -2.27923e-05 -0 -3.43497e-07 -0 -7.92012e-10)
(1.2474e-07 -2.24369e-05 -0 -9.02394e-08 -0 -3.4501e-08)
(-2.40689e-07 -2.83267e-05 -0 2.28013e-07 -0 1.2676e-08)
(1.04656e-07 -2.55737e-05 -0 -8.93755e-08 -0 -1.528e-08)
(3.92683e-07 -2.35284e-05 -0 -4.07676e-07 -0 1.4993e-08)
(1.51967e-07 -2.35821e-05 -0 -1.48083e-07 -0 -3.88427e-09)
(-2.02608e-07 -2.92291e-05 -0 1.86746e-07 -0 1.58616e-08)
(1.85285e-07 -2.70332e-05 -0 -1.77655e-07 -0 -7.62982e-09)
(4.22648e-07 -2.53463e-05 -0 -4.3618e-07 -0 1.35321e-08)
(1.41053e-07 -2.53992e-05 -0 -1.27187e-07 -0 -1.38663e-08)
(-1.77625e-07 -3.1222e-05 -0 1.68324e-07 -0 9.30118e-09)
(2.39479e-07 -2.9537e-05 -0 -2.2757e-07 -0 -1.19087e-08)
(4.30406e-07 -2.81011e-05 -0 -4.31185e-07 -0 7.79213e-10)
(1.34666e-07 -2.82735e-05 -0 -1.19603e-07 -0 -1.50631e-08)
(-1.44008e-07 -3.43584e-05 -0 1.30614e-07 -0 1.33936e-08)
(2.88309e-07 -3.31765e-05 -0 -2.77792e-07 -0 -1.0517e-08)
(4.65872e-07 -3.189e-05 -0 -4.83208e-07 -0 1.73359e-08)
(1.36116e-07 -3.21148e-05 -0 -1.29361e-07 -0 -6.75487e-09)
(-1.16955e-07 -3.86996e-05 -0 1.01241e-07 -0 1.57144e-08)
(3.27987e-07 -3.79419e-05 -0 -3.20539e-07 -0 -7.44771e-09)
(4.73151e-07 -3.6772e-05 -0 -4.84151e-07 -0 1.09996e-08)
(1.12903e-07 -3.71503e-05 -0 -9.44313e-08 -0 -1.84721e-08)
(-9.64673e-08 -4.43499e-05 -0 8.38465e-08 -0 1.26208e-08)
(3.54908e-07 -4.39361e-05 -0 -3.45132e-07 -0 -9.77598e-09)
(4.81989e-07 -4.28598e-05 -0 -4.92112e-07 -0 1.01236e-08)
(1.01937e-07 -4.34153e-05 -0 -8.7144e-08 -0 -1.47934e-08)
(-7.37758e-08 -5.13928e-05 -0 5.96066e-08 -0 1.41692e-08)
(3.7698e-07 -5.12235e-05 -0 -3.67407e-07 -0 -9.57294e-09)
(4.87683e-07 -5.02596e-05 -0 -4.99075e-07 -0 1.13923e-08)
(8.23163e-08 -5.10587e-05 -0 -6.80381e-08 -0 -1.42782e-08)
(-5.10939e-08 -5.99853e-05 -0 3.78939e-08 -0 1.32e-08)
(3.94761e-07 -5.99614e-05 -0 -3.85787e-07 -0 -8.97392e-09)
(4.84171e-07 -5.90719e-05 -0 -4.944e-07 -0 1.02289e-08)
(5.95168e-08 -6.01607e-05 -0 -4.53627e-08 -0 -1.41541e-08)
(-2.82427e-08 -7.02456e-05 -0 1.67288e-08 -0 1.15139e-08)
(4.05908e-07 -7.02367e-05 -0 -3.93708e-07 -0 -1.22003e-08)
(4.75627e-07 -6.94379e-05 -0 -4.85183e-07 -0 9.55523e-09)
(3.27207e-08 -7.08864e-05 -0 -2.19432e-08 -0 -1.07775e-08)
(7.93951e-09 -8.23661e-05 -0 -2.37154e-08 -0 1.57759e-08)
(4.25731e-07 -8.2261e-05 -0 -4.19877e-07 -0 -5.85392e-09)
(4.57362e-07 -8.15039e-05 -0 -4.66201e-07 -0 8.83912e-09)
(-7.95275e-09 -8.33836e-05 -0 2.55987e-08 -0 -1.7646e-08)
(4.29985e-08 -9.64861e-05 -0 -5.9037e-08 -0 1.60385e-08)
(4.40462e-07 -9.61693e-05 -0 -4.33316e-07 -0 -7.14615e-09)
(4.42326e-07 -9.54821e-05 -0 -4.59914e-07 -0 1.75874e-08)
(-5.24018e-08 -9.78881e-05 -0 7.02298e-08 -0 -1.78279e-08)
(8.65473e-08 -0.000112796 -0 -9.98607e-08 -0 1.33134e-08)
(4.55676e-07 -0.000112244 -0 -4.45738e-07 -0 -9.93819e-09)
(3.96477e-07 -0.000111575 -0 -4.05802e-07 -0 9.32535e-09)
(-9.52138e-08 -0.000114488 -0 1.07983e-07 -0 -1.27692e-08)
(1.39847e-07 -0.000131455 -0 -1.56755e-07 -0 1.69082e-08)
(4.79301e-07 -0.000130602 -0 -4.69903e-07 -0 -9.39848e-09)
(3.58085e-07 -0.000130016 -0 -3.70423e-07 -0 1.23378e-08)
(-1.61192e-07 -0.000133483 -0 1.80545e-07 -0 -1.93527e-08)
(1.9471e-07 -0.00015266 -0 -2.0235e-07 -0 7.64025e-09)
(5.11384e-07 -0.000151652 -0 -5.08975e-07 -0 -2.40924e-09)
(2.92471e-07 -0.000151149 -0 -2.98132e-07 -0 5.66118e-09)
(-2.01768e-07 -0.000154995 -0 2.00472e-07 -0 1.29584e-09)
)
;

boundaryField
{
    topWall
    {
        type            calculated;
        value           nonuniform List<symmTensor> 0();
    }
    botWall
    {
        type            calculated;
        value           nonuniform List<symmTensor> 0();
    }
    inlet
    {
        type            cyclic;
    }
    outlet
    {
        type            cyclic;
    }
    fixWall
    {
        type            empty;
    }
    procBoundary2to1
    {
        type            processor;
        value           nonuniform List<symmTensor> 8((-1.79286e-07 -2.311e-05 -0 1.62377e-07 -0 1.69088e-08) (2.19833e-07 -2.35226e-05 -0 -1.90087e-07 -0 -2.97458e-08) (2.42382e-07 -2.45586e-05 -0 -2.55763e-07 -0 1.33815e-08) (-3.39773e-07 -2.72649e-05 -0 3.46812e-07 -0 -7.03898e-09) (-3.05247e-07 -2.82168e-05 -0 2.79853e-07 -0 2.5394e-08) (-6.54923e-08 -2.51373e-05 -0 7.01086e-08 -0 -4.61638e-09) (3.3126e-07 -2.33379e-05 -0 -3.64685e-07 -0 3.34248e-08) (1.36363e-07 -2.31856e-05 -0 -1.28693e-07 -0 -7.66935e-09));
    }
    procBoundary2to3
    {
        type            processor;
        value           nonuniform List<symmTensor> 8((-1.06791e-07 -0.000178501 -0 1.07337e-07 -0 -5.45249e-10) (-1.07152e-07 -0.00017561 -0 1.02835e-07 -0 4.31698e-09) (-3.55368e-07 -0.000178488 -0 3.41845e-07 -0 1.35232e-08) (-1.64611e-07 -0.000178725 -0 1.64264e-07 -0 3.46631e-10) (2.37329e-07 -0.000176469 -0 -2.29393e-07 -0 -7.93544e-09) (5.3715e-07 -0.00017563 -0 -5.35217e-07 -0 -1.93291e-09) (2.14704e-07 -0.000175364 -0 -1.99534e-07 -0 -1.51695e-08) (-2.58687e-07 -0.000178938 -0 2.54717e-07 -0 3.96993e-09));
    }
}


// ************************************************************************* //
