/*--------------------------------*- C++ -*----------------------------------*\
  =========                 |
  \\      /  F ield         | OpenFOAM: The Open Source CFD Toolbox
   \\    /   O peration     | Website:  https://openfoam.org
    \\  /    A nd           | Version:  dev
     \\/     M anipulation  |

   OpenFOAM for Windows 20.09 (v1)
   Built by CFD Support, www.cfdsupport.com (based on Symscape).
\*---------------------------------------------------------------------------*/
FoamFile
{
    version     2.0;
    format      ascii;
    class       volScalarField;
    location    "8";
    object      epsilon;
}
// * * * * * * * * * * * * * * * * * * * * * * * * * * * * * * * * * * * * * //

dimensions      [0 2 -3 0 0 0 0];

internalField   nonuniform List<scalar> 
120
(
9.9403e-16
9.92699e-16
9.91909e-16
9.93996e-16
1.05055e-15
1.0491e-15
1.04826e-15
1.05054e-15
1.11504e-15
1.11346e-15
1.11257e-15
1.11505e-15
1.18824e-15
1.1865e-15
1.18556e-15
1.18826e-15
1.27108e-15
1.2692e-15
1.26819e-15
1.27114e-15
1.36478e-15
1.36272e-15
1.36166e-15
1.36487e-15
1.47079e-15
1.46855e-15
1.46741e-15
1.47093e-15
1.59091e-15
1.58845e-15
1.58725e-15
1.5911e-15
1.72728e-15
1.72459e-15
1.72331e-15
1.72756e-15
1.88252e-15
1.87959e-15
1.87822e-15
1.88291e-15
2.0598e-15
2.0566e-15
2.05514e-15
2.06034e-15
2.26295e-15
2.25945e-15
2.2579e-15
2.26369e-15
2.49666e-15
2.49283e-15
2.49117e-15
2.49766e-15
2.76661e-15
2.76244e-15
2.76066e-15
2.76798e-15
3.07983e-15
3.07528e-15
3.07337e-15
3.08168e-15
9.9631e-16
9.96223e-16
9.94656e-16
9.94192e-16
1.05303e-15
1.05292e-15
1.05124e-15
1.05074e-15
1.11772e-15
1.11759e-15
1.11578e-15
1.11526e-15
1.19113e-15
1.19097e-15
1.18904e-15
1.18848e-15
1.27422e-15
1.27402e-15
1.27196e-15
1.27137e-15
1.36818e-15
1.36794e-15
1.36574e-15
1.36512e-15
1.47448e-15
1.47421e-15
1.47184e-15
1.47119e-15
1.59493e-15
1.5946e-15
1.59207e-15
1.59138e-15
1.73167e-15
1.73129e-15
1.72858e-15
1.72784e-15
1.88735e-15
1.88691e-15
1.884e-15
1.8832e-15
2.06514e-15
2.06462e-15
2.06151e-15
2.06064e-15
2.2689e-15
2.2683e-15
2.26495e-15
2.26399e-15
2.50333e-15
2.50263e-15
2.49903e-15
2.49795e-15
2.77417e-15
2.77337e-15
2.76948e-15
2.76824e-15
3.08847e-15
3.08755e-15
3.08334e-15
3.08187e-15
)
;

boundaryField
{
    topWall
    {
        type            epsilonWallFunction;
        value           nonuniform List<scalar> 0();
    }
    botWall
    {
        type            epsilonWallFunction;
        value           nonuniform List<scalar> 0();
    }
    inlet
    {
        type            cyclic;
    }
    outlet
    {
        type            cyclic;
    }
    fixWall
    {
        type            empty;
    }
    procBoundary2to1
    {
        type            processor;
        value           nonuniform List<scalar> 8(9.4457e-16 9.43358e-16 9.42618e-16 9.44525e-16 9.46664e-16 9.46598e-16 9.45148e-16 9.44711e-16);
    }
    procBoundary2to3
    {
        type            processor;
        value           nonuniform List<scalar> 8(3.44543e-15 3.44049e-15 3.43846e-15 3.44804e-15 3.45552e-15 3.45447e-15 3.44987e-15 3.44808e-15);
    }
}


// ************************************************************************* //
