/*--------------------------------*- C++ -*----------------------------------*\
  =========                 |
  \\      /  F ield         | OpenFOAM: The Open Source CFD Toolbox
   \\    /   O peration     | Website:  https://openfoam.org
    \\  /    A nd           | Version:  dev
     \\/     M anipulation  |

   OpenFOAM for Windows 20.09 (v1)
   Built by CFD Support, www.cfdsupport.com (based on Symscape).
\*---------------------------------------------------------------------------*/
FoamFile
{
    version     2.0;
    format      ascii;
    class       volVectorField;
    location    "8";
    object      gradp_rgh;
}
// * * * * * * * * * * * * * * * * * * * * * * * * * * * * * * * * * * * * * //

dimensions      [1 -2 -2 0 0 0 0];

internalField   nonuniform List<vector> 
120
(
(-1.24744 -0.634006 0)
(-1.25155 -0.90202 0)
(-1.24983 -0.313595 0)
(-1.24573 -0.463424 0)
(-1.24538 -0.00348115 0)
(-1.25167 -0.00604167 0)
(-1.24997 -0.0182877 0)
(-1.24575 -0.0121794 0)
(-1.2453 0.00473579 0)
(-1.25179 0.00486237 0)
(-1.24993 -0.00162803 0)
(-1.24566 0.0100162 0)
(-1.24517 -0.00279665 0)
(-1.25178 0.00260492 0)
(-1.24988 -0.00680779 0)
(-1.24567 0.00325606 0)
(-1.24513 -0.000974825 0)
(-1.25186 0.000345176 0)
(-1.24992 -0.00584149 0)
(-1.24559 0.000270467 0)
(-1.24504 -0.000106593 0)
(-1.25186 0.00349895 0)
(-1.24989 0.000395994 0)
(-1.24561 0.00782716 0)
(-1.24494 -4.54451e-05 0)
(-1.25185 0.003603 0)
(-1.24985 0.000553187 0)
(-1.24563 0.00840364 0)
(-1.24485 -1.11426e-05 0)
(-1.25185 0.00378594 0)
(-1.24981 0.00335849 0)
(-1.24562 0.00830089 0)
(-1.24475 0.00153205 0)
(-1.2518 0.00402393 0)
(-1.24977 0.000843858 0)
(-1.24575 0.00420563 0)
(-1.24466 -0.00123562 0)
(-1.25186 0.00181902 0)
(-1.2498 -0.00245658 0)
(-1.24573 0.00370529 0)
(-1.24467 -0.00335645 0)
(-1.25182 0.000861419 0)
(-1.24974 -0.000572934 0)
(-1.24575 0.00677876 0)
(-1.24459 -0.00121285 0)
(-1.25181 0.00194897 0)
(-1.2497 -0.000878649 0)
(-1.24559 0.013463 0)
(-1.24475 -0.00227702 0)
(-1.25181 0.000834265 0)
(-1.24955 0.0238806 0)
(-1.24565 0.010715 0)
(-1.24483 0.369678 0)
(-1.25138 0.7233 0)
(-1.24954 0.32922 0)
(-1.24605 0.0211706 0)
(-1.23902 -0.146299 0)
(-1.25249 -0.463348 0)
(-1.26125 1.06271 0)
(-1.2511 0.331707 0)
(-1.2486 -0.122674 0)
(-1.25042 -0.189201 0)
(-1.25413 -0.479166 0)
(-1.25231 -0.117908 0)
(-1.25677 -0.0142297 0)
(-1.25229 -0.511903 0)
(-1.24788 -0.127959 0)
(-1.25029 -0.134065 0)
(-1.25693 0.0030186 0)
(-1.25231 -0.0161471 0)
(-1.24784 0.00198987 0)
(-1.25024 -0.00772422 0)
(-1.25721 -0.00299926 0)
(-1.25231 -0.0118014 0)
(-1.24774 0.00188629 0)
(-1.25024 -0.00785412 0)
(-1.25718 -0.00202161 0)
(-1.25223 -0.00387555 0)
(-1.24777 0.00696691 0)
(-1.25031 -0.0073047 0)
(-1.25728 -0.00149805 0)
(-1.25216 -0.00307206 0)
(-1.24779 0.00700144 0)
(-1.25037 -0.00758915 0)
(-1.25736 -0.000178278 0)
(-1.25209 -0.00497573 0)
(-1.24785 0.00941502 0)
(-1.25043 -0.00768371 0)
(-1.2575 -0.00398277 0)
(-1.252 -0.00653096 0)
(-1.24784 0.00447788 0)
(-1.25053 -0.00751581 0)
(-1.25761 -0.00568942 0)
(-1.25195 -0.00519797 0)
(-1.24786 0.00148358 0)
(-1.25051 -0.00773797 0)
(-1.25766 -0.00247618 0)
(-1.25188 -0.00504247 0)
(-1.24788 0.00575541 0)
(-1.25053 -0.00315759 0)
(-1.25775 0.00779011 0)
(-1.25181 0.0016749 0)
(-1.24783 0.0108966 0)
(-1.25062 -0.00310063 0)
(-1.25774 0.00484968 0)
(-1.25183 -0.00940906 0)
(-1.24796 0.00277927 0)
(-1.25077 0.00640707 0)
(-1.25814 -0.00360892 0)
(-1.25184 -0.014358 0)
(-1.24757 -0.00160227 0)
(-1.25069 0.0151759 0)
(-1.25816 0.00241612 0)
(-1.25179 0.018554 0)
(-1.24747 0.00676117 0)
(-1.25078 0.37981 0)
(-1.25818 0.497429 0)
(-1.25177 0.21939 0)
(-1.24155 0.516367 0)
(-1.24464 -0.262498 0)
)
;

boundaryField
{
    topWall
    {
        type            extrapolatedCalculated;
        value           nonuniform List<vector> 0();
    }
    botWall
    {
        type            extrapolatedCalculated;
        value           nonuniform List<vector> 0();
    }
    inlet
    {
        type            cyclic;
    }
    outlet
    {
        type            cyclic;
    }
    fixWall
    {
        type            empty;
    }
    procBoundary2to1
    {
        type            processor;
        value           nonuniform List<vector> 8((-1.23231 0.357202 0) (-1.25701 0.337852 0) (-1.25728 0.651152 0) (-1.24893 0.681437 0) (-1.26134 0.496882 0) (-1.24635 0.319073 0) (-1.24907 -0.130627 0) (-1.24771 0.149682 0));
    }
    procBoundary2to3
    {
        type            processor;
        value           nonuniform List<vector> 8((-1.24818 -0.689447 0) (-1.23123 -1.70717 0) (-1.23629 0.326588 0) (-1.25547 -0.446524 0) (-1.26003 -0.0889252 0) (-1.25148 -0.590938 0) (-1.2555 0.0311185 0) (-1.26182 -0.950873 0));
    }
}


// ************************************************************************* //
