/*--------------------------------*- C++ -*----------------------------------*\
  =========                 |
  \\      /  F ield         | OpenFOAM: The Open Source CFD Toolbox
   \\    /   O peration     | Website:  https://openfoam.org
    \\  /    A nd           | Version:  dev
     \\/     M anipulation  |

   OpenFOAM for Windows 20.09 (v1)
   Built by CFD Support, www.cfdsupport.com (based on Symscape).
\*---------------------------------------------------------------------------*/
FoamFile
{
    version     2.0;
    format      ascii;
    class       volTensorField;
    location    "8";
    object      gradU;
}
// * * * * * * * * * * * * * * * * * * * * * * * * * * * * * * * * * * * * * //

dimensions      [0 0 -1 0 0 0 0];

internalField   nonuniform List<tensor> 
120
(
(0.000571615 8.40227e-05 0 0.118762 -0.000461384 0 0 0 0)
(-0.000557895 0.000263428 0 0.122802 0.00033453 0 0 0 0)
(-0.000419451 -5.5186e-05 0 0.129338 0.00073569 0 0 0 0)
(0.00106169 -0.000324784 0 0.144043 -0.00123319 0 0 0 0)
(0.000582308 8.56633e-05 0 0.125228 -0.000450287 0 0 0 0)
(-0.000485117 0.000274267 0 0.127412 0.000352794 0 0 0 0)
(-0.000252845 -7.03215e-05 0 0.134417 0.000391466 0 0 0 0)
(0.00121595 -0.000336327 0 0.146324 -0.00135234 0 0 0 0)
(0.000609475 8.35338e-05 0 0.135148 -0.000450999 0 0 0 0)
(-0.000404753 0.000277457 0 0.137353 0.000196356 0 0 0 0)
(-0.000104262 -8.3605e-05 0 0.144529 0.000307289 0 0 0 0)
(0.00132651 -0.000340819 0 0.153607 -0.00149902 0 0 0 0)
(0.000625104 8.39309e-05 0 0.150695 -0.000484695 0 0 0 0)
(-0.000328757 0.000286905 0 0.152599 0.000159588 0 0 0 0)
(1.80527e-05 -9.85778e-05 0 0.159847 0.000208615 0 0 0 0)
(0.00139172 -0.000348996 0 0.16601 -0.00161817 0 0 0 0)
(0.000652252 8.15764e-05 0 0.171779 -0.000480617 0 0 0 0)
(-0.000252218 0.000289013 0 0.173518 7.6739e-05 0 0 0 0)
(0.000119254 -0.000113234 0 0.180727 9.635e-06 0 0 0 0)
(0.00142271 -0.000351319 0 0.184203 -0.00157038 0 0 0 0)
(0.000676981 7.97948e-05 0 0.198897 -0.000529713 0 0 0 0)
(-0.000179619 0.000295076 0 0.200219 -2.02488e-05 0 0 0 0)
(0.000196146 -0.00012603 0 0.207565 4.23973e-05 0 0 0 0)
(0.00141666 -0.000354334 0 0.208501 -0.00157771 0 0 0 0)
(0.000704063 7.78841e-05 0 0.232541 -0.000563814 0 0 0 0)
(-0.000107759 0.000298548 0 0.233286 -8.08317e-05 0 0 0 0)
(0.000257296 -0.000139192 0 0.240888 -7.27411e-05 0 0 0 0)
(0.00138351 -0.000355803 0 0.239688 -0.00155285 0 0 0 0)
(0.000726274 7.52521e-05 0 0.273083 -0.000569895 0 0 0 0)
(-4.05011e-05 0.000303261 0 0.273085 -0.000150434 0 0 0 0)
(0.000302841 -0.000150564 0 0.281257 -9.87912e-05 0 0 0 0)
(0.00132084 -0.000356268 0 0.278309 -0.00148747 0 0 0 0)
(0.000741214 7.30024e-05 0 0.321391 -0.000588296 0 0 0 0)
(2.84751e-05 0.0003064 0 0.320279 -0.000211771 0 0 0 0)
(0.000344353 -0.000161476 0 0.329272 -0.000139452 0 0 0 0)
(0.00123665 -0.000356164 0 0.325148 -0.00140233 0 0 0 0)
(0.000745734 7.03442e-05 0 0.378069 -0.000600515 0 0 0 0)
(9.08571e-05 0.000310742 0 0.375739 -0.000268987 0 0 0 0)
(0.000384002 -0.000170406 0 0.385708 -0.000192457 0 0 0 0)
(0.0011324 -0.000355034 0 0.38091 -0.0013174 0 0 0 0)
(0.00073729 6.80262e-05 0 0.444268 -0.000582998 0 0 0 0)
(0.00015579 0.000313201 0 0.440061 -0.000348907 0 0 0 0)
(0.00043053 -0.000178949 0 0.450982 -0.000199405 0 0 0 0)
(0.0010136 -0.000353186 0 0.44626 -0.00115919 0 0 0 0)
(0.000709674 6.64391e-05 0 0.520601 -0.000555597 0 0 0 0)
(0.000202751 0.000317135 0 0.51464 -0.000454217 0 0 0 0)
(0.000487328 -0.000183911 0 0.526795 -0.000332839 0 0 0 0)
(0.000891791 -0.000349966 0 0.522247 -0.00106279 0 0 0 0)
(0.000662703 6.43451e-05 0 0.608312 -0.00047402 0 0 0 0)
(0.00025901 0.000316913 0 0.599269 -0.00043036 0 0 0 0)
(0.000557317 -0.000189092 0 0.612786 -0.00028448 0 0 0 0)
(0.000756389 -0.000344323 0 0.609807 -0.000933782 0 0 0 0)
(0.00057906 6.45996e-05 0 0.708183 -0.000466594 0 0 0 0)
(0.000277331 0.000320294 0 0.696088 -0.000493731 0 0 0 0)
(0.000662958 -0.000192301 0 0.711172 -0.000472963 0 0 0 0)
(0.000641848 -0.000340227 0 0.709939 -0.000796491 0 0 0 0)
(0.000467606 6.49451e-05 0 0.820234 -0.000326409 0 0 0 0)
(0.000308832 0.000316807 0 0.803969 -0.000356654 0 0 0 0)
(0.000788173 -0.000194138 0 0.821318 -0.000766136 0 0 0 0)
(0.000514603 -0.00032877 0 0.822845 -0.000636677 0 0 0 0)
(0.000762299 -0.000186862 0 0.14939 -0.000649877 0 0 0 0)
(-8.1808e-05 0.000204726 0 0.131756 -3.17758e-05 0 0 0 0)
(-0.000914464 0.000158025 0 0.120641 0.000908167 0 0 0 0)
(-0.00042199 -0.000143371 0 0.119059 0.000147707 0 0 0 0)
(0.000671416 -0.000174808 0 0.150306 -0.000570642 0 0 0 0)
(-0.000317829 0.000217933 0 0.135323 0.000196353 0 0 0 0)
(-0.00100088 0.000159466 0 0.124541 0.00112007 0 0 0 0)
(-0.000413006 -0.000155873 0 0.125141 0.000382126 0 0 0 0)
(0.000578944 -0.00016105 0 0.155075 -0.000452844 0 0 0 0)
(-0.000511224 0.000232905 0 0.143043 0.000450567 0 0 0 0)
(-0.00108416 0.000161121 0 0.134174 0.00119174 0 0 0 0)
(-0.000410536 -0.000169544 0 0.134785 0.000300299 0 0 0 0)
(0.000495354 -0.000142315 0 0.165619 -0.00042141 0 0 0 0)
(-0.000666177 0.000245343 0 0.156301 0.000571503 0 0 0 0)
(-0.00113851 0.000156961 0 0.148779 0.0011447 0 0 0 0)
(-0.000396783 -0.000183252 0 0.150033 0.000277031 0 0 0 0)
(0.000417114 -0.000124556 0 0.182224 -0.000310635 0 0 0 0)
(-0.000791888 0.000259007 0 0.175577 0.000708278 0 0 0 0)
(-0.00118862 0.000156213 0 0.168861 0.00132644 0 0 0 0)
(-0.000378608 -0.0001967 0 0.170405 0.000324907 0 0 0 0)
(0.000351575 -0.000104337 0 0.205212 -0.000226645 0 0 0 0)
(-0.000888901 0.000272628 0 0.200819 0.000829692 0 0 0 0)
(-0.0012247 0.000150572 0 0.194741 0.00131215 0 0 0 0)
(-0.000348145 -0.00021337 0 0.19711 0.000201292 0 0 0 0)
(0.000289084 -8.44323e-05 0 0.235139 -0.000188748 0 0 0 0)
(-0.000966413 0.000284653 0 0.232577 0.000888694 0 0 0 0)
(-0.00125044 0.00014574 0 0.227011 0.00133093 0 0 0 0)
(-0.000309337 -0.000227398 0 0.230329 0.000191729 0 0 0 0)
(0.000233054 -6.36444e-05 0 0.272446 -0.000120409 0 0 0 0)
(-0.00102437 0.000297955 0 0.271186 0.000948261 0 0 0 0)
(-0.00126217 0.000138956 0 0.266237 0.00135274 0 0 0 0)
(-0.000255975 -0.000244949 0 0.270856 0.000142464 0 0 0 0)
(0.000170379 -4.38368e-05 0 0.317966 -6.54389e-05 0 0 0 0)
(-0.0010699 0.000309206 0 0.317486 0.000998555 0 0 0 0)
(-0.00125595 0.00013231 0 0.312949 0.00133727 0 0 0 0)
(-0.000195228 -0.000259442 0 0.319111 8.27028e-05 0 0 0 0)
(0.000105355 -2.36297e-05 0 0.372325 -1.38193e-05 0 0 0 0)
(-0.00110799 0.000321334 0 0.371933 0.00101099 0 0 0 0)
(-0.00123509 0.000123692 0 0.367897 0.00131106 0 0 0 0)
(-0.00011527 -0.000277041 0 0.375975 2.95891e-05 0 0 0 0)
(2.07665e-05 -5.03024e-06 0 0.436545 0.000104652 0 0 0 0)
(-0.0011437 0.000331287 0 0.435652 0.00109716 0 0 0 0)
(-0.00118859 0.000115953 0 0.431855 0.00125886 0 0 0 0)
(-2.56871e-05 -0.000291301 0 0.442224 -0.000114599 0 0 0 0)
(-7.14438e-05 1.39761e-05 0 0.511362 0.00019895 0 0 0 0)
(-0.00118616 0.000340571 0 0.509357 0.00112935 0 0 0 0)
(-0.00112556 0.000103496 0 0.505951 0.00126538 0 0 0 0)
(9.16208e-05 -0.000307739 0 0.519115 -0.000233353 0 0 0 0)
(-0.00019407 3.15055e-05 0 0.59779 0.000299911 0 0 0 0)
(-0.00123388 0.000349061 0 0.594547 0.00115487 0 0 0 0)
(-0.00102595 9.32417e-05 0 0.591256 0.00110009 0 0 0 0)
(0.000218478 -0.000321651 0 0.607106 -0.000319993 0 0 0 0)
(-0.000325787 4.87869e-05 0 0.696665 0.000460207 0 0 0 0)
(-0.00129505 0.000353907 0 0.691839 0.00122034 0 0 0 0)
(-0.000916231 7.89146e-05 0 0.689005 0.00101432 0 0 0 0)
(0.000375875 -0.000333974 0 0.707793 -0.000529729 0 0 0 0)
(-0.000495734 6.51192e-05 0 0.809035 0.000556474 0 0 0 0)
(-0.00136155 0.000358296 0 0.803395 0.0013424 0 0 0 0)
(-0.000760045 6.40739e-05 0 0.801024 0.000805051 0 0 0 0)
(0.000538118 -0.000346333 0 0.821819 -0.000527816 0 0 0 0)
)
;

boundaryField
{
    topWall
    {
        type            extrapolatedCalculated;
        value           nonuniform List<tensor> 0();
    }
    botWall
    {
        type            extrapolatedCalculated;
        value           nonuniform List<tensor> 0();
    }
    inlet
    {
        type            cyclic;
    }
    outlet
    {
        type            cyclic;
    }
    fixWall
    {
        type            empty;
    }
    procBoundary2to1
    {
        type            processor;
        value           nonuniform List<tensor> 8((0.000519915 8.25496e-05 0 0.1224 -0.00038549 0 0 0 0) (-0.000661383 0.000254316 0 0.124416 0.000424904 0 0 0 0) (-0.00060685 -4.41929e-05 0 0.130205 0.000713233 0 0 0 0) (0.000881746 -0.000313235 0 0.144817 -0.000937706 0 0 0 0) (0.000876198 -0.000194831 0 0.149744 -0.000674315 0 0 0 0) (0.000161321 0.000191966 0 0.133036 -0.000198021 0 0 0 0) (-0.000789263 0.000156475 0 0.123534 0.00105499 0 0 0 0) (-0.000381685 -0.000133047 0 0.123016 0.000320713 0 0 0 0));
    }
    procBoundary2to3
    {
        type            processor;
        value           nonuniform List<tensor> 8((0.000281552 6.74523e-05 0 0.945989 -0.000285887 0 0 0 0) (0.000295392 0.000312965 0 0.93042 -0.000261072 0 0 0 0) (0.000977561 -0.000196968 0 0.946181 -0.000870052 0 0 0 0) (0.000437138 -0.000318183 0 0.947561 -0.000434382 0 0 0 0) (-0.00064995 8.17715e-05 0 0.935202 0.000586863 0 0 0 0) (-0.00142857 0.00035805 0 0.930483 0.0014132 0 0 0 0) (-0.000609164 4.77444e-05 0 0.929379 0.000488566 0 0 0 0) (0.00069604 -0.000352832 0 0.948723 -0.000664479 0 0 0 0));
    }
}


// ************************************************************************* //
