/*--------------------------------*- C++ -*----------------------------------*\
  =========                 |
  \\      /  F ield         | OpenFOAM: The Open Source CFD Toolbox
   \\    /   O peration     | Website:  https://openfoam.org
    \\  /    A nd           | Version:  dev
     \\/     M anipulation  |

   OpenFOAM for Windows 20.09 (v1)
   Built by CFD Support, www.cfdsupport.com (based on Symscape).
\*---------------------------------------------------------------------------*/
FoamFile
{
    version     2.0;
    format      ascii;
    class       volVectorField;
    location    "8";
    object      gradp;
}
// * * * * * * * * * * * * * * * * * * * * * * * * * * * * * * * * * * * * * //

dimensions      [1 -2 -2 0 0 0 0];

internalField   nonuniform List<vector> 
120
(
(3.75236 -98.7093 0)
(-1.25168 -98.9715 0)
(-1.24999 -98.3902 0)
(-1.24566 -98.535 0)
(3.75461 -98.0939 0)
(-1.25168 -98.0971 0)
(-1.24997 -98.1009 0)
(-1.24574 -98.0937 0)
(3.7547 -98.0951 0)
(-1.25179 -98.0944 0)
(-1.24993 -98.1007 0)
(-1.24566 -98.0891 0)
(3.75484 -98.1031 0)
(-1.25178 -98.0974 0)
(-1.24988 -98.107 0)
(-1.24568 -98.0969 0)
(3.75488 -98.1014 0)
(-1.25186 -98.0999 0)
(-1.24992 -98.1063 0)
(-1.2456 -98.1002 0)
(3.75496 -98.1006 0)
(-1.25186 -98.0968 0)
(-1.24989 -98.1 0)
(-1.24561 -98.0926 0)
(3.75506 -98.1005 0)
(-1.25185 -98.0967 0)
(-1.24985 -98.0999 0)
(-1.24563 -98.092 0)
(3.75515 -98.1004 0)
(-1.25185 -98.0965 0)
(-1.24981 -98.097 0)
(-1.24562 -98.0919 0)
(3.75524 -98.0987 0)
(-1.25179 -98.0962 0)
(-1.24978 -98.0992 0)
(-1.24574 -98.0957 0)
(3.75534 -98.1013 0)
(-1.25185 -98.0982 0)
(-1.2498 -98.1022 0)
(-1.24572 -98.0959 0)
(3.75532 -98.1031 0)
(-1.25181 -98.0989 0)
(-1.24974 -98.0999 0)
(-1.24574 -98.0926 0)
(3.75541 -98.1009 0)
(-1.2518 -98.0976 0)
(-1.2497 -98.1 0)
(-1.24558 -98.086 0)
(3.75526 -98.101 0)
(-1.2518 -98.0977 0)
(-1.24954 -98.0747 0)
(-1.24565 -98.0892 0)
(3.75521 -97.7141 0)
(-1.25136 -97.3462 0)
(-1.24955 -97.7574 0)
(-1.24609 -98.0954 0)
(3.76125 -98.2523 0)
(-1.25252 -98.5828 0)
(-1.26203 -97.0543 0)
(-1.25139 -97.7969 0)
(-1.24851 -98.2072 0)
(-1.25025 -98.2845 0)
(-1.25386 -98.5851 0)
(3.74759 -98.2148 0)
(-1.25676 -98.1007 0)
(-1.25229 -98.5989 0)
(-1.24788 -98.2245 0)
(3.74971 -98.2377 0)
(-1.25693 -98.0969 0)
(-1.25231 -98.1165 0)
(-1.24784 -98.0982 0)
(3.74977 -98.108 0)
(-1.25722 -98.1033 0)
(-1.25231 -98.1123 0)
(-1.24774 -98.0985 0)
(3.74976 -98.1081 0)
(-1.25719 -98.1025 0)
(-1.25223 -98.1043 0)
(-1.24777 -98.0935 0)
(3.74969 -98.1075 0)
(-1.25729 -98.1018 0)
(-1.25216 -98.1033 0)
(-1.24779 -98.0934 0)
(3.74963 -98.1077 0)
(-1.25737 -98.1004 0)
(-1.25209 -98.105 0)
(-1.24784 -98.0908 0)
(3.74957 -98.1077 0)
(-1.2575 -98.1039 0)
(-1.252 -98.1063 0)
(-1.24783 -98.0955 0)
(3.74947 -98.1074 0)
(-1.25761 -98.1054 0)
(-1.25195 -98.1048 0)
(-1.24786 -98.0983 0)
(3.74949 -98.1076 0)
(-1.25766 -98.1019 0)
(-1.25188 -98.1045 0)
(-1.24788 -98.0939 0)
(3.74946 -98.103 0)
(-1.25775 -98.0915 0)
(-1.25182 -98.0978 0)
(-1.24783 -98.0886 0)
(3.74937 -98.1029 0)
(-1.25774 -98.0949 0)
(-1.25184 -98.1096 0)
(-1.24797 -98.0974 0)
(3.74922 -98.0941 0)
(-1.25815 -98.105 0)
(-1.25186 -98.1163 0)
(-1.24757 -98.1026 0)
(3.74931 -98.0857 0)
(-1.25819 -98.1014 0)
(-1.2518 -98.1041 0)
(-1.24746 -98.0924 0)
(3.74925 -97.7052 0)
(-1.25829 -97.6242 0)
(-1.25171 -97.9101 0)
(-1.24092 -97.6018 0)
(3.75561 -98.3741 0)
)
;

boundaryField
{
    topWall
    {
        type            extrapolatedCalculated;
        value           nonuniform List<vector> 0();
    }
    botWall
    {
        type            extrapolatedCalculated;
        value           nonuniform List<vector> 0();
    }
    inlet
    {
        type            cyclic;
    }
    outlet
    {
        type            cyclic;
    }
    fixWall
    {
        type            empty;
    }
    procBoundary2to1
    {
        type            processor;
        value           nonuniform List<vector> 8((3.76722 -97.7522 0) (-1.257 -97.7709 0) (-1.25725 -97.4659 0) (-1.24879 -97.4363 0) (-1.26094 -97.6163 0) (-1.24599 -97.7939 0) (-1.24904 -98.2344 0) (3.75178 -97.9472 0));
    }
    procBoundary2to3
    {
        type            processor;
        value           nonuniform List<vector> 8((3.75173 -98.8041 0) (-1.2314 -99.8358 0) (-1.23646 -97.7863 0) (-1.25559 -98.5295 0) (-1.26008 -98.1857 0) (-1.25142 -98.669 0) (-1.25519 -98.07 0) (3.73841 -99.0658 0));
    }
}


// ************************************************************************* //
