/*--------------------------------*- C++ -*----------------------------------*\
  =========                 |
  \\      /  F ield         | OpenFOAM: The Open Source CFD Toolbox
   \\    /   O peration     | Website:  https://openfoam.org
    \\  /    A nd           | Version:  dev
     \\/     M anipulation  |

   OpenFOAM for Windows 20.09 (v1)
   Built by CFD Support, www.cfdsupport.com (based on Symscape).
\*---------------------------------------------------------------------------*/
FoamFile
{
    version     2.0;
    format      ascii;
    class       volScalarField;
    location    "8";
    object      k;
}
// * * * * * * * * * * * * * * * * * * * * * * * * * * * * * * * * * * * * * //

dimensions      [0 2 -2 0 0 0 0];

internalField   nonuniform List<scalar> 
120
(
4.55668e-16
4.55085e-16
4.5473e-16
4.55666e-16
5.07581e-16
5.06914e-16
5.0652e-16
5.07598e-16
5.65605e-16
5.64846e-16
5.6441e-16
5.65646e-16
6.30305e-16
6.29446e-16
6.28967e-16
6.30377e-16
7.02319e-16
7.01351e-16
7.00827e-16
7.0243e-16
7.8236e-16
7.81272e-16
7.80702e-16
7.82518e-16
8.71229e-16
8.7001e-16
8.69393e-16
8.71444e-16
9.69824e-16
9.68462e-16
9.67798e-16
9.70108e-16
1.07915e-15
1.07764e-15
1.07692e-15
1.07952e-15
1.20035e-15
1.19866e-15
1.1979e-15
1.20082e-15
1.33469e-15
1.33282e-15
1.33201e-15
1.33527e-15
1.4836e-15
1.48153e-15
1.48067e-15
1.48433e-15
1.64871e-15
1.64643e-15
1.64551e-15
1.6496e-15
1.83183e-15
1.82933e-15
1.82835e-15
1.83292e-15
2.03503e-15
2.03229e-15
2.03125e-15
2.03635e-15
4.56726e-16
4.56759e-16
4.56016e-16
4.55773e-16
5.08801e-16
5.08824e-16
5.07982e-16
5.07711e-16
5.67003e-16
5.67013e-16
5.66065e-16
5.65766e-16
6.319e-16
6.31894e-16
6.30833e-16
6.30504e-16
7.04132e-16
7.04105e-16
7.02923e-16
7.02563e-16
7.84414e-16
7.84363e-16
7.8305e-16
7.82659e-16
8.7355e-16
8.7347e-16
8.72019e-16
8.71594e-16
9.72442e-16
9.72326e-16
9.70728e-16
9.70268e-16
1.0821e-15
1.08195e-15
1.08019e-15
1.07969e-15
1.20367e-15
1.20346e-15
1.20154e-15
1.201e-15
1.33842e-15
1.33816e-15
1.33607e-15
1.33547e-15
1.48779e-15
1.48747e-15
1.4852e-15
1.48455e-15
1.65342e-15
1.65303e-15
1.65057e-15
1.64984e-15
1.83713e-15
1.83666e-15
1.834e-15
1.83319e-15
2.04099e-15
2.04043e-15
2.03757e-15
2.03665e-15
)
;

boundaryField
{
    topWall
    {
        type            kqRWallFunction;
        value           nonuniform List<scalar> 0();
    }
    botWall
    {
        type            kqRWallFunction;
        value           nonuniform List<scalar> 0();
    }
    inlet
    {
        type            cyclic;
    }
    outlet
    {
        type            cyclic;
    }
    fixWall
    {
        type            empty;
    }
    procBoundary2to1
    {
        type            processor;
        value           nonuniform List<scalar> 8(4.09362e-16 4.08855e-16 4.08539e-16 4.09346e-16 4.10275e-16 4.10314e-16 4.09662e-16 4.09446e-16);
    }
    procBoundary2to3
    {
        type            processor;
        value           nonuniform List<scalar> 8(2.26065e-15 2.25765e-15 2.25655e-15 2.26224e-15 2.26736e-15 2.26671e-15 2.26364e-15 2.26258e-15);
    }
}


// ************************************************************************* //
