/*--------------------------------*- C++ -*----------------------------------*\
  =========                 |
  \\      /  F ield         | OpenFOAM: The Open Source CFD Toolbox
   \\    /   O peration     | Website:  https://openfoam.org
    \\  /    A nd           | Version:  dev
     \\/     M anipulation  |

   OpenFOAM for Windows 20.09 (v1)
   Built by CFD Support, www.cfdsupport.com (based on Symscape).
\*---------------------------------------------------------------------------*/
FoamFile
{
    version     2.0;
    format      ascii;
    class       volScalarField;
    location    "8";
    object      nuEff;
}
// * * * * * * * * * * * * * * * * * * * * * * * * * * * * * * * * * * * * * //

dimensions      [0 2 -1 0 0 0 0];

internalField   nonuniform List<scalar> 
120
(
0.000188679
0.000188679
0.000188679
0.000188679
0.000188679
0.000188679
0.000188679
0.000188679
0.000188679
0.000188679
0.000188679
0.000188679
0.000188679
0.000188679
0.000188679
0.000188679
0.000188679
0.000188679
0.000188679
0.000188679
0.000188679
0.000188679
0.000188679
0.000188679
0.000188679
0.000188679
0.000188679
0.000188679
0.000188679
0.000188679
0.000188679
0.000188679
0.000188679
0.000188679
0.000188679
0.000188679
0.000188679
0.000188679
0.000188679
0.000188679
0.000188679
0.000188679
0.000188679
0.000188679
0.000188679
0.000188679
0.000188679
0.000188679
0.000188679
0.000188679
0.000188679
0.000188679
0.000188679
0.000188679
0.000188679
0.000188679
0.000188679
0.000188679
0.000188679
0.000188679
0.000188679
0.000188679
0.000188679
0.000188679
0.000188679
0.000188679
0.000188679
0.000188679
0.000188679
0.000188679
0.000188679
0.000188679
0.000188679
0.000188679
0.000188679
0.000188679
0.000188679
0.000188679
0.000188679
0.000188679
0.000188679
0.000188679
0.000188679
0.000188679
0.000188679
0.000188679
0.000188679
0.000188679
0.000188679
0.000188679
0.000188679
0.000188679
0.000188679
0.000188679
0.000188679
0.000188679
0.000188679
0.000188679
0.000188679
0.000188679
0.000188679
0.000188679
0.000188679
0.000188679
0.000188679
0.000188679
0.000188679
0.000188679
0.000188679
0.000188679
0.000188679
0.000188679
0.000188679
0.000188679
0.000188679
0.000188679
0.000188679
0.000188679
0.000188679
0.000188679
)
;

boundaryField
{
    topWall
    {
        type            calculated;
        value           nonuniform List<scalar> 0();
    }
    botWall
    {
        type            calculated;
        value           nonuniform List<scalar> 0();
    }
    inlet
    {
        type            cyclic;
    }
    outlet
    {
        type            cyclic;
    }
    fixWall
    {
        type            empty;
    }
    procBoundary2to1
    {
        type            processor;
        value           nonuniform List<scalar> 8(0.000188679 0.000188679 0.000188679 0.000188679 0.000188679 0.000188679 0.000188679 0.000188679);
    }
    procBoundary2to3
    {
        type            processor;
        value           nonuniform List<scalar> 8(0.000188679 0.000188679 0.000188679 0.000188679 0.000188679 0.000188679 0.000188679 0.000188679);
    }
}


// ************************************************************************* //
