/*--------------------------------*- C++ -*----------------------------------*\
  =========                 |
  \\      /  F ield         | OpenFOAM: The Open Source CFD Toolbox
   \\    /   O peration     | Website:  https://openfoam.org
    \\  /    A nd           | Version:  dev
     \\/     M anipulation  |

   OpenFOAM for Windows 20.09 (v1)
   Built by CFD Support, www.cfdsupport.com (based on Symscape).
\*---------------------------------------------------------------------------*/
FoamFile
{
    version     2.0;
    format      ascii;
    class       volScalarField;
    location    "8";
    object      nut;
}
// * * * * * * * * * * * * * * * * * * * * * * * * * * * * * * * * * * * * * //

dimensions      [0 2 -1 0 0 0 0];

internalField   nonuniform List<scalar> 
120
(
1.87992e-17
1.87763e-17
1.8762e-17
1.87997e-17
2.20717e-17
2.20442e-17
2.20275e-17
2.20735e-17
2.58212e-17
2.57887e-17
2.57695e-17
2.58249e-17
3.00914e-17
3.00532e-17
3.00313e-17
3.00976e-17
3.49251e-17
3.48806e-17
3.48561e-17
3.49346e-17
4.03639e-17
4.03125e-17
4.02852e-17
4.03775e-17
4.64468e-17
4.63877e-17
4.63577e-17
4.64654e-17
5.32089e-17
5.31415e-17
5.31089e-17
5.32335e-17
6.06802e-17
6.06037e-17
6.05686e-17
6.07117e-17
6.88841e-17
6.87977e-17
6.87602e-17
6.89234e-17
7.78355e-17
7.77384e-17
7.76986e-17
7.78833e-17
8.75391e-17
8.74305e-17
8.73887e-17
8.7596e-17
9.79879e-17
9.78668e-17
9.7823e-17
9.80541e-17
1.09161e-16
1.09026e-16
1.08981e-16
1.09236e-16
1.2102e-16
1.20872e-16
1.20825e-16
1.21105e-16
1.88434e-17
1.88478e-17
1.88161e-17
1.88048e-17
2.21258e-17
2.21301e-17
2.20922e-17
2.20791e-17
2.58868e-17
2.58909e-17
2.58461e-17
2.58309e-17
3.01702e-17
3.01738e-17
3.01214e-17
3.0104e-17
3.50191e-17
3.5022e-17
3.49611e-17
3.49414e-17
4.04753e-17
4.0477e-17
4.04069e-17
4.03847e-17
4.65777e-17
4.65778e-17
4.64978e-17
4.64731e-17
5.33617e-17
5.33599e-17
5.32692e-17
5.32417e-17
6.08573e-17
6.08531e-17
6.07511e-17
6.07208e-17
6.9088e-17
6.90808e-17
6.89669e-17
6.89337e-17
7.80686e-17
7.80578e-17
7.79317e-17
7.78954e-17
8.78037e-17
8.77888e-17
8.76503e-17
8.76106e-17
9.82859e-17
9.82664e-17
9.81153e-17
9.8072e-17
1.09494e-16
1.09469e-16
1.09306e-16
1.09258e-16
1.2139e-16
1.2136e-16
1.21184e-16
1.21133e-16
)
;

boundaryField
{
    topWall
    {
        type            nutkWallFunction;
        Cmu             0.09;
        kappa           0.41;
        E               9.8;
        value           nonuniform List<scalar> 0();
    }
    botWall
    {
        type            nutkWallFunction;
        Cmu             0.09;
        kappa           0.41;
        E               9.8;
        value           nonuniform List<scalar> 0();
    }
    inlet
    {
        type            cyclic;
    }
    outlet
    {
        type            cyclic;
    }
    fixWall
    {
        type            empty;
    }
    procBoundary2to1
    {
        type            processor;
        value           nonuniform List<scalar> 8(1.5967e-17 1.5948e-17 1.59358e-17 1.59665e-17 1.60028e-17 1.6007e-17 1.59806e-17 1.59712e-17);
    }
    procBoundary2to3
    {
        type            processor;
        value           nonuniform List<scalar> 8(1.33495e-16 1.33333e-16 1.33281e-16 1.33583e-16 1.33897e-16 1.33861e-16 1.33676e-16 1.3362e-16);
    }
}


// ************************************************************************* //
