/*--------------------------------*- C++ -*----------------------------------*\
  =========                 |
  \\      /  F ield         | OpenFOAM: The Open Source CFD Toolbox
   \\    /   O peration     | Website:  https://openfoam.org
    \\  /    A nd           | Version:  dev
     \\/     M anipulation  |

   OpenFOAM for Windows 20.09 (v1)
   Built by CFD Support, www.cfdsupport.com (based on Symscape).
\*---------------------------------------------------------------------------*/
FoamFile
{
    version     2.0;
    format      ascii;
    class       volScalarField;
    location    "8";
    object      omega;
}
// * * * * * * * * * * * * * * * * * * * * * * * * * * * * * * * * * * * * * //

dimensions      [0 0 -1 0 0 0 0];

internalField   nonuniform List<scalar> 
120
(
24.2386
24.2372
24.2368
24.2379
22.997
22.9953
22.9949
22.9958
21.9047
21.9028
21.9023
21.9031
20.9464
20.9444
20.9437
20.9444
20.1093
20.1072
20.1063
20.107
19.3827
19.3804
19.3794
19.38
18.7576
18.7552
18.754
18.7547
18.2267
18.2242
18.2229
18.2237
17.7843
17.7817
17.7802
17.7811
17.4256
17.423
17.4214
17.4225
17.1476
17.1449
17.1432
17.1445
16.9479
16.9453
16.9435
16.9451
16.8257
16.8232
16.8213
16.8234
16.7811
16.7787
16.7769
16.7794
16.8156
16.8135
16.8116
16.8148
24.2379
24.2341
24.2354
24.237
22.9959
22.9924
22.9937
22.9951
21.9031
21.9001
21.9013
21.9026
20.9445
20.9418
20.943
20.9442
20.107
20.1047
20.1058
20.1069
19.3801
19.378
19.3791
19.3801
18.7547
18.7529
18.754
18.7548
18.2236
18.2221
18.2231
18.2238
17.781
17.7796
17.7806
17.7812
17.4222
17.4211
17.422
17.4225
17.1441
17.1432
17.1441
17.1444
16.9445
16.9437
16.9446
16.9448
16.8225
16.8219
16.8227
16.8228
16.7784
16.7779
16.7786
16.7785
16.8135
16.8131
16.8138
16.8134
)
;

boundaryField
{
    topWall
    {
        beta1           0.075;
        blended         0;
        type            omegaWallFunction;
        value           nonuniform List<scalar> 0();
    }
    botWall
    {
        beta1           0.075;
        blended         0;
        type            omegaWallFunction;
        value           nonuniform List<scalar> 0();
    }
    inlet
    {
        type            cyclic;
    }
    outlet
    {
        type            cyclic;
    }
    fixWall
    {
        type            empty;
    }
    procBoundary2to1
    {
        type            processor;
        value           nonuniform List<scalar> 8(25.638 25.6368 25.6365 25.6378 25.6377 25.6334 25.6349 25.6366);
    }
    procBoundary2to3
    {
        type            processor;
        value           nonuniform List<scalar> 8(16.9344 16.9325 16.9308 16.9352 16.9337 16.9333 16.9338 16.9329);
    }
}


// ************************************************************************* //
