/*--------------------------------*- C++ -*----------------------------------*\
  =========                 |
  \\      /  F ield         | OpenFOAM: The Open Source CFD Toolbox
   \\    /   O peration     | Website:  https://openfoam.org
    \\  /    A nd           | Version:  dev
     \\/     M anipulation  |

   OpenFOAM for Windows 20.09 (v1)
   Built by CFD Support, www.cfdsupport.com (based on Symscape).
\*---------------------------------------------------------------------------*/
FoamFile
{
    version     2.0;
    format      ascii;
    class       volScalarField;
    location    "8";
    object      p;
}
// * * * * * * * * * * * * * * * * * * * * * * * * * * * * * * * * * * * * * //

dimensions      [1 -1 -2 0 0 0 0];

internalField   nonuniform List<scalar> 
120
(
-2.4724
-2.53365
-2.59757
-2.65865
-2.55415
-2.6154
-2.67932
-2.74039
-2.63589
-2.69715
-2.76107
-2.82214
-2.71765
-2.77889
-2.84282
-2.90388
-2.7994
-2.86064
-2.92458
-2.98563
-2.88115
-2.94239
-3.00633
-3.06738
-2.9629
-3.02414
-3.08808
-3.14912
-3.04465
-3.10588
-3.16983
-3.23086
-3.1264
-3.18763
-3.25158
-3.31261
-3.20815
-3.26938
-3.33333
-3.39436
-3.2899
-3.35113
-3.41508
-3.4761
-3.37165
-3.43287
-3.49683
-3.55784
-3.4534
-3.51462
-3.57858
-3.63958
-3.53515
-3.59637
-3.66029
-3.72133
-3.61626
-3.67687
-3.74151
-3.80307
-2.72214
-2.7835
-2.84716
-2.90889
-2.8039
-2.86607
-2.92913
-2.99086
-2.88564
-2.94783
-3.01087
-3.07262
-2.96739
-3.0296
-3.09262
-3.15437
-3.04914
-3.11135
-3.17437
-3.23613
-3.1309
-3.19311
-3.25611
-3.31788
-3.21265
-3.27486
-3.33786
-3.39964
-3.2944
-3.35661
-3.4196
-3.4814
-3.37615
-3.43837
-3.50135
-3.56315
-3.45791
-3.52012
-3.58309
-3.64491
-3.53966
-3.60188
-3.66484
-3.72666
-3.62139
-3.68362
-3.74657
-3.80842
-3.70315
-3.76539
-3.82833
-3.89015
-3.7849
-3.84715
-3.91008
-3.97189
-3.86665
-3.9289
-3.99182
-4.05299
)
;

boundaryField
{
    topWall
    {
        type            calculated;
        value           nonuniform List<scalar> 0();
    }
    botWall
    {
        type            calculated;
        value           nonuniform List<scalar> 0();
    }
    inlet
    {
        type            cyclic;
    }
    outlet
    {
        type            cyclic;
    }
    fixWall
    {
        type            empty;
    }
    procBoundary2to1
    {
        type            processor;
        value           nonuniform List<scalar> 8(-2.38964 -2.45045 -2.51534 -2.57617 -2.64022 -2.70226 -2.76482 -2.82717);
    }
    procBoundary2to3
    {
        type            processor;
        value           nonuniform List<scalar> 8(-3.69891 -3.76068 -3.82205 -3.88432 -3.94761 -4.01033 -4.07275 -4.13585);
    }
}


// ************************************************************************* //
