/*--------------------------------*- C++ -*----------------------------------*\
  =========                 |
  \\      /  F ield         | OpenFOAM: The Open Source CFD Toolbox
   \\    /   O peration     | Website:  https://openfoam.org
    \\  /    A nd           | Version:  dev
     \\/     M anipulation  |

   OpenFOAM for Windows 20.09 (v1)
   Built by CFD Support, www.cfdsupport.com (based on Symscape).
\*---------------------------------------------------------------------------*/
FoamFile
{
    version     2.0;
    format      ascii;
    class       volScalarField;
    location    "8";
    object      p_rgh;
}
// * * * * * * * * * * * * * * * * * * * * * * * * * * * * * * * * * * * * * //

dimensions      [1 -1 -2 0 0 0 0];

internalField   nonuniform List<scalar> 
120
(
0.0209876
-0.0402599
-0.104167
-0.165243
0.0209708
-0.0402715
-0.104196
-0.165268
0.0209818
-0.04027
-0.104198
-0.165263
0.0209787
-0.0402634
-0.104199
-0.165252
0.0209772
-0.0402656
-0.104209
-0.165258
0.020977
-0.0402628
-0.104209
-0.165251
0.020977
-0.0402598
-0.104208
-0.165245
0.020977
-0.0402568
-0.104208
-0.165237
0.020977
-0.0402535
-0.104203
-0.165231
0.0209795
-0.0402501
-0.104206
-0.16523
0.0209749
-0.0402505
-0.104207
-0.165225
0.0209739
-0.0402486
-0.104207
-0.165219
0.0209729
-0.0402472
-0.104208
-0.165202
0.0209701
-0.0402473
-0.104168
-0.165201
0.021589
-0.0390417
-0.10366
-0.165167
-0.22874
-0.290103
-0.353781
-0.415516
-0.228771
-0.290946
-0.354
-0.415734
-0.228763
-0.290956
-0.353995
-0.41574
-0.228766
-0.290973
-0.353997
-0.415746
-0.228768
-0.290976
-0.353991
-0.415753
-0.22877
-0.290979
-0.353986
-0.415759
-0.228771
-0.290981
-0.35398
-0.415766
-0.22877
-0.290987
-0.35397
-0.415771
-0.228778
-0.290992
-0.353972
-0.415778
-0.22878
-0.290996
-0.353967
-0.415784
-0.228782
-0.291
-0.353963
-0.415783
-0.228767
-0.290993
-0.353949
-0.415789
-0.228774
-0.291016
-0.353958
-0.415773
-0.228773
-0.291017
-0.353952
-0.415764
-0.22877
-0.290985
-0.353947
-0.41514
)
;

boundaryField
{
    topWall
    {
        type            zeroGradient;
    }
    botWall
    {
        type            zeroGradient;
    }
    inlet
    {
        type            fixedJump;
        patchType       cyclic;
        jump            uniform -0.5;
        value           nonuniform List<scalar> 
15
(
0.0532247
0.052603
0.0526001
0.0525922
0.0525958
0.0525976
0.0525995
0.0526028
0.0526057
0.0526092
0.0526121
0.0526161
0.052621
0.0526186
0.0527356
)
;
    }
    outlet
    {
        type            fixedJump;
        patchType       cyclic;
        value           nonuniform List<scalar> 
15
(
-0.446775
-0.447397
-0.4474
-0.447408
-0.447404
-0.447402
-0.447401
-0.447397
-0.447394
-0.447391
-0.447388
-0.447384
-0.447379
-0.447381
-0.447264
)
;
    }
    fixWall
    {
        type            empty;
    }
    procBoundary2to1
    {
        type            processor;
        value           nonuniform List<scalar> 8(0.0220275 -0.0387681 -0.103674 -0.164496 -0.228567 -0.290631 -0.353202 -0.415537);
    }
    procBoundary2to3
    {
        type            processor;
        value           nonuniform List<scalar> 8(0.0207263 -0.0410195 -0.102396 -0.164648 -0.227944 -0.290652 -0.353091 -0.416202);
    }
}


// ************************************************************************* //
