/*--------------------------------*- C++ -*----------------------------------*\
  =========                 |
  \\      /  F ield         | OpenFOAM: The Open Source CFD Toolbox
   \\    /   O peration     | Website:  https://openfoam.org
    \\  /    A nd           | Version:  dev
     \\/     M anipulation  |

   OpenFOAM for Windows 20.09 (v1)
   Built by CFD Support, www.cfdsupport.com (based on Symscape).
\*---------------------------------------------------------------------------*/
FoamFile
{
    version     2.0;
    format      ascii;
    class       surfaceScalarField;
    location    "8";
    object      phi;
}
// * * * * * * * * * * * * * * * * * * * * * * * * * * * * * * * * * * * * * //

dimensions      [0 3 -1 0 0 0 0];

internalField   nonuniform List<scalar> 
217
(
3.51979e-08
-2.45321e-10
3.51819e-08
2.67703e-10
3.51564e-08
1.09743e-09
-4.91534e-11
3.5208e-08
3.52826e-08
-2.63208e-10
3.52701e-08
2.80178e-10
3.52515e-08
1.11606e-09
-1.06614e-10
3.53089e-08
3.53729e-08
-2.82254e-10
3.53638e-08
2.89304e-10
3.53513e-08
1.12851e-09
-1.68653e-10
3.54133e-08
3.54718e-08
-3.01992e-10
3.54659e-08
2.95259e-10
3.54585e-08
1.13589e-09
-2.33416e-10
3.55232e-08
3.55835e-08
-3.22865e-10
3.55808e-08
2.97978e-10
3.55775e-08
1.13912e-09
-2.99546e-10
3.56437e-08
3.57116e-08
-3.4478e-10
3.57119e-08
2.9766e-10
3.57118e-08
1.13918e-09
-3.65454e-10
3.57778e-08
3.58607e-08
-3.67814e-10
3.5864e-08
2.9433e-10
3.58664e-08
1.13672e-09
-4.30007e-10
3.5931e-08
3.60351e-08
-3.918e-10
3.60412e-08
2.88189e-10
3.60455e-08
1.1324e-09
-4.9199e-10
3.61075e-08
3.62399e-08
-4.16421e-10
3.6249e-08
2.79125e-10
3.6255e-08
1.12643e-09
-5.50542e-10
3.63135e-08
3.64806e-08
-4.41083e-10
3.64924e-08
2.67352e-10
3.65e-08
1.11881e-09
-6.04725e-10
3.65542e-08
3.67634e-08
-4.65659e-10
3.67778e-08
2.53033e-10
3.67873e-08
1.10921e-09
-6.5398e-10
3.68366e-08
3.70948e-08
-4.89012e-10
3.71111e-08
2.36716e-10
3.7123e-08
1.09728e-09
-6.98188e-10
3.71672e-08
3.74823e-08
-5.10345e-10
3.7501e-08
2.1801e-10
3.75158e-08
1.08248e-09
-7.36784e-10
3.75544e-08
3.79334e-08
-5.28189e-10
3.79528e-08
1.98588e-10
3.7972e-08
1.06322e-09
-7.70607e-10
3.80059e-08
3.84585e-08
3.84773e-08
3.85035e-08
3.85308e-08
3.52333e-08
-5.53483e-10
3.52349e-08
-9.53339e-10
3.51936e-08
5.03355e-10
-1.53218e-10
3.53324e-08
-5.76941e-10
3.53225e-08
-9.43502e-10
3.52769e-08
5.48976e-10
-1.40976e-10
3.5433e-08
-5.96616e-10
3.5415e-08
-9.25515e-10
3.5366e-08
5.9803e-10
-1.28824e-10
3.55395e-08
-6.12835e-10
3.55149e-08
-9.00991e-10
3.54637e-08
6.4925e-10
-1.17177e-10
3.56566e-08
-6.25761e-10
3.56268e-08
-8.71208e-10
3.55736e-08
7.02506e-10
-1.06244e-10
3.57879e-08
-6.35944e-10
3.57541e-08
-8.37356e-10
3.56994e-08
7.57217e-10
-9.65416e-11
3.59386e-08
-6.43529e-10
3.59015e-08
-8.00239e-10
3.58457e-08
8.12977e-10
-8.84573e-11
3.61128e-08
-6.48758e-10
3.60732e-08
-7.60686e-10
3.6017e-08
8.69171e-10
-8.25399e-11
3.63161e-08
-6.51334e-10
3.62746e-08
-7.19223e-10
3.62188e-08
9.25037e-10
-7.90833e-11
3.6554e-08
-6.51212e-10
3.6511e-08
-6.76143e-10
3.6456e-08
9.80006e-10
-7.90148e-11
3.6833e-08
-6.47554e-10
3.67883e-08
-6.31543e-10
3.67354e-08
1.03293e-09
-8.24513e-11
3.71597e-08
-6.40057e-10
3.71133e-08
-5.85089e-10
3.70631e-08
1.08314e-09
-9.07941e-11
3.75418e-08
-6.27472e-10
3.74934e-08
-5.36642e-10
3.74472e-08
1.12929e-09
-1.04537e-10
3.79878e-08
-6.09381e-10
3.79368e-08
-4.85627e-10
3.78952e-08
1.17088e-09
-1.24885e-10
3.85061e-08
3.84523e-08
3.84171e-08
)
;

boundaryField
{
    topWall
    {
        type            calculated;
        value           nonuniform List<scalar> 0();
    }
    botWall
    {
        type            calculated;
        value           nonuniform List<scalar> 0();
    }
    inlet
    {
        type            cyclic;
        value           nonuniform List<scalar> 
15
(
-3.8444e-08
-3.79155e-08
-3.7461e-08
-3.70714e-08
-3.67389e-08
-3.64559e-08
-3.62153e-08
-3.60111e-08
-3.58376e-08
-3.56897e-08
-3.55626e-08
-3.54521e-08
-3.53538e-08
-3.52647e-08
-3.51788e-08
)
;
    }
    outlet
    {
        type            cyclic;
        value           nonuniform List<scalar> 
15
(
3.8444e-08
3.79155e-08
3.7461e-08
3.70714e-08
3.67389e-08
3.64559e-08
3.62153e-08
3.60111e-08
3.58376e-08
3.56897e-08
3.55626e-08
3.54521e-08
3.53538e-08
3.52647e-08
3.51788e-08
)
;
    }
    fixWall
    {
        type            empty;
        value           nonuniform List<scalar> 0();
    }
    procBoundary2to1
    {
        type            processor;
        value           nonuniform List<scalar> 8(2.2442e-10 -2.51714e-10 -1.07182e-09 -2.72198e-12 5.28466e-10 9.51978e-10 -4.619e-10 1.69183e-10);
    }
    procBoundary2to3
    {
        type            processor;
        value           nonuniform List<scalar> 8(-5.43311e-10 1.79704e-10 1.03763e-09 -7.97831e-10 -5.83916e-10 -4.31683e-10 1.20667e-09 -1.51153e-10);
    }
}


// ************************************************************************* //
