/*--------------------------------*- C++ -*----------------------------------*\
  =========                 |
  \\      /  F ield         | OpenFOAM: The Open Source CFD Toolbox
   \\    /   O peration     | Website:  https://openfoam.org
    \\  /    A nd           | Version:  dev
     \\/     M anipulation  |

   OpenFOAM for Windows 20.09 (v1)
   Built by CFD Support, www.cfdsupport.com (based on Symscape).
\*---------------------------------------------------------------------------*/
FoamFile
{
    version     2.0;
    format      ascii;
    class       volSymmTensorField;
    location    "8";
    object      R;
}
// * * * * * * * * * * * * * * * * * * * * * * * * * * * * * * * * * * * * * //

dimensions      [0 2 -2 0 0 0 0];

internalField   nonuniform List<symmTensor> 
120
(
(3.03759e-16 -2.23421e-18 -0 3.03797e-16 -0 3.0378e-16)
(3.03408e-16 -2.31072e-18 -0 3.03375e-16 -0 3.03387e-16)
(3.03173e-16 -2.4256e-18 -0 3.0313e-16 -0 3.03157e-16)
(3.03735e-16 -2.70186e-18 -0 3.03822e-16 -0 3.03775e-16)
(3.38364e-16 -2.76589e-18 -0 3.38409e-16 -0 3.38389e-16)
(3.37962e-16 -2.81476e-18 -0 3.37925e-16 -0 3.37941e-16)
(3.37693e-16 -2.95932e-18 -0 3.37665e-16 -0 3.37682e-16)
(3.38343e-16 -3.22245e-18 -0 3.38456e-16 -0 3.38397e-16)
(3.77041e-16 -3.49183e-18 -0 3.77096e-16 -0 3.77073e-16)
(3.76581e-16 -3.54931e-18 -0 3.7655e-16 -0 3.76561e-16)
(3.76282e-16 -3.72229e-18 -0 3.76261e-16 -0 3.76277e-16)
(3.77026e-16 -3.95808e-18 -0 3.77172e-16 -0 3.77094e-16)
(4.20169e-16 -4.53713e-18 -0 4.20236e-16 -0 4.20206e-16)
(4.19647e-16 -4.59472e-18 -0 4.19618e-16 -0 4.19628e-16)
(4.19315e-16 -4.79745e-18 -0 4.19303e-16 -0 4.19316e-16)
(4.20163e-16 -4.98601e-18 -0 4.20344e-16 -0 4.20247e-16)
(4.68171e-16 -6.00225e-18 -0 4.6825e-16 -0 4.68217e-16)
(4.67581e-16 -6.06249e-18 -0 4.67558e-16 -0 4.67563e-16)
(4.67212e-16 -6.2955e-18 -0 4.6722e-16 -0 4.67221e-16)
(4.68184e-16 -6.4228e-18 -0 4.68393e-16 -0 4.68283e-16)
(5.21523e-16 -8.03149e-18 -0 5.2162e-16 -0 5.21578e-16)
(5.20857e-16 -8.0832e-18 -0 5.20844e-16 -0 5.20842e-16)
(5.20459e-16 -8.35671e-18 -0 5.20471e-16 -0 5.20475e-16)
(5.2156e-16 -8.40445e-18 -0 5.21802e-16 -0 5.21674e-16)
(5.80758e-16 -1.08044e-17 -0 5.80876e-16 -0 5.80824e-16)
(5.80011e-16 -1.08355e-17 -0 5.80008e-16 -0 5.80001e-16)
(5.79577e-16 -1.11606e-17 -0 5.79608e-16 -0 5.79601e-16)
(5.80829e-16 -1.11207e-17 -0 5.81102e-16 -0 5.80958e-16)
(6.46478e-16 -1.45345e-17 -0 6.46616e-16 -0 6.46555e-16)
(6.45639e-16 -1.45283e-17 -0 6.4565e-16 -0 6.45634e-16)
(6.45174e-16 -1.49293e-17 -0 6.45216e-16 -0 6.45206e-16)
(6.46592e-16 -1.47964e-17 -0 6.46891e-16 -0 6.46733e-16)
(7.19352e-16 -1.95065e-17 -0 7.19513e-16 -0 7.19442e-16)
(7.18413e-16 -1.94286e-17 -0 7.18442e-16 -0 7.18416e-16)
(7.17915e-16 -1.99338e-17 -0 7.17974e-16 -0 7.17957e-16)
(7.19523e-16 -1.97187e-17 -0 7.19844e-16 -0 7.19674e-16)
(8.00137e-16 -2.60478e-17 -0 8.00323e-16 -0 8.0024e-16)
(7.99088e-16 -2.58714e-17 -0 7.99138e-16 -0 7.99101e-16)
(7.98557e-16 -2.65097e-17 -0 7.98636e-16 -0 7.9861e-16)
(8.00379e-16 -2.62291e-17 -0 8.00717e-16 -0 8.00536e-16)
(8.89685e-16 -3.45851e-17 -0 8.89891e-16 -0 8.898e-16)
(8.88511e-16 -3.42339e-17 -0 8.8859e-16 -0 8.88536e-16)
(8.87949e-16 -3.50268e-17 -0 8.88047e-16 -0 8.88016e-16)
(8.90016e-16 -3.47287e-17 -0 8.90354e-16 -0 8.90174e-16)
(9.88953e-16 -4.55788e-17 -0 9.89175e-16 -0 9.89078e-16)
(9.8764e-16 -4.50229e-17 -0 9.87755e-16 -0 9.87675e-16)
(9.87038e-16 -4.60198e-17 -0 9.87181e-16 -0 9.87123e-16)
(9.89385e-16 -4.57161e-17 -0 9.89727e-16 -0 9.89541e-16)
(1.09902e-15 -5.96134e-17 -0 1.09925e-15 -0 1.09915e-15)
(1.09756e-15 -5.86796e-17 -0 1.09769e-15 -0 1.09761e-15)
(1.09692e-15 -5.99261e-17 -0 1.09708e-15 -0 1.09703e-15)
(1.09957e-15 -5.97604e-17 -0 1.0999e-15 -0 1.09972e-15)
(1.2211e-15 -7.73127e-17 -0 1.22133e-15 -0 1.22123e-15)
(1.21947e-15 -7.59268e-17 -0 1.21964e-15 -0 1.21953e-15)
(1.21877e-15 -7.7483e-17 -0 1.21902e-15 -0 1.21892e-15)
(1.22179e-15 -7.75138e-17 -0 1.22211e-15 -0 1.22194e-15)
(1.35659e-15 -9.92729e-17 -0 1.35678e-15 -0 1.3567e-15)
(1.35478e-15 -9.7216e-17 -0 1.35494e-15 -0 1.35485e-15)
(1.35398e-15 -9.9212e-17 -0 1.35435e-15 -0 1.35417e-15)
(1.35743e-15 -9.96105e-17 -0 1.35771e-15 -0 1.35756e-15)
(3.04457e-16 -2.81151e-18 -0 3.0451e-16 -0 3.04486e-16)
(3.04508e-16 -2.48717e-18 -0 3.04506e-16 -0 3.04505e-16)
(3.04045e-16 -2.27297e-18 -0 3.03976e-16 -0 3.0401e-16)
(3.03861e-16 -2.23618e-18 -0 3.03839e-16 -0 3.03845e-16)
(3.39172e-16 -3.32177e-18 -0 3.39227e-16 -0 3.39202e-16)
(3.39228e-16 -2.99952e-18 -0 3.39205e-16 -0 3.39214e-16)
(3.38701e-16 -2.75491e-18 -0 3.38607e-16 -0 3.38657e-16)
(3.38492e-16 -2.75955e-18 -0 3.38457e-16 -0 3.38474e-16)
(3.77974e-16 -4.01023e-18 -0 3.78027e-16 -0 3.78004e-16)
(3.78034e-16 -3.70954e-18 -0 3.77984e-16 -0 3.78007e-16)
(3.77435e-16 -3.47205e-18 -0 3.77317e-16 -0 3.77379e-16)
(3.77197e-16 -3.47725e-18 -0 3.7716e-16 -0 3.77175e-16)
(4.21238e-16 -4.99246e-18 -0 4.21294e-16 -0 4.21268e-16)
(4.21301e-16 -4.72359e-18 -0 4.21226e-16 -0 4.21261e-16)
(4.20624e-16 -4.48616e-18 -0 4.20486e-16 -0 4.20555e-16)
(4.20357e-16 -4.51107e-18 -0 4.20317e-16 -0 4.20334e-16)
(4.69394e-16 -6.37698e-18 -0 4.69445e-16 -0 4.69424e-16)
(4.69457e-16 -6.15812e-18 -0 4.69352e-16 -0 4.69402e-16)
(4.68701e-16 -5.90902e-18 -0 4.68526e-16 -0 4.68618e-16)
(4.68401e-16 -5.94733e-18 -0 4.68352e-16 -0 4.68374e-16)
(5.22917e-16 -8.30181e-18 -0 5.22964e-16 -0 5.22946e-16)
(5.22979e-16 -8.13959e-18 -0 5.2284e-16 -0 5.22907e-16)
(5.22135e-16 -7.87496e-18 -0 5.2193e-16 -0 5.22036e-16)
(5.21797e-16 -7.95161e-18 -0 5.21752e-16 -0 5.21769e-16)
(5.82343e-16 -1.09483e-17 -0 5.82387e-16 -0 5.8237e-16)
(5.82401e-16 -1.08462e-17 -0 5.82228e-16 -0 5.82311e-16)
(5.81464e-16 -1.05623e-17 -0 5.81224e-16 -0 5.81348e-16)
(5.81088e-16 -1.06935e-17 -0 5.81041e-16 -0 5.81059e-16)
(6.48274e-16 -1.45348e-17 -0 6.48311e-16 -0 6.48299e-16)
(6.48324e-16 -1.44864e-17 -0 6.48114e-16 -0 6.48215e-16)
(6.4729e-16 -1.41896e-17 -0 6.47011e-16 -0 6.47155e-16)
(6.46868e-16 -1.44078e-17 -0 6.46826e-16 -0 6.46841e-16)
(7.21385e-16 -1.93479e-17 -0 7.21413e-16 -0 7.21405e-16)
(7.21424e-16 -1.93388e-17 -0 7.21172e-16 -0 7.21294e-16)
(7.20283e-16 -1.902e-17 -0 7.19968e-16 -0 7.20131e-16)
(7.19813e-16 -1.93609e-17 -0 7.1978e-16 -0 7.1979e-16)
(8.02434e-16 -2.57216e-17 -0 8.02451e-16 -0 8.02449e-16)
(8.02457e-16 -2.57156e-17 -0 8.02164e-16 -0 8.02304e-16)
(8.01203e-16 -2.53813e-17 -0 8.00852e-16 -0 8.01033e-16)
(8.00679e-16 -2.58983e-17 -0 8.00659e-16 -0 8.00663e-16)
(8.92281e-16 -3.40801e-17 -0 8.92268e-16 -0 8.92285e-16)
(8.92281e-16 -3.40319e-17 -0 8.91932e-16 -0 8.92103e-16)
(8.909e-16 -3.36642e-17 -0 8.90518e-16 -0 8.90715e-16)
(8.90313e-16 -3.44245e-17 -0 8.90326e-16 -0 8.90309e-16)
(9.91882e-16 -4.49007e-17 -0 9.91835e-16 -0 9.9187e-16)
(9.91853e-16 -4.47457e-17 -0 9.91446e-16 -0 9.91644e-16)
(9.90338e-16 -4.43558e-17 -0 9.89919e-16 -0 9.90141e-16)
(9.89674e-16 -4.5453e-17 -0 9.89731e-16 -0 9.8969e-16)
(1.10232e-15 -5.87574e-17 -0 1.10223e-15 -0 1.10229e-15)
(1.10226e-15 -5.84583e-17 -0 1.10179e-15 -0 1.10201e-15)
(1.10058e-15 -5.80204e-17 -0 1.10017e-15 -0 1.10038e-15)
(1.09985e-15 -5.95086e-17 -0 1.09995e-15 -0 1.09989e-15)
(1.22483e-15 -7.62858e-17 -0 1.22466e-15 -0 1.22476e-15)
(1.22472e-15 -7.57737e-17 -0 1.22417e-15 -0 1.22443e-15)
(1.22287e-15 -7.53207e-17 -0 1.22245e-15 -0 1.22267e-15)
(1.22203e-15 -7.72959e-17 -0 1.22223e-15 -0 1.22212e-15)
(1.36079e-15 -9.82165e-17 -0 1.36053e-15 -0 1.36067e-15)
(1.36062e-15 -9.75431e-17 -0 1.35996e-15 -0 1.36029e-15)
(1.35857e-15 -9.70793e-17 -0 1.35819e-15 -0 1.35838e-15)
(1.35764e-15 -9.95075e-17 -0 1.3579e-15 -0 1.35777e-15)
)
;

boundaryField
{
    topWall
    {
        type            kqRWallFunction;
        value           nonuniform List<symmTensor> 0();
    }
    botWall
    {
        type            kqRWallFunction;
        value           nonuniform List<symmTensor> 0();
    }
    inlet
    {
        type            cyclic;
    }
    outlet
    {
        type            cyclic;
    }
    fixWall
    {
        type            empty;
    }
    procBoundary2to1
    {
        type            processor;
        value           nonuniform List<symmTensor> 8((2.72893e-16 -1.95569e-18 -0 2.72922e-16 -0 2.7291e-16) (2.72589e-16 -1.98823e-18 -0 2.72554e-16 -0 2.72568e-16) (2.7238e-16 -2.07421e-18 -0 2.72338e-16 -0 2.72361e-16) (2.72869e-16 -2.30722e-18 -0 2.72927e-16 -0 2.72897e-16) (2.73491e-16 -2.3932e-18 -0 2.7354e-16 -0 2.73519e-16) (2.73537e-16 -2.13257e-18 -0 2.73549e-16 -0 2.73542e-16) (2.73136e-16 -1.97666e-18 -0 2.73077e-16 -0 2.73111e-16) (2.72975e-16 -1.96259e-18 -0 2.72953e-16 -0 2.72963e-16));
    }
    procBoundary2to3
    {
        type            processor;
        value           nonuniform List<symmTensor> 8((1.50702e-15 -1.26294e-16 -0 1.50717e-15 -0 1.5071e-15) (1.50503e-15 -1.24097e-16 -0 1.50517e-15 -0 1.5051e-15) (1.50412e-15 -1.26082e-16 -0 1.50461e-15 -0 1.50438e-15) (1.50805e-15 -1.26535e-16 -0 1.50828e-15 -0 1.50816e-15) (1.51174e-15 -1.25231e-16 -0 1.51141e-15 -0 1.51157e-15) (1.51152e-15 -1.24603e-16 -0 1.51076e-15 -0 1.51114e-15) (1.50924e-15 -1.24242e-16 -0 1.50895e-15 -0 1.50908e-15) (1.5082e-15 -1.26722e-16 -0 1.50857e-15 -0 1.50839e-15));
    }
}


// ************************************************************************* //
