/*--------------------------------*- C++ -*----------------------------------*\
  =========                 |
  \\      /  F ield         | OpenFOAM: The Open Source CFD Toolbox
   \\    /   O peration     | Website:  https://openfoam.org
    \\  /    A nd           | Version:  dev
     \\/     M anipulation  |

   OpenFOAM for Windows 20.09 (v1)
   Built by CFD Support, www.cfdsupport.com (based on Symscape).
\*---------------------------------------------------------------------------*/
FoamFile
{
    version     2.0;
    format      ascii;
    class       volVectorField;
    location    "8";
    object      U;
}
// * * * * * * * * * * * * * * * * * * * * * * * * * * * * * * * * * * * * * //

dimensions      [0 1 -1 0 0 0 0];

internalField   nonuniform List<vector> 
120
(
(0.0422287 -4.62154e-06 0)
(0.0422538 5.17848e-06 0)
(0.0421729 2.17213e-05 0)
(0.0422118 -3.40121e-07 0)
(0.0423302 -5.16423e-06 0)
(0.0423566 5.45423e-06 0)
(0.0422816 2.22625e-05 0)
(0.0423313 -1.57792e-06 0)
(0.0424374 -5.37202e-06 0)
(0.0424661 5.76647e-06 0)
(0.0423969 2.23737e-05 0)
(0.0424557 -2.59403e-06 0)
(0.0425554 -5.91589e-06 0)
(0.0425855 5.78149e-06 0)
(0.0425225 2.27747e-05 0)
(0.0425873 -4.07629e-06 0)
(0.0426886 -6.17984e-06 0)
(0.0427204 6.03245e-06 0)
(0.0426633 2.27214e-05 0)
(0.0427324 -5.29097e-06 0)
(0.0428417 -6.71692e-06 0)
(0.0428747 5.90939e-06 0)
(0.0428237 2.27907e-05 0)
(0.0428943 -6.6936e-06 0)
(0.0430201 -7.0627e-06 0)
(0.0430541 5.9987e-06 0)
(0.0430093 2.27921e-05 0)
(0.0430799 -7.92048e-06 0)
(0.0432293 -7.65661e-06 0)
(0.0432635 5.77467e-06 0)
(0.0432252 2.26695e-05 0)
(0.0432938 -9.28168e-06 0)
(0.0434752 -8.01252e-06 0)
(0.0435093 5.74798e-06 0)
(0.043478 2.26274e-05 0)
(0.0435437 -1.03996e-05 0)
(0.0437649 -8.63711e-06 0)
(0.0437973 5.42172e-06 0)
(0.043774 2.24371e-05 0)
(0.0438357 -1.16189e-05 0)
(0.0441053 -9.01338e-06 0)
(0.0441355 5.29967e-06 0)
(0.0441209 2.23067e-05 0)
(0.0441786 -1.25953e-05 0)
(0.0445054 -9.60877e-06 0)
(0.0445308 4.84021e-06 0)
(0.0445256 2.21047e-05 0)
(0.0445795 -1.35509e-05 0)
(0.044973 -9.93937e-06 0)
(0.0449933 4.54264e-06 0)
(0.0449989 2.17519e-05 0)
(0.045049 -1.43666e-05 0)
(0.0455192 -1.03988e-05 0)
(0.0455296 4.12294e-06 0)
(0.045547 2.16306e-05 0)
(0.0455959 -1.51072e-05 0)
(0.0461533 -1.0717e-05 0)
(0.0461534 3.71976e-06 0)
(0.0461842 2.09637e-05 0)
(0.0462322 -1.56941e-05 0)
(0.0422791 -1.07571e-05 0)
(0.042288 -1.90263e-05 0)
(0.0422709 9.71556e-06 0)
(0.0421966 -3.22379e-06 0)
(0.0424032 -1.13702e-05 0)
(0.0423985 -1.90587e-05 0)
(0.0423715 1.04231e-05 0)
(0.0422984 -3.1121e-06 0)
(0.0425296 -1.17081e-05 0)
(0.0425136 -1.8699e-05 0)
(0.0424785 1.15824e-05 0)
(0.0424052 -2.58691e-06 0)
(0.0426617 -1.2125e-05 0)
(0.0426369 -1.83077e-05 0)
(0.0425951 1.24093e-05 0)
(0.042523 -2.6116e-06 0)
(0.0428056 -1.24105e-05 0)
(0.0427741 -1.77465e-05 0)
(0.0427264 1.34902e-05 0)
(0.0426552 -2.12519e-06 0)
(0.0429654 -1.26427e-05 0)
(0.0429295 -1.71273e-05 0)
(0.0428765 1.46201e-05 0)
(0.042807 -2.07009e-06 0)
(0.0431476 -1.27882e-05 0)
(0.0431088 -1.63637e-05 0)
(0.043051 1.56771e-05 0)
(0.0429837 -1.7897e-06 0)
(0.0433573 -1.29573e-05 0)
(0.0433171 -1.56461e-05 0)
(0.0432549 1.68383e-05 0)
(0.0431909 -1.75054e-06 0)
(0.0436017 -1.29889e-05 0)
(0.0435608 -1.47833e-05 0)
(0.0434947 1.79317e-05 0)
(0.0434352 -1.55226e-06 0)
(0.0438872 -1.30664e-05 0)
(0.0438463 -1.39819e-05 0)
(0.0437764 1.9067e-05 0)
(0.0437228 -1.6127e-06 0)
(0.0442223 -1.3012e-05 0)
(0.0441806 -1.30983e-05 0)
(0.0441079 2.01168e-05 0)
(0.0440618 -1.50295e-06 0)
(0.0446148 -1.28919e-05 0)
(0.0445724 -1.21533e-05 0)
(0.0444962 2.11651e-05 0)
(0.0444598 -1.8037e-06 0)
(0.0450745 -1.26804e-05 0)
(0.0450296 -1.1216e-05 0)
(0.0449511 2.22257e-05 0)
(0.044927 -1.89187e-06 0)
(0.0456111 -1.23921e-05 0)
(0.0455633 -1.02285e-05 0)
(0.0454816 2.29986e-05 0)
(0.0454717 -2.33702e-06 0)
(0.0462356 -1.19134e-05 0)
(0.0461826 -9.18214e-06 0)
(0.0460995 2.39163e-05 0)
(0.0461066 -2.77475e-06 0)
)
;

boundaryField
{
    topWall
    {
        type            noSlip;
    }
    botWall
    {
        type            noSlip;
    }
    inlet
    {
        type            cyclic;
    }
    outlet
    {
        type            cyclic;
    }
    fixWall
    {
        type            empty;
    }
    procBoundary2to1
    {
        type            processor;
        value           nonuniform List<vector> 8((0.0421322 -4.39525e-06 0) (0.0421519 4.89668e-06 0) (0.0420661 2.10364e-05 0) (0.0420913 4.77396e-07 0) (0.0421543 -1.02871e-05 0) (0.0421789 -1.90057e-05 0) (0.0421704 8.90948e-06 0) (0.0421 -3.35827e-06 0));
    }
    procBoundary2to3
    {
        type            processor;
        value           nonuniform List<vector> 8((0.0468863 -1.09428e-05 0) (0.0468695 3.52852e-06 0) (0.0469158 2.03537e-05 0) (0.0469673 -1.61683e-05 0) (0.0469595 -1.14646e-05 0) (0.0469023 -7.99115e-06 0) (0.0468167 2.43404e-05 0) (0.0468413 -3.21671e-06 0));
    }
}


// ************************************************************************* //
