/*--------------------------------*- C++ -*----------------------------------*\
  =========                 |
  \\      /  F ield         | OpenFOAM: The Open Source CFD Toolbox
   \\    /   O peration     | Website:  https://openfoam.org
    \\  /    A nd           | Version:  dev
     \\/     M anipulation  |

   OpenFOAM for Windows 20.09 (v1)
   Built by CFD Support, www.cfdsupport.com (based on Symscape).
\*---------------------------------------------------------------------------*/
FoamFile
{
    version     2.0;
    format      ascii;
    class       volVectorField;
    location    "8";
    object      UMean;
}
// * * * * * * * * * * * * * * * * * * * * * * * * * * * * * * * * * * * * * //

dimensions      [0 1 -1 0 0 0 0];

internalField   nonuniform List<vector> 
120
(
(0.0257445 5.69382e-06 0)
(0.0257637 -1.35927e-05 0)
(0.025753 4.53514e-07 0)
(0.0257889 4.96981e-06 0)
(0.0257715 5.89981e-06 0)
(0.0257858 -1.38232e-05 0)
(0.0257745 3.12609e-07 0)
(0.0258133 4.43996e-06 0)
(0.0258001 6.15035e-06 0)
(0.0258114 -1.37456e-05 0)
(0.0257989 -3.48006e-08 0)
(0.0258404 3.96332e-06 0)
(0.0258309 6.27023e-06 0)
(0.0258398 -1.36988e-05 0)
(0.025826 -1.64118e-07 0)
(0.0258691 3.37753e-06 0)
(0.0258668 6.45556e-06 0)
(0.025874 -1.37089e-05 0)
(0.0258587 -5.47015e-07 0)
(0.0259034 2.79586e-06 0)
(0.0259087 6.72663e-06 0)
(0.0259143 -1.35555e-05 0)
(0.025898 -6.68114e-07 0)
(0.0259434 2.26386e-06 0)
(0.0259596 6.87452e-06 0)
(0.0259637 -1.34905e-05 0)
(0.0259463 -1.03857e-06 0)
(0.0259925 1.74067e-06 0)
(0.0260215 7.10303e-06 0)
(0.026024 -1.3404e-05 0)
(0.026006 -1.19967e-06 0)
(0.0260522 1.06091e-06 0)
(0.0260978 7.30496e-06 0)
(0.0260986 -1.31698e-05 0)
(0.02608 -1.47359e-06 0)
(0.0261259 7.06805e-07 0)
(0.0261917 7.41733e-06 0)
(0.0261906 -1.31676e-05 0)
(0.0261716 -1.73293e-06 0)
(0.0262168 -1.81056e-07 0)
(0.0263078 7.69612e-06 0)
(0.0263045 -1.28588e-05 0)
(0.026285 -1.88857e-06 0)
(0.0263292 -4.13018e-07 0)
(0.0264507 7.78166e-06 0)
(0.0264447 -1.2734e-05 0)
(0.026425 -2.13508e-06 0)
(0.0264678 -1.09457e-06 0)
(0.0266268 7.95888e-06 0)
(0.0266175 -1.23625e-05 0)
(0.0265975 -2.27835e-06 0)
(0.0266383 -1.62783e-06 0)
(0.0268423 7.96493e-06 0)
(0.0268292 -1.21457e-05 0)
(0.0268091 -2.4598e-06 0)
(0.0268476 -1.97745e-06 0)
(0.0271052 8.29645e-06 0)
(0.0270884 -1.18401e-05 0)
(0.0270685 -2.56659e-06 0)
(0.0271035 -2.59808e-06 0)
(0.0258071 8.22109e-06 0)
(0.0257857 -7.26653e-06 0)
(0.0258127 -9.42457e-06 0)
(0.0257791 1.10549e-05 0)
(0.0258312 8.2153e-06 0)
(0.0258079 -7.21821e-06 0)
(0.0258334 -9.65772e-06 0)
(0.0258037 1.12571e-05 0)
(0.0258585 8.36283e-06 0)
(0.025833 -7.20224e-06 0)
(0.0258568 -9.3602e-06 0)
(0.0258295 1.20407e-05 0)
(0.0258872 8.38107e-06 0)
(0.0258606 -7.10289e-06 0)
(0.0258843 -9.58741e-06 0)
(0.0258589 1.22087e-05 0)
(0.0259217 8.51676e-06 0)
(0.025894 -7.12908e-06 0)
(0.0259168 -9.4795e-06 0)
(0.0258925 1.27243e-05 0)
(0.0259616 8.65065e-06 0)
(0.0259336 -6.86817e-06 0)
(0.0259561 -9.47572e-06 0)
(0.025933 1.30867e-05 0)
(0.0260107 8.67601e-06 0)
(0.0259828 -7.03141e-06 0)
(0.0260043 -9.59123e-06 0)
(0.0259819 1.34653e-05 0)
(0.0260702 8.85949e-06 0)
(0.026043 -6.70363e-06 0)
(0.0260635 -9.53064e-06 0)
(0.0260419 1.37601e-05 0)
(0.026144 8.87301e-06 0)
(0.026118 -6.87286e-06 0)
(0.0261366 -9.63382e-06 0)
(0.0261159 1.41601e-05 0)
(0.0262346 9.00842e-06 0)
(0.0262103 -6.52342e-06 0)
(0.026227 -9.55991e-06 0)
(0.0262071 1.42993e-05 0)
(0.0263468 9.02909e-06 0)
(0.0263248 -6.69125e-06 0)
(0.0263385 -9.58754e-06 0)
(0.0263199 1.47391e-05 0)
(0.0264847 9.22213e-06 0)
(0.0264654 -6.3111e-06 0)
(0.0264759 -9.57376e-06 0)
(0.0264587 1.48422e-05 0)
(0.0266549 8.93778e-06 0)
(0.026639 -6.58108e-06 0)
(0.0266449 -9.66186e-06 0)
(0.0266296 1.50289e-05 0)
(0.0268627 9.29629e-06 0)
(0.0268509 -6.11902e-06 0)
(0.0268519 -9.44315e-06 0)
(0.0268386 1.52309e-05 0)
(0.0271174 9.0519e-06 0)
(0.027111 -6.25201e-06 0)
(0.0271052 -9.57576e-06 0)
(0.0270939 1.51004e-05 0)
)
;

boundaryField
{
    topWall
    {
        type            calculated;
        value           nonuniform List<vector> 0();
    }
    botWall
    {
        type            calculated;
        value           nonuniform List<vector> 0();
    }
    inlet
    {
        type            cyclic;
    }
    outlet
    {
        type            cyclic;
    }
    fixWall
    {
        type            empty;
    }
    procBoundary2to1
    {
        type            processor;
        value           nonuniform List<vector> 8((0.0257171 5.53783e-06 0) (0.025741 -1.35822e-05 0) (0.025732 6.78114e-07 0) (0.0257634 5.34739e-06 0) (0.0257798 8.22702e-06 0) (0.0257623 -7.04414e-06 0) (0.0257937 -9.37954e-06 0) (0.0257561 1.0305e-05 0));
    }
    procBoundary2to3
    {
        type            processor;
        value           nonuniform List<vector> 8((0.0274244 8.1084e-06 0) (0.0274049 -1.15801e-05 0) (0.0273856 -2.84238e-06 0) (0.0274123 -3.09862e-06 0) (0.0274228 9.00729e-06 0) (0.0274263 -5.97274e-06 0) (0.0274124 -9.1763e-06 0) (0.0274023 1.50074e-05 0));
    }
}


// ************************************************************************* //
