/*--------------------------------*- C++ -*----------------------------------*\
  =========                 |
  \\      /  F ield         | OpenFOAM: The Open Source CFD Toolbox
   \\    /   O peration     | Website:  https://openfoam.org
    \\  /    A nd           | Version:  dev
     \\/     M anipulation  |

   OpenFOAM for Windows 20.09 (v1)
   Built by CFD Support, www.cfdsupport.com (based on Symscape).
\*---------------------------------------------------------------------------*/
FoamFile
{
    version     2.0;
    format      ascii;
    class       volSymmTensorField;
    location    "8";
    object      UPrime2Mean;
}
// * * * * * * * * * * * * * * * * * * * * * * * * * * * * * * * * * * * * * //

dimensions      [0 2 -2 0 0 0 0];

internalField   nonuniform List<symmTensor> 
120
(
(6.50767e-05 -1.65992e-08 0 1.40926e-10 0 0)
(6.50807e-05 9.94948e-08 0 2.92124e-10 0 0)
(6.45435e-05 2.85921e-08 0 9.52029e-11 0 0)
(6.49681e-05 -7.41711e-08 0 1.96503e-10 0 0)
(6.55141e-05 -1.84802e-08 0 1.4745e-10 0 0)
(6.5599e-05 1.02118e-07 0 2.98814e-10 0 0)
(6.51188e-05 2.99739e-08 0 1.00705e-10 0 0)
(6.55448e-05 -7.80291e-08 0 2.0875e-10 0 0)
(6.59984e-05 -1.97007e-08 0 1.53874e-10 0 0)
(6.61392e-05 1.02919e-07 0 2.99933e-10 0 0)
(6.57069e-05 2.98001e-08 0 1.06082e-10 0 0)
(6.6149e-05 -8.16796e-08 0 2.20217e-10 0 0)
(6.6557e-05 -2.13822e-08 0 1.60056e-10 0 0)
(6.67354e-05 1.0462e-07 0 2.99686e-10 0 0)
(6.63328e-05 3.10819e-08 0 1.11265e-10 0 0)
(6.67854e-05 -8.61425e-08 0 2.34547e-10 0 0)
(6.71997e-05 -2.31149e-08 0 1.65595e-10 0 0)
(6.74014e-05 1.05831e-07 0 3.02608e-10 0 0)
(6.70243e-05 3.08994e-08 0 1.15527e-10 0 0)
(6.74885e-05 -8.99217e-08 0 2.45456e-10 0 0)
(6.79523e-05 -2.57748e-08 0 1.75646e-10 0 0)
(6.81705e-05 1.06317e-07 0 2.95937e-10 0 0)
(6.78097e-05 3.1213e-08 0 1.19076e-10 0 0)
(6.82749e-05 -9.43797e-08 0 2.59912e-10 0 0)
(6.88339e-05 -2.77764e-08 0 1.82964e-10 0 0)
(6.90628e-05 1.07483e-07 0 2.95094e-10 0 0)
(6.87187e-05 3.18314e-08 0 1.22591e-10 0 0)
(6.91796e-05 -9.84788e-08 0 2.71971e-10 0 0)
(6.98739e-05 -3.1319e-08 0 1.91771e-10 0 0)
(7.01101e-05 1.08423e-07 0 2.9058e-10 0 0)
(6.9783e-05 3.16578e-08 0 1.25447e-10 0 0)
(7.02295e-05 -1.02591e-07 0 2.84999e-10 0 0)
(7.10967e-05 -3.31614e-08 0 2.03138e-10 0 0)
(7.13408e-05 1.09027e-07 0 2.87822e-10 0 0)
(7.10366e-05 3.26106e-08 0 1.26798e-10 0 0)
(7.14615e-05 -1.07156e-07 0 2.98537e-10 0 0)
(7.25401e-05 -3.77966e-08 0 2.10783e-10 0 0)
(7.27879e-05 1.10507e-07 0 2.83924e-10 0 0)
(7.25151e-05 3.2172e-08 0 1.30673e-10 0 0)
(7.29078e-05 -1.108e-07 0 3.10123e-10 0 0)
(7.42316e-05 -3.9506e-08 0 2.25027e-10 0 0)
(7.44881e-05 1.10415e-07 0 2.77433e-10 0 0)
(7.42593e-05 3.31574e-08 0 1.29918e-10 0 0)
(7.46107e-05 -1.15844e-07 0 3.2518e-10 0 0)
(7.62187e-05 -4.43672e-08 0 2.31457e-10 0 0)
(7.64764e-05 1.12854e-07 0 2.78393e-10 0 0)
(7.6308e-05 3.38404e-08 0 1.30118e-10 0 0)
(7.66077e-05 -1.17492e-07 0 3.18884e-10 0 0)
(7.85319e-05 -4.74806e-08 0 2.48659e-10 0 0)
(7.88008e-05 1.12182e-07 0 2.65897e-10 0 0)
(7.87147e-05 3.35783e-08 0 1.30677e-10 0 0)
(7.89507e-05 -1.24707e-07 0 3.53256e-10 0 0)
(8.12293e-05 -5.05624e-08 0 2.49013e-10 0 0)
(8.14871e-05 1.13739e-07 0 2.64328e-10 0 0)
(8.15127e-05 3.5257e-08 0 1.27816e-10 0 0)
(8.16831e-05 -1.24489e-07 0 3.2739e-10 0 0)
(8.43429e-05 -5.60581e-08 0 2.72859e-10 0 0)
(8.46007e-05 1.1382e-07 0 2.52224e-10 0 0)
(8.47709e-05 3.44308e-08 0 1.26237e-10 0 0)
(8.48642e-05 -1.29827e-07 0 3.46371e-10 0 0)
(6.5368e-05 -2.87303e-08 0 6.52511e-11 0 0)
(6.5339e-05 -4.31855e-08 0 4.21303e-11 0 0)
(6.52782e-05 6.08815e-08 0 8.98021e-11 0 0)
(6.48739e-05 -3.09008e-08 0 2.9961e-11 0 0)
(6.59592e-05 -2.98061e-08 0 6.92438e-11 0 0)
(6.58692e-05 -4.30373e-08 0 4.28675e-11 0 0)
(6.57422e-05 6.37549e-08 0 9.90958e-11 0 0)
(6.53153e-05 -2.98304e-08 0 3.07212e-11 0 0)
(6.65643e-05 -3.22836e-08 0 7.11872e-11 0 0)
(6.64319e-05 -4.19399e-08 0 4.30358e-11 0 0)
(6.62496e-05 6.62554e-08 0 1.04998e-10 0 0)
(6.57922e-05 -2.92539e-08 0 3.26195e-11 0 0)
(6.72019e-05 -3.28373e-08 0 7.42852e-11 0 0)
(6.70386e-05 -4.07325e-08 0 4.34238e-11 0 0)
(6.68006e-05 6.97041e-08 0 1.17118e-10 0 0)
(6.63254e-05 -2.79652e-08 0 3.43599e-11 0 0)
(6.78995e-05 -3.52637e-08 0 7.58828e-11 0 0)
(6.77185e-05 -3.90494e-08 0 4.42187e-11 0 0)
(6.74341e-05 7.31447e-08 0 1.26974e-10 0 0)
(6.69419e-05 -2.68738e-08 0 3.54799e-11 0 0)
(6.86771e-05 -3.58072e-08 0 7.87617e-11 0 0)
(6.84872e-05 -3.75276e-08 0 4.40275e-11 0 0)
(6.81598e-05 7.70311e-08 0 1.38349e-10 0 0)
(6.76593e-05 -2.6274e-08 0 3.81312e-11 0 0)
(6.95685e-05 -3.75554e-08 0 7.94892e-11 0 0)
(6.93774e-05 -3.49319e-08 0 4.59546e-11 0 0)
(6.90137e-05 8.14707e-08 0 1.53492e-10 0 0)
(6.85091e-05 -2.5871e-08 0 3.93339e-11 0 0)
(7.05981e-05 -3.85247e-08 0 8.16575e-11 0 0)
(7.04119e-05 -3.33544e-08 0 4.56521e-11 0 0)
(7.00157e-05 8.57294e-08 0 1.66014e-10 0 0)
(6.95145e-05 -2.5311e-08 0 4.20663e-11 0 0)
(7.18037e-05 -3.98106e-08 0 8.21301e-11 0 0)
(7.16254e-05 -3.04047e-08 0 4.87593e-11 0 0)
(7.12029e-05 9.07304e-08 0 1.82554e-10 0 0)
(7.07096e-05 -2.5248e-08 0 4.3792e-11 0 0)
(7.32154e-05 -4.12851e-08 0 8.24916e-11 0 0)
(7.30501e-05 -2.89647e-08 0 4.82521e-11 0 0)
(7.26015e-05 9.53603e-08 0 1.96625e-10 0 0)
(7.21255e-05 -2.53209e-08 0 4.59764e-11 0 0)
(7.48739e-05 -4.21464e-08 0 8.27694e-11 0 0)
(7.47199e-05 -2.59384e-08 0 5.19285e-11 0 0)
(7.42535e-05 1.00723e-07 0 2.13116e-10 0 0)
(7.38018e-05 -2.49569e-08 0 4.8925e-11 0 0)
(7.68183e-05 -4.28884e-08 0 8.39308e-11 0 0)
(7.66785e-05 -2.365e-08 0 5.32193e-11 0 0)
(7.61907e-05 1.06117e-07 0 2.30504e-10 0 0)
(7.57772e-05 -2.58354e-08 0 5.20294e-11 0 0)
(7.90908e-05 -4.528e-08 0 7.77323e-11 0 0)
(7.89545e-05 -2.16651e-08 0 5.53696e-11 0 0)
(7.84633e-05 1.11567e-07 0 2.45149e-10 0 0)
(7.81029e-05 -2.79449e-08 0 5.27591e-11 0 0)
(8.17382e-05 -4.37817e-08 0 8.19995e-11 0 0)
(8.16056e-05 -1.86259e-08 0 5.70634e-11 0 0)
(8.11085e-05 1.1701e-07 0 2.60639e-10 0 0)
(8.08215e-05 -2.67913e-08 0 5.94617e-11 0 0)
(8.48021e-05 -4.66564e-08 0 7.38101e-11 0 0)
(8.46518e-05 -1.70504e-08 0 6.09843e-11 0 0)
(8.4185e-05 1.23089e-07 0 2.7667e-10 0 0)
(8.39975e-05 -3.0772e-08 0 5.90049e-11 0 0)
)
;

boundaryField
{
    topWall
    {
        type            calculated;
        value           nonuniform List<symmTensor> 0();
    }
    botWall
    {
        type            calculated;
        value           nonuniform List<symmTensor> 0();
    }
    inlet
    {
        type            cyclic;
    }
    outlet
    {
        type            cyclic;
    }
    fixWall
    {
        type            empty;
    }
    procBoundary2to1
    {
        type            processor;
        value           nonuniform List<symmTensor> 8((6.46899e-05 -1.63681e-08 0 1.3707e-10 0 0) (6.458e-05 9.70996e-08 0 2.87362e-10 0 0) (6.39526e-05 2.68434e-08 0 8.81228e-11 0 0) (6.43887e-05 -7.04574e-08 0 1.82804e-10 0 0) (6.47895e-05 -2.72647e-08 0 6.20038e-11 0 0) (6.48084e-05 -4.34821e-08 0 4.05914e-11 0 0) (6.47977e-05 5.82971e-08 0 8.21967e-11 0 0) (6.44492e-05 -3.01033e-08 0 2.71648e-11 0 0));
    }
    procBoundary2to3
    {
        type            processor;
        value           nonuniform List<symmTensor> 8((8.79267e-05 -5.81421e-08 0 2.72871e-10 0 0) (8.81376e-05 1.12401e-07 0 2.34244e-10 0 0) (8.85015e-05 3.33012e-08 0 1.25938e-10 0 0) (8.85534e-05 -1.32401e-07 0 3.45637e-10 0 0) (8.83815e-05 -4.60991e-08 0 7.08981e-11 0 0) (8.82026e-05 -1.4593e-08 0 6.06459e-11 0 0) (8.776e-05 1.27062e-07 0 2.80843e-10 0 0) (8.76874e-05 -2.99335e-08 0 6.29241e-11 0 0));
    }
}


// ************************************************************************* //
