/*--------------------------------*- C++ -*----------------------------------*\
  =========                 |
  \\      /  F ield         | OpenFOAM: The Open Source CFD Toolbox
   \\    /   O peration     | Website:  https://openfoam.org
    \\  /    A nd           | Version:  dev
     \\/     M anipulation  |

   OpenFOAM for Windows 20.09 (v1)
   Built by CFD Support, www.cfdsupport.com (based on Symscape).
\*---------------------------------------------------------------------------*/
FoamFile
{
    version     2.0;
    format      ascii;
    class       surfaceScalarField;
    location    "6";
    object      alphaPhi0.water;
}
// * * * * * * * * * * * * * * * * * * * * * * * * * * * * * * * * * * * * * //

dimensions      [0 3 -1 0 0 0 0];

internalField   nonuniform List<scalar> 
217
(
2.75796e-08
1.07952e-10
2.75894e-08
3.72171e-10
2.75867e-08
-1.03777e-09
-1.45233e-09
2.75819e-08
2.80032e-08
8.55224e-11
2.80173e-08
3.58069e-10
2.80106e-08
-1.03104e-09
-1.44048e-09
2.79988e-08
2.85078e-08
6.17538e-11
2.85245e-08
3.41359e-10
2.8515e-08
-1.02152e-09
-1.42231e-09
2.84968e-08
2.91062e-08
3.5347e-11
2.91234e-08
3.24106e-10
2.9111e-08
-1.00911e-09
-1.39906e-09
2.90878e-08
2.98102e-08
6.50781e-12
2.98279e-08
3.06413e-10
2.9812e-08
-9.93188e-10
-1.37271e-09
2.97856e-08
3.0636e-08
-2.59434e-11
3.06521e-08
2.90287e-10
3.06328e-08
-9.73888e-10
-1.34359e-09
3.06037e-08
3.15963e-08
-6.12349e-11
3.16126e-08
2.73947e-10
3.15888e-08
-9.50011e-10
-1.31254e-09
3.15577e-08
3.2711e-08
-1.00799e-10
3.27253e-08
2.59633e-10
3.26972e-08
-9.21907e-10
-1.27951e-09
3.26642e-08
3.39941e-08
-1.44523e-10
3.40092e-08
2.44451e-10
3.39753e-08
-8.87969e-10
-1.2442e-09
3.394e-08
3.54682e-08
-1.9378e-10
3.54819e-08
2.30747e-10
3.54427e-08
-8.48787e-10
-1.20633e-09
3.54048e-08
3.71468e-08
-2.48206e-10
3.71644e-08
2.13132e-10
3.71179e-08
-8.02289e-10
-1.16507e-09
3.70766e-08
3.90566e-08
-3.08529e-10
3.90751e-08
1.94643e-10
3.90227e-08
-7.49904e-10
-1.12062e-09
3.89783e-08
4.12092e-08
-3.72891e-10
4.12366e-08
1.67213e-10
4.11779e-08
-6.91223e-10
-1.0723e-09
4.11296e-08
4.36338e-08
-4.3901e-10
4.36657e-08
1.35419e-10
4.36039e-08
-6.29383e-10
-1.02018e-09
4.3552e-08
4.49208e-08
4.54452e-08
4.53475e-08
4.50261e-08
2.75992e-08
1.1042e-09
2.75951e-08
-8.08954e-11
2.7567e-08
3.27005e-11
9.59246e-10
2.80159e-08
1.0871e-09
2.80198e-08
-8.47965e-11
2.79866e-08
6.58902e-11
9.64968e-10
2.85173e-08
1.06664e-09
2.85241e-08
-9.15939e-11
2.84889e-08
1.0103e-10
9.69883e-10
2.91115e-08
1.04286e-09
2.91204e-08
-1.00456e-10
2.90826e-08
1.38864e-10
9.72683e-10
2.98125e-08
1.01595e-09
2.98231e-08
-1.10995e-10
2.97831e-08
1.78844e-10
9.74425e-10
3.06334e-08
9.8623e-10
3.06452e-08
-1.22691e-10
3.06026e-08
2.21406e-10
9.73449e-10
3.15901e-08
9.53874e-10
3.16033e-08
-1.3585e-10
3.15593e-08
2.65429e-10
9.7166e-10
3.26986e-08
9.19455e-10
3.27125e-08
-1.49711e-10
3.26664e-08
3.11574e-10
9.66554e-10
3.39768e-08
8.82665e-10
3.39922e-08
-1.65102e-10
3.39454e-08
3.58401e-10
9.61569e-10
3.54431e-08
8.4445e-10
3.54592e-08
-1.81209e-10
3.54106e-08
4.06948e-10
9.53248e-10
3.71165e-08
8.0462e-10
3.71348e-08
-1.99535e-10
3.70868e-08
4.54973e-10
9.47651e-10
3.90184e-08
7.64422e-10
3.90374e-08
-2.18504e-10
3.89887e-08
5.03735e-10
9.40019e-10
4.11692e-08
7.24821e-10
4.1191e-08
-2.40264e-10
4.11451e-08
5.49581e-10
9.40321e-10
4.35895e-08
6.88105e-10
4.36121e-08
-2.6237e-10
4.35701e-08
5.91876e-10
9.42336e-10
4.53305e-08
4.5293e-08
4.51971e-08
)
;

boundaryField
{
    topWall
    {
        type            calculated;
        value           nonuniform List<scalar> 0();
    }
    botWall
    {
        type            calculated;
        value           nonuniform List<scalar> 0();
    }
    inlet
    {
        type            cyclic;
        value           nonuniform List<scalar> 
15
(
-4.51194e-08
-4.3568e-08
-4.11448e-08
-3.89963e-08
-3.70924e-08
-3.54189e-08
-3.39504e-08
-3.26715e-08
-3.1561e-08
-3.06036e-08
-2.97814e-08
-2.90798e-08
-2.8484e-08
-2.79808e-08
-2.75576e-08
)
;
    }
    outlet
    {
        type            cyclic;
        value           nonuniform List<scalar> 
15
(
4.51194e-08
4.3568e-08
4.11448e-08
3.89963e-08
3.70924e-08
3.54189e-08
3.39504e-08
3.26715e-08
3.1561e-08
3.06036e-08
2.97814e-08
2.90798e-08
2.8484e-08
2.79808e-08
2.75576e-08
)
;
    }
    fixWall
    {
        type            empty;
        value           nonuniform List<scalar> 0();
    }
    procBoundary3to2
    {
        type            processor;
        value           nonuniform List<scalar> 8(-1.29991e-10 -3.82819e-10 1.04079e-09 1.4572e-09 -1.12152e-09 8.52058e-11 -5.02177e-12 -9.49541e-10);
    }
    procBoundary3to4
    {
        type            processor;
        value           nonuniform List<scalar> 8(-2.72729e-11 9.50406e-11 -3.73812e-11 -4.7674e-11 6.2203e-10 -1.35807e-11 5.87359e-10 8.90038e-10);
    }
}


// ************************************************************************* //
