/*--------------------------------*- C++ -*----------------------------------*\
  =========                 |
  \\      /  F ield         | OpenFOAM: The Open Source CFD Toolbox
   \\    /   O peration     | Website:  https://openfoam.org
    \\  /    A nd           | Version:  dev
     \\/     M anipulation  |

   OpenFOAM for Windows 20.09 (v1)
   Built by CFD Support, www.cfdsupport.com (based on Symscape).
\*---------------------------------------------------------------------------*/
FoamFile
{
    version     2.0;
    format      ascii;
    class       volSymmTensorField;
    location    "6";
    object      devReff;
}
// * * * * * * * * * * * * * * * * * * * * * * * * * * * * * * * * * * * * * //

dimensions      [0 2 -2 0 0 0 0];

internalField   nonuniform List<symmTensor> 
120
(
(-1.67108e-07 -0.000109969 -0 1.18886e-07 -0 4.82223e-08)
(-1.24635e-07 -0.000109981 -0 1.632e-07 -0 -3.8565e-08)
(9.25366e-09 -0.000112974 -0 -9.9698e-09 -0 7.16139e-10)
(1.13578e-07 -0.000108798 -0 -2.29843e-07 -0 1.16265e-07)
(-2.06555e-07 -0.000130709 -0 1.97935e-07 -0 8.62056e-09)
(-1.30232e-07 -0.000130659 -0 1.34586e-07 -0 -4.35421e-09)
(3.75459e-08 -0.000132454 -0 -4.48866e-08 -0 7.34073e-09)
(9.6558e-08 -0.000129367 -0 -1.10722e-07 -0 1.41643e-08)
(-2.13807e-07 -0.000154748 -0 1.99672e-07 -0 1.41352e-08)
(-1.65741e-07 -0.000154844 -0 1.85072e-07 -0 -1.93314e-08)
(3.66754e-08 -0.000155754 -0 -1.85417e-08 -0 -1.81337e-08)
(1.19555e-07 -0.00015331 -0 -8.88291e-08 -0 -3.07263e-08)
(-2.10037e-07 -0.000182296 -0 1.76161e-07 -0 3.3876e-08)
(-1.48065e-07 -0.000182456 -0 1.34432e-07 -0 1.36326e-08)
(1.1586e-07 -0.000182688 -0 -1.47318e-07 -0 3.1458e-08)
(2.91931e-07 -0.000180748 -0 -3.87578e-07 -0 9.56466e-08)
(-2.65323e-07 -0.000213456 -0 2.60257e-07 -0 5.06674e-09)
(-1.64597e-07 -0.000213831 -0 1.67667e-07 -0 -3.0697e-09)
(1.10096e-07 -0.0002135 -0 -1.05362e-07 -0 -4.73403e-09)
(1.9527e-07 -0.000211905 -0 -1.56073e-07 -0 -3.91976e-08)
(-2.84496e-07 -0.00024877 -0 2.72854e-07 -0 1.16425e-08)
(-1.96852e-07 -0.000249192 -0 2.28502e-07 -0 -3.16496e-08)
(1.31244e-07 -0.000248491 -0 -1.10964e-07 -0 -2.02802e-08)
(2.81161e-07 -0.000247118 -0 -3.0146e-07 -0 2.02984e-08)
(-2.98692e-07 -0.000288124 -0 2.66453e-07 -0 3.22388e-08)
(-1.64254e-07 -0.000288977 -0 1.74305e-07 -0 -1.00516e-08)
(1.953e-07 -0.000287952 -0 -2.0377e-07 -0 8.47035e-09)
(3.13788e-07 -0.000286618 -0 -3.42361e-07 -0 2.85726e-08)
(-3.50252e-07 -0.000332343 -0 3.36114e-07 -0 1.41386e-08)
(-1.74461e-07 -0.000333348 -0 1.8767e-07 -0 -1.32084e-08)
(2.26406e-07 -0.000332152 -0 -2.19935e-07 -0 -6.471e-09)
(3.17889e-07 -0.000330775 -0 -3.29326e-07 -0 1.1437e-08)
(-3.93763e-07 -0.000380982 -0 3.79004e-07 -0 1.47585e-08)
(-1.61512e-07 -0.000382679 -0 1.7341e-07 -0 -1.18987e-08)
(2.75064e-07 -0.000381347 -0 -2.74939e-07 -0 -1.24991e-10)
(3.55983e-07 -0.000379795 -0 -3.83738e-07 -0 2.77553e-08)
(-4.23897e-07 -0.000435005 -0 3.98906e-07 -0 2.49911e-08)
(-1.00286e-07 -0.000437002 -0 2.55697e-08 -0 7.47162e-08)
(3.78608e-07 -0.00043575 -0 -4.25763e-07 -0 4.7155e-08)
(3.7681e-07 -0.000434017 -0 -3.99807e-07 -0 2.29979e-08)
(-5.13971e-07 -0.000493918 -0 5.31861e-07 -0 -1.78903e-08)
(-3.48598e-07 -0.00049665 -0 5.2119e-07 -0 -1.72592e-07)
(2.83363e-07 -0.000495498 -0 -1.8977e-07 -0 -9.35935e-08)
(3.77652e-07 -0.000493571 -0 -3.7612e-07 -0 -1.5317e-09)
(-4.54285e-07 -0.000558602 -0 3.76816e-07 -0 7.7469e-08)
(-3.61583e-07 -0.000561504 -0 4.93879e-07 -0 -1.32296e-07)
(3.26698e-07 -0.000560834 -0 -2.17363e-07 -0 -1.09335e-07)
(3.13246e-07 -0.000558971 -0 -2.17499e-07 -0 -9.57462e-08)
(-6.88297e-07 -0.000628576 -0 8.25199e-07 -0 -1.36902e-07)
(-3.50944e-08 -0.000631557 -0 -1.81089e-07 -0 2.16184e-07)
(6.68245e-07 -0.00063152 -0 -8.73082e-07 -0 2.04837e-07)
(6.49059e-07 -0.000630155 -0 -8.69567e-07 -0 2.20508e-07)
(-7.32916e-07 -0.0007102 -0 9.3519e-07 -0 -2.02275e-07)
(-7.35228e-07 -0.000710758 -0 1.14191e-06 -0 -4.06685e-07)
(3.81683e-07 -0.000710936 -0 -2.78864e-07 -0 -1.02819e-07)
(4.64954e-07 -0.000710753 -0 -4.93732e-07 -0 2.87777e-08)
(-3.81568e-07 -0.00109877 -0 2.80437e-07 -0 1.01131e-07)
(-2.50426e-07 -0.00109012 -0 2.23831e-07 -0 2.65949e-08)
(3.69597e-07 -0.00109108 -0 -2.74666e-07 -0 -9.49317e-08)
(3.00298e-07 -0.00109863 -0 -1.66369e-07 -0 -1.3393e-07)
(1.53559e-08 -0.000106584 -0 -1.0324e-07 -0 8.78838e-08)
(5.61552e-08 -0.00010997 -0 -1.19316e-07 -0 6.31612e-08)
(3.27733e-07 -0.000109239 -0 -3.76145e-07 -0 4.84117e-08)
(2.13753e-07 -0.000110051 -0 -3.31744e-07 -0 1.1799e-07)
(-1.513e-07 -0.000128011 -0 2.02663e-07 -0 -5.13636e-08)
(-3.86079e-08 -0.000130969 -0 2.88297e-08 -0 9.77819e-09)
(2.71661e-07 -0.000130128 -0 -2.58416e-07 -0 -1.32455e-08)
(3.6304e-08 -0.000130288 -0 1.92619e-08 -0 -5.55659e-08)
(-1.63212e-07 -0.000152486 -0 1.9732e-07 -0 -3.41085e-08)
(-9.09651e-08 -0.000154971 -0 1.03815e-07 -0 -1.28496e-08)
(2.91124e-07 -0.000154064 -0 -2.80013e-07 -0 -1.11118e-08)
(3.71514e-08 -0.000153987 -0 -5.9907e-11 -0 -3.70915e-08)
(-1.19292e-07 -0.000180305 -0 8.03706e-08 -0 3.89214e-08)
(-7.31635e-08 -0.000182332 -0 4.47208e-08 -0 2.84427e-08)
(3.24709e-07 -0.000181479 -0 -3.31692e-07 -0 6.98387e-09)
(1.04214e-07 -0.000181184 -0 -1.41409e-07 -0 3.71952e-08)
(-2.51582e-07 -0.000211703 -0 3.18297e-07 -0 -6.67147e-08)
(-1.34537e-07 -0.00021339 -0 1.51332e-07 -0 -1.67943e-08)
(3.14006e-07 -0.00021263 -0 -2.87584e-07 -0 -2.64216e-08)
(-3.97757e-08 -0.000212262 -0 1.24354e-07 -0 -8.45787e-08)
(-2.10713e-07 -0.000247106 -0 2.10946e-07 -0 -2.32787e-10)
(-1.21701e-07 -0.000248442 -0 1.10454e-07 -0 1.12471e-08)
(3.69794e-07 -0.000247843 -0 -3.84493e-07 -0 1.46989e-08)
(4.78482e-08 -0.00024737 -0 -5.84083e-08 -0 1.05602e-08)
(-2.36018e-07 -0.000286717 -0 2.40347e-07 -0 -4.32974e-09)
(-1.33023e-07 -0.000287821 -0 1.23344e-07 -0 9.67894e-09)
(3.74208e-07 -0.000287409 -0 -3.72627e-07 -0 -1.58079e-09)
(1.11123e-08 -0.000286918 -0 -1.05364e-08 -0 -5.75855e-10)
(-2.68189e-07 -0.000330991 -0 2.8328e-07 -0 -1.50908e-08)
(-1.4956e-07 -0.000331806 -0 1.42813e-07 -0 6.74674e-09)
(3.85532e-07 -0.000331594 -0 -3.86453e-07 -0 9.20339e-10)
(-7.08504e-09 -0.000331006 -0 2.52777e-08 -0 -1.81927e-08)
(-2.79126e-07 -0.000380049 -0 2.89837e-07 -0 -1.0711e-08)
(-1.54654e-07 -0.000380647 -0 1.4627e-07 -0 8.38394e-09)
(4.0026e-07 -0.000380758 -0 -3.98774e-07 -0 -1.48688e-09)
(-2.49879e-08 -0.000380124 -0 3.4399e-08 -0 -9.41111e-09)
(-3.36293e-07 -0.000434341 -0 3.88916e-07 -0 -5.26229e-08)
(-1.734e-07 -0.000434555 -0 1.66778e-07 -0 6.62239e-09)
(3.47422e-07 -0.000435034 -0 -2.93739e-07 -0 -5.36832e-08)
(-1.53389e-07 -0.00043435 -0 3.0799e-07 -0 -1.54602e-07)
(-2.3733e-07 -0.000493958 -0 1.86316e-07 -0 5.10139e-08)
(-1.80132e-07 -0.00049376 -0 1.74049e-07 -0 6.08287e-09)
(5.01793e-07 -0.000494752 -0 -5.96119e-07 -0 9.43258e-08)
(2.05624e-07 -0.00049413 -0 -4.28211e-07 -0 2.22587e-07)
(-2.80776e-07 -0.000559459 -0 2.6983e-07 -0 1.09451e-08)
(-1.95591e-07 -0.000558581 -0 1.84676e-07 -0 1.09156e-08)
(4.68253e-07 -0.000560196 -0 -5.49063e-07 -0 8.08101e-08)
(1.42198e-07 -0.000559803 -0 -2.57593e-07 -0 1.15395e-07)
(-4.04776e-07 -0.000630811 -0 5.32509e-07 -0 -1.27733e-07)
(-1.83628e-07 -0.000629005 -0 1.56788e-07 -0 2.68402e-08)
(1.70568e-07 -0.000631363 -0 2.38935e-08 -0 -1.94462e-07)
(-4.63956e-07 -0.000631546 -0 9.61108e-07 -0 -4.97152e-07)
(-9.47423e-08 -0.000710856 -0 -6.5304e-08 -0 1.60046e-07)
(-2.54463e-07 -0.000708381 -0 2.84208e-07 -0 -2.97447e-08)
(2.78251e-07 -0.000711183 -0 -2.55574e-07 -0 -2.26769e-08)
(1.93825e-07 -0.000712754 -0 -2.70566e-07 -0 7.67405e-08)
(-2.18622e-07 -0.00109464 -0 2.38174e-07 -0 -1.95527e-08)
(-2.21831e-07 -0.00109212 -0 2.22587e-07 -0 -7.56436e-10)
(2.06575e-07 -0.00109513 -0 -1.95912e-07 -0 -1.06637e-08)
(1.70636e-08 -0.00109839 -0 2.97403e-08 -0 -4.68039e-08)
)
;

boundaryField
{
    topWall
    {
        type            calculated;
        value           nonuniform List<symmTensor> 0();
    }
    botWall
    {
        type            calculated;
        value           nonuniform List<symmTensor> 0();
    }
    inlet
    {
        type            cyclic;
    }
    outlet
    {
        type            cyclic;
    }
    fixWall
    {
        type            empty;
    }
    procBoundary3to2
    {
        type            processor;
        value           nonuniform List<symmTensor> 8((-2.46994e-07 -9.22631e-05 -0 2.76808e-07 -0 -2.98145e-08) (-7.85392e-08 -9.23934e-05 -0 1.33742e-07 -0 -5.5203e-08) (-6.90994e-08 -9.5514e-05 -0 1.25781e-07 -0 -5.66814e-08) (-2.46675e-07 -9.09661e-05 -0 3.57638e-07 -0 -1.10963e-07) (-1.6252e-07 -8.84521e-05 -0 2.67324e-07 -0 -1.04804e-07) (1.46633e-08 -9.17143e-05 -0 1.14267e-08 -0 -2.60899e-08) (2.68352e-07 -9.09997e-05 -0 -2.4939e-07 -0 -1.89616e-08) (6.51299e-08 -9.21572e-05 -0 -1.19651e-08 -0 -5.31649e-08));
    }
    procBoundary3to4
    {
        type            processor;
        value           nonuniform List<symmTensor> 8((3.06933e-07 -0.00411844 -0 -8.66443e-07 -0 5.59509e-07) (1.50362e-06 -0.00403583 -0 -3.07957e-06 -0 1.57595e-06) (7.10903e-07 -0.00404293 -0 -1.21966e-06 -0 5.08761e-07) (7.44791e-07 -0.00414934 -0 -1.16931e-06 -0 4.24519e-07) (-4.55843e-07 -0.00411153 -0 8.72286e-07 -0 -4.16443e-07) (-7.45348e-08 -0.00414373 -0 -9.1286e-08 -0 1.65821e-07) (5.18269e-08 -0.00410743 -0 -1.38183e-08 -0 -3.80086e-08) (-5.86894e-07 -0.00408139 -0 1.1662e-06 -0 -5.79307e-07));
    }
}


// ************************************************************************* //
