/*--------------------------------*- C++ -*----------------------------------*\
  =========                 |
  \\      /  F ield         | OpenFOAM: The Open Source CFD Toolbox
   \\    /   O peration     | Website:  https://openfoam.org
    \\  /    A nd           | Version:  dev
     \\/     M anipulation  |

   OpenFOAM for Windows 20.09 (v1)
   Built by CFD Support, www.cfdsupport.com (based on Symscape).
\*---------------------------------------------------------------------------*/
FoamFile
{
    version     2.0;
    format      ascii;
    class       volScalarField;
    location    "6";
    object      epsilon;
}
// * * * * * * * * * * * * * * * * * * * * * * * * * * * * * * * * * * * * * //

dimensions      [0 2 -3 0 0 0 0];

internalField   nonuniform List<scalar> 
120
(
4.86825e-16
4.8633e-16
4.866e-16
4.87504e-16
5.22324e-16
5.21804e-16
5.22079e-16
5.23094e-16
5.64303e-16
5.63762e-16
5.64037e-16
5.65183e-16
6.13849e-16
6.13293e-16
6.13566e-16
6.14865e-16
6.72324e-16
6.71764e-16
6.72033e-16
6.73516e-16
7.4144e-16
7.40884e-16
7.41154e-16
7.4286e-16
8.23343e-16
8.22804e-16
8.23082e-16
8.25067e-16
9.20741e-16
9.20228e-16
9.20531e-16
9.22869e-16
1.03705e-15
1.03657e-15
1.03693e-15
1.03972e-15
1.17662e-15
1.17617e-15
1.17662e-15
1.18002e-15
1.34499e-15
1.34455e-15
1.34514e-15
1.34936e-15
1.54929e-15
1.5488e-15
1.54962e-15
1.55495e-15
1.79876e-15
1.79809e-15
1.79924e-15
1.80608e-15
2.10541e-15
2.10438e-15
2.10595e-15
2.11487e-15
2.485e-15
2.48334e-15
2.4854e-15
2.49717e-15
4.86984e-16
4.86777e-16
4.86748e-16
4.86634e-16
5.22522e-16
5.2228e-16
5.22261e-16
5.22123e-16
5.64553e-16
5.64268e-16
5.64262e-16
5.64096e-16
6.14168e-16
6.13829e-16
6.13843e-16
6.13642e-16
6.7274e-16
6.72331e-16
6.72375e-16
6.72132e-16
7.4199e-16
7.41493e-16
7.41577e-16
7.41282e-16
8.24082e-16
8.2347e-16
8.23609e-16
8.23252e-16
9.21743e-16
9.20981e-16
9.21192e-16
9.20762e-16
1.03842e-15
1.03746e-15
1.03777e-15
1.03726e-15
1.17849e-15
1.17728e-15
1.17771e-15
1.17709e-15
1.34755e-15
1.34602e-15
1.34659e-15
1.34586e-15
1.55276e-15
1.55083e-15
1.55157e-15
1.5507e-15
1.8034e-15
1.80098e-15
1.80189e-15
1.80087e-15
2.11151e-15
2.10852e-15
2.10959e-15
2.10841e-15
2.4929e-15
2.48929e-15
2.49046e-15
2.48904e-15
)
;

boundaryField
{
    topWall
    {
        type            epsilonWallFunction;
        value           nonuniform List<scalar> 0();
    }
    botWall
    {
        type            epsilonWallFunction;
        value           nonuniform List<scalar> 0();
    }
    inlet
    {
        type            cyclic;
    }
    outlet
    {
        type            cyclic;
    }
    fixWall
    {
        type            empty;
    }
    procBoundary3to2
    {
        type            processor;
        value           nonuniform List<scalar> 8(4.56242e-16 4.55778e-16 4.56038e-16 4.56841e-16 4.5637e-16 4.56192e-16 4.56158e-16 4.56063e-16);
    }
    procBoundary3to4
    {
        type            processor;
        value           nonuniform List<scalar> 8(2.98822e-15 2.98533e-15 2.98783e-15 3.00365e-15 2.99797e-15 2.99417e-15 2.99482e-15 2.99275e-15);
    }
}


// ************************************************************************* //
