/*--------------------------------*- C++ -*----------------------------------*\
  =========                 |
  \\      /  F ield         | OpenFOAM: The Open Source CFD Toolbox
   \\    /   O peration     | Website:  https://openfoam.org
    \\  /    A nd           | Version:  dev
     \\/     M anipulation  |

   OpenFOAM for Windows 20.09 (v1)
   Built by CFD Support, www.cfdsupport.com (based on Symscape).
\*---------------------------------------------------------------------------*/
FoamFile
{
    version     2.0;
    format      ascii;
    class       volTensorField;
    location    "6";
    object      gradU;
}
// * * * * * * * * * * * * * * * * * * * * * * * * * * * * * * * * * * * * * //

dimensions      [0 0 -1 0 0 0 0];

internalField   nonuniform List<tensor> 
120
(
(0.000570626 -9.58683e-05 0 0.582934 -0.000187259 0 0 0 0)
(0.000228087 -0.000143507 0 0.583041 -0.000534678 0 0 0 0)
(-2.26244e-05 -0.0004734 0 0.599238 2.83177e-05 0 0 0 0)
(7.1196e-06 0.000367762 0 0.576264 0.000917185 0 0 0 0)
(0.000570216 -0.000107293 0 0.692865 -0.000501683 0 0 0 0)
(0.000333575 -0.000138477 0 0.69263 -0.000368191 0 0 0 0)
(-8.00437e-05 -0.000451576 0 0.702459 0.000138402 0 0 0 0)
(-0.000218343 0.000371434 0 0.685272 0.000330949 0 0 0 0)
(0.000604047 -9.86999e-05 0 0.820261 -0.000491673 0 0 0 0)
(0.000387984 -0.000132839 0 0.820808 -0.000541669 0 0 0 0)
(-0.000145244 -0.000461747 0 0.825956 1.08135e-06 0 0 0 0)
(-0.000398246 0.000354236 0 0.81219 0.000153973 0 0 0 0)
(0.000646371 -0.000114685 0 0.966281 -0.000377056 0 0 0 0)
(0.000428498 -0.000130264 0 0.967147 -0.000320119 0 0 0 0)
(-0.000223665 -0.000439982 0 0.968685 0.000473757 0 0 0 0)
(-0.000520155 0.000361194 0 0.957603 0.00128055 0 0 0 0)
(0.000716534 -0.000111924 0 1.13143 -0.000676253 0 0 0 0)
(0.000428048 -0.000118659 0 1.13342 -0.000452452 0 0 0 0)
(-0.000304299 -0.00043507 0 1.13199 0.000266664 0 0 0 0)
(-0.00062134 0.000344509 0 1.12275 0.000309719 0 0 0 0)
(0.000784768 -0.000112998 0 1.31859 -0.00069221 0 0 0 0)
(0.000437786 -0.000114549 0 1.32083 -0.000689401 0 0 0 0)
(-0.000401539 -0.000427279 0 1.31743 0.000240312 0 0 0 0)
(-0.000691286 0.000339745 0 1.30938 0.000852659 0 0 0 0)
(0.000876966 -0.00012646 0 1.52719 -0.000620667 0 0 0 0)
(0.000408636 -0.000103117 0 1.53168 -0.000488546 0 0 0 0)
(-0.000495098 -0.000409369 0 1.52656 0.000562437 0 0 0 0)
(-0.000755822 0.000331177 0 1.51874 0.000982974 0 0 0 0)
(0.000965636 -0.00012158 0 1.76154 -0.000853235 0 0 0 0)
(0.00042732 -9.48305e-05 0 1.76684 -0.000532327 0 0 0 0)
(-0.000617124 -0.000402753 0 1.76081 0.00056568 0 0 0 0)
(-0.000812097 0.000319564 0 1.75279 0.000903021 0 0 0 0)
(0.00108258 -0.000133412 0 2.01934 -0.000965251 0 0 0 0)
(0.000396475 -7.94681e-05 0 2.02828 -0.000491069 0 0 0 0)
(-0.00072925 -0.000385446 0 2.02152 0.000728256 0 0 0 0)
(-0.000869803 0.000308571 0 2.01261 0.00109046 0 0 0 0)
(0.00118955 -0.00012783 0 2.30565 -0.000990874 0 0 0 0)
(0.000463756 -6.66053e-05 0 2.31618 0.000130238 0 0 0 0)
(-0.000878351 -0.000376395 0 2.30985 0.00125323 0 0 0 0)
(-0.000937601 0.000294153 0 2.3 0.00112043 0 0 0 0)
(0.00131461 -0.00011081 0 2.61788 -0.00145684 0 0 0 0)
(0.000466417 -4.20663e-05 0 2.63228 -0.00183852 0 0 0 0)
(-0.000998936 -0.000368943 0 2.62651 0.000254868 0 0 0 0)
(-0.00100484 0.000268183 0 2.61566 0.000992659 0 0 0 0)
(0.00140915 -0.000187216 0 2.96078 -0.000793271 0 0 0 0)
(0.000607611 -3.80769e-05 0 2.97601 -0.00165936 0 0 0 0)
(-0.00115549 -0.000329208 0 2.97275 0.000286276 0 0 0 0)
(-0.00108383 0.000283929 0 2.96226 0.000322646 0 0 0 0)
(0.0014612 -0.00015494 0 3.33161 -0.00254957 0 0 0 0)
(0.000665888 -2.40739e-05 0 3.34727 0.00105277 0 0 0 0)
(-0.00122803 -0.000335909 0 3.34739 0.00285648 0 0 0 0)
(-0.00113566 0.000251977 0 3.33957 0.0028887 0 0 0 0)
(0.0014062 -0.000105263 0 3.76417 -0.00301428 0 0 0 0)
(0.00087064 5.2024e-05 0 3.76696 -0.00410378 0 0 0 0)
(-0.00128393 -0.00029861 0 3.76826 0.00046652 0 0 0 0)
(-0.00115587 0.00020716 0 3.76679 0.00138465 0 0 0 0)
(0.00127915 -0.000238676 0 5.8237 -0.000475159 0 0 0 0)
(0.000734106 3.39395e-05 0 5.77758 -0.000522676 0 0 0 0)
(-0.001231 -0.000244435 0 5.78297 0.000476295 0 0 0 0)
(-0.0011507 0.000254155 0 5.82247 8.59635e-05 0 0 0 0)
(0.000192199 0.000336452 0 0.564559 0.000506477 0 0 0 0)
(1.85658e-05 -0.000134705 0 0.582977 0.000483565 0 0 0 0)
(-0.000740201 0.000232816 0 0.578732 0.00112507 0 0 0 0)
(-0.000253772 -8.95506e-05 0 0.583359 0.0011918 0 0 0 0)
(0.00026483 0.000322133 0 0.678137 -0.000673171 0 0 0 0)
(0.000128223 -0.000133351 0 0.694268 -5.04865e-05 0 0 0 0)
(-0.000755003 0.000236735 0 0.689444 0.000649702 0 0 0 0)
(-0.000243455 -9.96059e-05 0 0.690624 -0.000198294 0 0 0 0)
(0.000342123 0.000330095 0 0.807847 -0.000613286 0 0 0 0)
(0.000207006 -0.000112657 0 0.821456 -0.000309161 0 0 0 0)
(-0.000800926 0.000230353 0 0.816309 0.000712587 0 0 0 0)
(-0.000196744 -0.00010874 0 0.816238 -9.81338e-05 0 0 0 0)
(0.000419266 0.000314414 0 0.9553 -0.00010984 0 0 0 0)
(0.000269256 -0.000111253 0 0.96647 -4.3137e-05 0 0 0 0)
(-0.000841971 0.000240252 0 0.9616 0.000897492 0 0 0 0)
(-0.0001776 -0.000119677 0 0.960397 0.000473302 0 0 0 0)
(0.000489898 0.000308033 0 1.12172 -0.00102028 0 0 0 0)
(0.000312019 -9.5868e-05 0 1.13106 -0.000445534 0 0 0 0)
(-0.000902132 0.00023896 0 1.1267 0.000692081 0 0 0 0)
(-0.000118728 -0.000129983 0 1.12512 -0.000553673 0 0 0 0)
(0.000557773 0.000301827 0 1.30936 -0.000559624 0 0 0 0)
(0.000352313 -8.27137e-05 0 1.31683 -0.000262899 0 0 0 0)
(-0.000941003 0.00023845 0 1.31333 0.00105786 0 0 0 0)
(-9.88133e-05 -0.000142482 0 1.31121 0.000182767 0 0 0 0)
(0.000613973 0.000289441 0 1.51931 -0.000648395 0 0 0 0)
(0.000378159 -6.89099e-05 0 1.52552 -0.000301212 0 0 0 0)
(-0.000995841 0.000246388 0 1.52302 0.000983273 0 0 0 0)
(-3.09736e-05 -0.000159151 0 1.52083 2.63955e-05 0 0 0 0)
(0.00067071 0.000280424 0 1.75397 -0.000790681 0 0 0 0)
(0.000414212 -5.55192e-05 0 1.75863 -0.000360575 0 0 0 0)
(-0.00101922 0.00024391 0 1.7572 0.00102654 0 0 0 0)
(-2.94352e-05 -0.000169215 0 1.7545 -0.000115197 0 0 0 0)
(0.0007113 0.000268381 0 2.01399 -0.000796452 0 0 0 0)
(0.00043205 -3.86229e-05 0 2.01747 -0.000365397 0 0 0 0)
(-0.00106463 0.000250477 0 2.01776 0.00105281 0 0 0 0)
(4.12785e-05 -0.00019048 0 2.01485 -0.000116097 0 0 0 0)
(0.000751726 0.000256159 0 2.30175 -0.00117008 0 0 0 0)
(0.00047706 -2.46982e-05 0 2.30317 -0.000424412 0 0 0 0)
(-0.00106293 0.000248065 0 2.30543 0.000636147 0 0 0 0)
(-3.21462e-06 -0.000202849 0 2.30226 -0.00122587 0 0 0 0)
(0.000764112 0.000242633 0 2.61773 -0.000358552 0 0 0 0)
(0.000493468 -8.51916e-06 0 2.61694 -0.00044511 0 0 0 0)
(-0.00107979 0.00023712 0 2.62195 0.00182968 0 0 0 0)
(4.4951e-05 -0.000217597 0 2.61911 0.00172462 0 0 0 0)
(0.00077306 0.000232197 0 2.9649 -0.000686046 0 0 0 0)
(0.000547244 1.17723e-05 0 2.96047 -0.000460465 0 0 0 0)
(-0.00102672 0.000284227 0 2.96876 0.00166916 0 0 0 0)
(-7.10265e-05 -0.000257624 0 2.96721 0.000988418 0 0 0 0)
(0.000734164 0.000229581 0 3.34307 -0.00174964 0 0 0 0)
(0.00055774 3.07343e-05 0 3.33369 -0.000344361 0 0 0 0)
(-0.000967329 0.000261268 0 3.34596 -0.000578641 0 0 0 0)
(-8.79685e-05 -0.000258638 0 3.34745 -0.00386439 0 0 0 0)
(0.00067519 0.000178312 0 3.76736 0.000597178 0 0 0 0)
(0.000595503 3.1289e-05 0 3.75439 -0.000831974 0 0 0 0)
(-0.000797458 0.00022556 0 3.76904 0.000617177 0 0 0 0)
(-0.000310275 -0.000290473 0 3.77789 0.000920362 0 0 0 0)
(0.000527533 0.000192638 0 5.80139 -0.000682977 0 0 0 0)
(0.000585848 3.10676e-05 0 5.78823 -0.000591861 0 0 0 0)
(-0.000575684 0.000290473 0 5.80388 0.000490907 0 0 0 0)
(-0.000169249 -0.000319162 0 5.82179 -0.000202842 0 0 0 0)
)
;

boundaryField
{
    topWall
    {
        type            extrapolatedCalculated;
        value           nonuniform List<tensor> 0();
    }
    botWall
    {
        type            extrapolatedCalculated;
        value           nonuniform List<tensor> 0();
    }
    inlet
    {
        type            cyclic;
    }
    outlet
    {
        type            cyclic;
    }
    fixWall
    {
        type            empty;
    }
    procBoundary3to2
    {
        type            processor;
        value           nonuniform List<tensor> 8((0.000575525 -7.85182e-05 0 0.489073 -0.00081255 0 0 0 0) (6.18408e-05 -0.00014207 0 0.489827 -0.000500705 0 0 0 0) (3.29077e-05 -0.000475773 0 0.5067 -0.000483525 0 0 0 0) (0.000359636 0.000363464 0 0.481757 -0.00124179 0 0 0 0) (0.000152948 0.00032936 0 0.468467 -0.00098614 0 0 0 0) (-0.000107996 -0.000143661 0 0.486229 -9.9419e-05 0 0 0 0) (-0.00076138 0.000224931 0 0.482074 0.000610635 0 0 0 0) (-0.000313481 -7.77337e-05 0 0.488511 -0.000109179 0 0 0 0));
    }
    procBoundary3to4
    {
        type            processor;
        value           nonuniform List<tensor> 8((0.000669327 -0.000110593 0 21.8279 0.00377877 0 0 0 0) (0.000191672 6.78816e-05 0 21.3898 0.0123371 0 0 0 0) (-0.000535675 -0.000288466 0 21.4278 0.00458033 0 0 0 0) (-0.000848721 0.000187839 0 21.9913 0.00422365 0 0 0 0) (0.000104411 0.000167015 0 21.7909 -0.00341513 0 0 0 0) (0.000636943 5.08537e-05 0 21.9617 0.000681333 0 0 0 0) (-0.000238064 0.000232044 0 21.7691 -6.41041e-05 0 0 0 0) (2.01061e-05 -0.000306574 0 21.6317 -0.0046256 0 0 0 0));
    }
}


// ************************************************************************* //
