/*--------------------------------*- C++ -*----------------------------------*\
  =========                 |
  \\      /  F ield         | OpenFOAM: The Open Source CFD Toolbox
   \\    /   O peration     | Website:  https://openfoam.org
    \\  /    A nd           | Version:  dev
     \\/     M anipulation  |

   OpenFOAM for Windows 20.09 (v1)
   Built by CFD Support, www.cfdsupport.com (based on Symscape).
\*---------------------------------------------------------------------------*/
FoamFile
{
    version     2.0;
    format      ascii;
    class       volVectorField;
    location    "6";
    object      gradp;
}
// * * * * * * * * * * * * * * * * * * * * * * * * * * * * * * * * * * * * * //

dimensions      [1 -2 -2 0 0 0 0];

internalField   nonuniform List<vector> 
120
(
(3.73911 -99.5403 0)
(-1.25999 -98.7922 0)
(-1.27391 -98.2252 0)
(-1.25448 -98.7937 0)
(3.74742 -98.5366 0)
(-1.265 -98.2456 0)
(-1.29338 -98.7796 0)
(-1.25896 -99.3181 0)
(3.74672 -98.2414 0)
(-1.26404 -98.2806 0)
(-1.29178 -98.1295 0)
(-1.25859 -98.0792 0)
(3.7459 -98.2382 0)
(-1.26313 -98.2565 0)
(-1.29002 -98.1286 0)
(-1.25822 -98.0777 0)
(3.74563 -98.2285 0)
(-1.26221 -98.2141 0)
(-1.2888 -98.1153 0)
(-1.25786 -98.0683 0)
(3.74556 -98.2372 0)
(-1.26124 -98.214 0)
(-1.28759 -98.1201 0)
(-1.25771 -98.0704 0)
(3.74535 -98.2463 0)
(-1.26026 -98.2206 0)
(-1.28641 -98.1319 0)
(-1.25726 -98.0819 0)
(3.74516 -98.2375 0)
(-1.25934 -98.2182 0)
(-1.28528 -98.1263 0)
(-1.25709 -98.0815 0)
(3.74498 -98.2376 0)
(-1.25841 -98.217 0)
(-1.28413 -98.1259 0)
(-1.25678 -98.0792 0)
(3.74483 -98.2376 0)
(-1.25747 -98.2168 0)
(-1.28299 -98.1259 0)
(-1.25647 -98.0797 0)
(3.74468 -98.2305 0)
(-1.25655 -98.2155 0)
(-1.28185 -98.1242 0)
(-1.25616 -98.0716 0)
(3.74421 -98.2285 0)
(-1.2557 -98.2235 0)
(-1.28059 -98.1322 0)
(-1.25553 -98.0767 0)
(3.74362 -98.2332 0)
(-1.25494 -98.222 0)
(-1.2794 -98.1314 0)
(-1.25511 -98.0828 0)
(3.7435 -97.5278 0)
(-1.254 -97.7445 0)
(-1.27827 -97.6509 0)
(-1.25483 -97.4693 0)
(3.74195 -75.1203 0)
(-1.25699 -75.8848 0)
(-1.27482 -75.8051 0)
(-1.25445 -75.1757 0)
(-1.25214 -98.3612 0)
(-1.24052 -98.1777 0)
(-1.21306 -97.9839 0)
(3.75498 -97.9933 0)
(-1.23181 -99.0266 0)
(-1.22896 -98.1069 0)
(-1.22223 -98.3504 0)
(3.75292 -98.7024 0)
(-1.23195 -98.0849 0)
(-1.22925 -98.0956 0)
(-1.22299 -98.1179 0)
(3.75188 -98.1894 0)
(-1.23208 -98.0844 0)
(-1.22951 -98.0941 0)
(-1.22379 -98.1172 0)
(3.75086 -98.1906 0)
(-1.23223 -98.0848 0)
(-1.22979 -98.0936 0)
(-1.22459 -98.1181 0)
(3.74986 -98.1938 0)
(-1.2325 -98.0846 0)
(-1.23007 -98.0947 0)
(-1.22546 -98.1189 0)
(3.74902 -98.1974 0)
(-1.23263 -98.0946 0)
(-1.23036 -98.0892 0)
(-1.22631 -98.1181 0)
(3.74789 -98.1965 0)
(-1.23263 -98.0971 0)
(-1.23046 -98.0957 0)
(-1.22725 -98.1176 0)
(3.74689 -98.1963 0)
(-1.23287 -98.0885 0)
(-1.23071 -98.1014 0)
(-1.22798 -98.1184 0)
(3.74589 -98.1972 0)
(-1.233 -98.0889 0)
(-1.23096 -98.0946 0)
(-1.22885 -98.1185 0)
(3.7449 -98.1984 0)
(-1.23312 -98.0682 0)
(-1.2312 -98.0811 0)
(-1.22971 -98.102 0)
(3.74391 -98.178 0)
(-1.23315 -98.0694 0)
(-1.23152 -98.0828 0)
(-1.23046 -98.0954 0)
(3.74276 -98.1603 0)
(-1.23322 -98.0893 0)
(-1.23163 -98.0975 0)
(-1.231 -98.114 0)
(3.74169 -98.1796 0)
(-1.2334 -97.611 0)
(-1.23193 -97.6082 0)
(-1.23183 -97.6063 0)
(3.74077 -97.6442 0)
(-1.23553 -75.5682 0)
(-1.23155 -75.4809 0)
(-1.2316 -75.5562 0)
(3.74299 -75.5832 0)
)
;

boundaryField
{
    topWall
    {
        type            extrapolatedCalculated;
        value           nonuniform List<vector> 0();
    }
    botWall
    {
        type            extrapolatedCalculated;
        value           nonuniform List<vector> 0();
    }
    inlet
    {
        type            cyclic;
    }
    outlet
    {
        type            cyclic;
    }
    fixWall
    {
        type            empty;
    }
    procBoundary3to2
    {
        type            processor;
        value           nonuniform List<vector> 8((3.76073 -98.5456 0) (-1.28691 -97.8483 0) (-1.29336 -97.568 0) (-1.2567 -97.5535 0) (-1.24208 -97.4203 0) (-1.23525 -97.7664 0) (-1.2253 -97.6067 0) (3.77886 -97.2876 0));
    }
    procBoundary3to4
    {
        type            processor;
        value           nonuniform List<vector> 8((3.73847 -32.1093 0) (-1.26542 -32.7882 0) (-1.26645 -32.7447 0) (-1.25088 -32.0885 0) (-1.23849 -32.4182 0) (-1.23173 -32.2603 0) (-1.23354 -32.4412 0) (3.74804 -32.5411 0));
    }
}


// ************************************************************************* //
