/*--------------------------------*- C++ -*----------------------------------*\
  =========                 |
  \\      /  F ield         | OpenFOAM: The Open Source CFD Toolbox
   \\    /   O peration     | Website:  https://openfoam.org
    \\  /    A nd           | Version:  dev
     \\/     M anipulation  |

   OpenFOAM for Windows 20.09 (v1)
   Built by CFD Support, www.cfdsupport.com (based on Symscape).
\*---------------------------------------------------------------------------*/
FoamFile
{
    version     2.0;
    format      ascii;
    class       volVectorField;
    location    "6";
    object      gradp_rgh;
}
// * * * * * * * * * * * * * * * * * * * * * * * * * * * * * * * * * * * * * //

dimensions      [1 -2 -2 0 0 0 0];

internalField   nonuniform List<vector> 
120
(
(-1.26146 -1.41267 0)
(-1.25972 -0.655598 0)
(-1.27283 -0.129133 0)
(-1.25428 -0.721362 0)
(-1.25257 -0.44849 0)
(-1.26497 -0.132074 0)
(-1.29337 -0.706942 0)
(-1.25896 -1.26923 0)
(-1.25327 -0.141836 0)
(-1.26403 -0.182953 0)
(-1.29179 -0.0322449 0)
(-1.2586 0.0177991 0)
(-1.25412 -0.138603 0)
(-1.26314 -0.158456 0)
(-1.29002 -0.0304971 0)
(-1.25822 0.0205859 0)
(-1.2544 -0.129092 0)
(-1.26223 -0.115061 0)
(-1.2888 -0.016277 0)
(-1.25785 0.030603 0)
(-1.25447 -0.137364 0)
(-1.26126 -0.114404 0)
(-1.2876 -0.0205387 0)
(-1.25771 0.0289479 0)
(-1.25468 -0.14587 0)
(-1.26028 -0.120281 0)
(-1.28641 -0.0312514 0)
(-1.25727 0.0185027 0)
(-1.25486 -0.137244 0)
(-1.25935 -0.117436 0)
(-1.28528 -0.02532 0)
(-1.25709 0.019589 0)
(-1.25503 -0.137079 0)
(-1.25841 -0.115946 0)
(-1.28413 -0.0246418 0)
(-1.25678 0.0223221 0)
(-1.25518 -0.136827 0)
(-1.25747 -0.11539 0)
(-1.28298 -0.0244285 0)
(-1.25647 0.0218196 0)
(-1.25532 -0.129778 0)
(-1.25654 -0.114301 0)
(-1.28184 -0.0231587 0)
(-1.25618 0.0296087 0)
(-1.25579 -0.128212 0)
(-1.2557 -0.123096 0)
(-1.28058 -0.032042 0)
(-1.25554 0.0237214 0)
(-1.25638 -0.157759 0)
(-1.25494 -0.179765 0)
(-1.2794 -0.050659 0)
(-1.25512 0.00457749 0)
(-1.25701 -81.9437 0)
(-1.25391 -54.2818 0)
(-1.27751 -55.1307 0)
(-1.2553 -71.3299 0)
(-1.08795 -2589.17 0)
(-0.808053 -2571.85 0)
(-1.56353 -2572.63 0)
(-1.26746 -2593.98 0)
(-1.25273 -0.271768 0)
(-1.241 -0.0938052 0)
(-1.21297 0.121901 0)
(-1.245 0.114545 0)
(-1.23181 -0.966254 0)
(-1.22898 -0.0222559 0)
(-1.22225 -0.260432 0)
(-1.2471 -0.623805 0)
(-1.23195 0.0119766 0)
(-1.22924 0.00207415 0)
(-1.223 -0.0191379 0)
(-1.24813 -0.0902549 0)
(-1.23207 0.0142164 0)
(-1.2295 0.00486715 0)
(-1.22379 -0.0177189 0)
(-1.24915 -0.0904619 0)
(-1.23221 0.0142918 0)
(-1.22977 0.00605064 0)
(-1.22459 -0.0183892 0)
(-1.25015 -0.0938597 0)
(-1.23248 0.0147566 0)
(-1.23004 0.00532424 0)
(-1.22546 -0.0191633 0)
(-1.25099 -0.0976202 0)
(-1.2326 0.00566732 0)
(-1.23034 0.0105707 0)
(-1.2263 -0.018263 0)
(-1.25212 -0.0967108 0)
(-1.23261 0.00369819 0)
(-1.23044 0.00429194 0)
(-1.22724 -0.017719 0)
(-1.25312 -0.0963856 0)
(-1.23286 0.0125146 0)
(-1.23069 -0.000814092 0)
(-1.22798 -0.0182922 0)
(-1.25411 -0.0971529 0)
(-1.233 0.011901 0)
(-1.23095 0.00562257 0)
(-1.22885 -0.018402 0)
(-1.2551 -0.098145 0)
(-1.23313 0.0329763 0)
(-1.2312 0.0195657 0)
(-1.22971 -0.00142503 0)
(-1.25609 -0.0773643 0)
(-1.23316 0.0312239 0)
(-1.23153 0.017836 0)
(-1.23047 0.00526461 0)
(-1.25724 -0.0595922 0)
(-1.23323 -0.0362409 0)
(-1.23163 -0.0227562 0)
(-1.231 -0.0353512 0)
(-1.25831 -0.106671 0)
(-1.23362 -55.8709 0)
(-1.23151 -57.9946 0)
(-1.23186 -61.3753 0)
(-1.25928 -64.3877 0)
(-1.01097 -2586.03 0)
(-1.32337 -2595.73 0)
(-1.33755 -2585.57 0)
(-1.60112 -2577.53 0)
)
;

boundaryField
{
    topWall
    {
        type            extrapolatedCalculated;
        value           nonuniform List<vector> 0();
    }
    botWall
    {
        type            extrapolatedCalculated;
        value           nonuniform List<vector> 0();
    }
    inlet
    {
        type            cyclic;
    }
    outlet
    {
        type            cyclic;
    }
    fixWall
    {
        type            empty;
    }
    procBoundary3to2
    {
        type            processor;
        value           nonuniform List<vector> 8((-1.23974 -0.433556 0) (-1.28636 0.23742 0) (-1.29227 0.557582 0) (-1.25658 0.595297 0) (-1.24227 0.717837 0) (-1.23554 0.347589 0) (-1.22572 0.502281 0) (-1.22153 0.833145 0));
    }
    procBoundary3to4
    {
        type            processor;
        value           nonuniform List<vector> 8((-1.16225 -2566.34 0) (-0.97838 -2594.93 0) (-1.64645 -2593.94 0) (-1.47861 -2576.87 0) (-1.2628 -2592.82 0) (-1.22373 -2590.52 0) (-0.928507 -2587.36 0) (-1.31928 -2584.49 0));
    }
}


// ************************************************************************* //
