/*--------------------------------*- C++ -*----------------------------------*\
  =========                 |
  \\      /  F ield         | OpenFOAM: The Open Source CFD Toolbox
   \\    /   O peration     | Website:  https://openfoam.org
    \\  /    A nd           | Version:  dev
     \\/     M anipulation  |

   OpenFOAM for Windows 20.09 (v1)
   Built by CFD Support, www.cfdsupport.com (based on Symscape).
\*---------------------------------------------------------------------------*/
FoamFile
{
    version     2.0;
    format      ascii;
    class       volScalarField;
    location    "6";
    object      k;
}
// * * * * * * * * * * * * * * * * * * * * * * * * * * * * * * * * * * * * * //

dimensions      [0 2 -2 0 0 0 0];

internalField   nonuniform List<scalar> 
120
(
3.1403e-16
3.13781e-16
3.14038e-16
3.14596e-16
3.36029e-16
3.35747e-16
3.36025e-16
3.36655e-16
3.60569e-16
3.60251e-16
3.60549e-16
3.61257e-16
3.87869e-16
3.87513e-16
3.87829e-16
3.88623e-16
4.18176e-16
4.17779e-16
4.18113e-16
4.19001e-16
4.51771e-16
4.51329e-16
4.51681e-16
4.52671e-16
4.88966e-16
4.88477e-16
4.88847e-16
4.89949e-16
5.30119e-16
5.29577e-16
5.29965e-16
5.31192e-16
5.75631e-16
5.75032e-16
5.7544e-16
5.76804e-16
6.25959e-16
6.25298e-16
6.25726e-16
6.27245e-16
6.81627e-16
6.80898e-16
6.81348e-16
6.83042e-16
7.4324e-16
7.42433e-16
7.4291e-16
7.44803e-16
8.11506e-16
8.10611e-16
8.11116e-16
8.13239e-16
8.87262e-16
8.86267e-16
8.86803e-16
8.89192e-16
9.71491e-16
9.70392e-16
9.70963e-16
9.73658e-16
3.14268e-16
3.14124e-16
3.14082e-16
3.14017e-16
3.36298e-16
3.3613e-16
3.36082e-16
3.36014e-16
3.60872e-16
3.60677e-16
3.60622e-16
3.60552e-16
3.88209e-16
3.87983e-16
3.87922e-16
3.8785e-16
4.18557e-16
4.18297e-16
4.1823e-16
4.18157e-16
4.52196e-16
4.51897e-16
4.51825e-16
4.51751e-16
4.89441e-16
4.89099e-16
4.89023e-16
4.88949e-16
5.30648e-16
5.30259e-16
5.3018e-16
5.30106e-16
5.76221e-16
5.75779e-16
5.75698e-16
5.75626e-16
6.26619e-16
6.26118e-16
6.26037e-16
6.25967e-16
6.82366e-16
6.818e-16
6.8172e-16
6.81653e-16
7.44068e-16
7.43432e-16
7.43355e-16
7.4329e-16
8.12435e-16
8.11723e-16
8.11649e-16
8.11585e-16
8.88303e-16
8.87512e-16
8.8744e-16
8.87373e-16
9.72667e-16
9.71797e-16
9.71722e-16
9.71641e-16
)
;

boundaryField
{
    topWall
    {
        type            kqRWallFunction;
        value           nonuniform List<scalar> 0();
    }
    botWall
    {
        type            kqRWallFunction;
        value           nonuniform List<scalar> 0();
    }
    inlet
    {
        type            cyclic;
    }
    outlet
    {
        type            cyclic;
    }
    fixWall
    {
        type            empty;
    }
    procBoundary3to2
    {
        type            processor;
        value           nonuniform List<scalar> 8(2.94377e-16 2.94158e-16 2.94393e-16 2.94886e-16 2.94586e-16 2.94464e-16 2.94427e-16 2.94365e-16);
    }
    procBoundary3to4
    {
        type            processor;
        value           nonuniform List<scalar> 8(1.06355e-15 1.06241e-15 1.06301e-15 1.06601e-15 1.06492e-15 1.06398e-15 1.06389e-15 1.06377e-15);
    }
}


// ************************************************************************* //
