/*--------------------------------*- C++ -*----------------------------------*\
  =========                 |
  \\      /  F ield         | OpenFOAM: The Open Source CFD Toolbox
   \\    /   O peration     | Website:  https://openfoam.org
    \\  /    A nd           | Version:  dev
     \\/     M anipulation  |

   OpenFOAM for Windows 20.09 (v1)
   Built by CFD Support, www.cfdsupport.com (based on Symscape).
\*---------------------------------------------------------------------------*/
FoamFile
{
    version     2.0;
    format      ascii;
    class       volScalarField;
    location    "6";
    object      nut;
}
// * * * * * * * * * * * * * * * * * * * * * * * * * * * * * * * * * * * * * //

dimensions      [0 2 -1 0 0 0 0];

internalField   nonuniform List<scalar> 
120
(
1.8231e-17
1.82207e-17
1.82404e-17
1.82714e-17
1.94561e-17
1.94429e-17
1.94648e-17
1.94999e-17
2.07351e-17
2.07185e-17
2.07426e-17
2.07819e-17
2.20572e-17
2.20367e-17
2.20628e-17
2.21065e-17
2.3409e-17
2.3384e-17
2.34121e-17
2.34598e-17
2.47744e-17
2.47445e-17
2.47741e-17
2.48256e-17
2.61348e-17
2.60996e-17
2.61303e-17
2.61852e-17
2.74696e-17
2.74287e-17
2.74599e-17
2.75173e-17
2.87561e-17
2.87097e-17
2.87405e-17
2.87993e-17
2.99708e-17
2.9919e-17
2.99486e-17
3.00074e-17
3.10897e-17
3.10335e-17
3.10608e-17
3.11178e-17
3.20898e-17
3.20304e-17
3.20545e-17
3.21077e-17
3.29498e-17
3.28894e-17
3.29094e-17
3.29566e-17
3.36519e-17
3.35929e-17
3.36084e-17
3.36473e-17
3.41818e-17
3.41273e-17
3.4139e-17
3.41671e-17
1.82527e-17
1.82438e-17
1.82399e-17
1.82367e-17
1.94799e-17
1.94695e-17
1.94646e-17
1.94619e-17
2.07608e-17
2.07488e-17
2.07428e-17
2.07408e-17
2.20844e-17
2.20709e-17
2.20635e-17
2.20625e-17
2.34371e-17
2.34222e-17
2.34132e-17
2.34135e-17
2.48026e-17
2.47865e-17
2.47758e-17
2.47775e-17
2.61621e-17
2.6145e-17
2.61325e-17
2.61359e-17
2.74945e-17
2.74769e-17
2.74624e-17
2.74676e-17
2.87772e-17
2.87595e-17
2.8743e-17
2.875e-17
2.99862e-17
2.9969e-17
2.99505e-17
2.99594e-17
3.1098e-17
3.10817e-17
3.10613e-17
3.10721e-17
3.20895e-17
3.20745e-17
3.20528e-17
3.2065e-17
3.29404e-17
3.29268e-17
3.29043e-17
3.29175e-17
3.36335e-17
3.36212e-17
3.35986e-17
3.36124e-17
3.41559e-17
3.41444e-17
3.4123e-17
3.41367e-17
)
;

boundaryField
{
    topWall
    {
        type            nutkWallFunction;
        Cmu             0.09;
        kappa           0.41;
        E               9.8;
        value           nonuniform List<scalar> 0();
    }
    botWall
    {
        type            nutkWallFunction;
        Cmu             0.09;
        kappa           0.41;
        E               9.8;
        value           nonuniform List<scalar> 0();
    }
    inlet
    {
        type            cyclic;
    }
    outlet
    {
        type            cyclic;
    }
    fixWall
    {
        type            empty;
    }
    procBoundary3to2
    {
        type            processor;
        value           nonuniform List<scalar> 8(1.70944e-17 1.70864e-17 1.7104e-17 1.71312e-17 1.71139e-17 1.71064e-17 1.71034e-17 1.70998e-17);
    }
    procBoundary3to4
    {
        type            processor;
        value           nonuniform List<scalar> 8(1.65315e-17 1.68539e-17 1.6837e-17 1.64736e-17 1.66006e-17 1.6452e-17 1.66003e-17 1.66995e-17);
    }
}


// ************************************************************************* //
