/*--------------------------------*- C++ -*----------------------------------*\
  =========                 |
  \\      /  F ield         | OpenFOAM: The Open Source CFD Toolbox
   \\    /   O peration     | Website:  https://openfoam.org
    \\  /    A nd           | Version:  dev
     \\/     M anipulation  |

   OpenFOAM for Windows 20.09 (v1)
   Built by CFD Support, www.cfdsupport.com (based on Symscape).
\*---------------------------------------------------------------------------*/
FoamFile
{
    version     2.0;
    format      ascii;
    class       volScalarField;
    location    "6";
    object      omega;
}
// * * * * * * * * * * * * * * * * * * * * * * * * * * * * * * * * * * * * * //

dimensions      [0 0 -1 0 0 0 0];

internalField   nonuniform List<scalar> 
120
(
17.225
17.2211
17.2166
17.218
17.2711
17.2684
17.2632
17.2644
17.3893
17.3879
17.3821
17.3832
17.5847
17.5849
17.5784
17.5796
17.8639
17.866
17.8589
17.8604
18.2354
18.2396
18.232
18.234
18.7094
18.7159
18.708
18.7109
19.2984
19.3074
19.2996
19.3039
20.0177
20.0292
20.0219
20.0284
20.8857
20.8997
20.8933
20.903
21.9245
21.9408
21.936
21.9502
23.1613
23.179
23.1765
23.197
24.6285
24.6466
24.6469
24.6761
26.3659
26.3826
26.3864
26.4268
28.4213
28.4345
28.4414
28.497
17.2176
17.2181
17.2194
17.219
17.2639
17.2645
17.2663
17.2653
17.3824
17.383
17.3854
17.3837
17.5784
17.5789
17.5821
17.5796
17.8587
17.859
17.863
17.8596
18.2318
18.2316
18.2366
18.2323
18.708
18.7072
18.7132
18.708
19.3001
19.2984
19.3057
19.2993
20.0236
20.0205
20.0292
20.0218
20.8969
20.8922
20.9024
20.8938
21.9425
21.9357
21.9475
21.9378
23.1873
23.1783
23.1916
23.1807
24.6638
24.6523
24.667
24.6551
26.4113
26.3974
26.413
26.4002
28.4773
28.4614
28.4771
28.4632
)
;

boundaryField
{
    topWall
    {
        beta1           0.075;
        blended         0;
        type            omegaWallFunction;
        value           nonuniform List<scalar> 0();
    }
    botWall
    {
        beta1           0.075;
        blended         0;
        type            omegaWallFunction;
        value           nonuniform List<scalar> 0();
    }
    inlet
    {
        type            cyclic;
    }
    outlet
    {
        type            cyclic;
    }
    fixWall
    {
        type            empty;
    }
    procBoundary3to2
    {
        type            processor;
        value           nonuniform List<scalar> 8(17.2206 17.2159 17.212 17.2134 17.2132 17.2137 17.2145 17.2146);
    }
    procBoundary3to4
    {
        type            processor;
        value           nonuniform List<scalar> 8(31.2186 31.2219 31.2303 31.3073 31.28 31.2681 31.2774 31.2595);
    }
}


// ************************************************************************* //
