/*--------------------------------*- C++ -*----------------------------------*\
  =========                 |
  \\      /  F ield         | OpenFOAM: The Open Source CFD Toolbox
   \\    /   O peration     | Website:  https://openfoam.org
    \\  /    A nd           | Version:  dev
     \\/     M anipulation  |

   OpenFOAM for Windows 20.09 (v1)
   Built by CFD Support, www.cfdsupport.com (based on Symscape).
\*---------------------------------------------------------------------------*/
FoamFile
{
    version     2.0;
    format      ascii;
    class       volScalarField;
    location    "6";
    object      p;
}
// * * * * * * * * * * * * * * * * * * * * * * * * * * * * * * * * * * * * * //

dimensions      [1 -1 -2 0 0 0 0];

internalField   nonuniform List<scalar> 
120
(
-3.70133
-3.76365
-3.82733
-3.89104
-3.78368
-3.8455
-3.91018
-3.97484
-3.86556
-3.92739
-3.99196
-4.05657
-3.94742
-4.0093
-4.07373
-4.13831
-4.02929
-4.09115
-4.15551
-4.22004
-4.11113
-4.17299
-4.23726
-4.30175
-4.19301
-4.25485
-4.31904
-4.38349
-4.27488
-4.33669
-4.40081
-4.46522
-4.35674
-4.41854
-4.48258
-4.54696
-4.43861
-4.50039
-4.56436
-4.62869
-4.52047
-4.58224
-4.64613
-4.71042
-4.60233
-4.66408
-4.7279
-4.79214
-4.68419
-4.74594
-4.80968
-4.87388
-4.76605
-4.82779
-4.89145
-4.95561
-4.84673
-4.90885
-4.97243
-5.03633
-3.95277
-4.01626
-4.07683
-4.13756
-4.03608
-4.09802
-4.15898
-4.22024
-4.11782
-4.17977
-4.24074
-4.30207
-4.19956
-4.26151
-4.32251
-4.38389
-4.28129
-4.34326
-4.40427
-4.46572
-4.36303
-4.425
-4.48604
-4.54755
-4.44477
-4.50675
-4.5678
-4.62938
-4.52652
-4.58849
-4.64957
-4.71121
-4.60826
-4.67024
-4.73133
-4.79304
-4.69
-4.75199
-4.8131
-4.87487
-4.77174
-4.83373
-4.89486
-4.9567
-4.85345
-4.91546
-4.9766
-5.0385
-4.93519
-4.9972
-5.05836
-5.1203
-5.01693
-5.07895
-5.14012
-5.20214
-5.09788
-5.15988
-5.22103
-5.28305
)
;

boundaryField
{
    topWall
    {
        type            calculated;
        value           nonuniform List<scalar> 0();
    }
    botWall
    {
        type            calculated;
        value           nonuniform List<scalar> 0();
    }
    inlet
    {
        type            cyclic;
    }
    outlet
    {
        type            cyclic;
    }
    fixWall
    {
        type            empty;
    }
    procBoundary3to2
    {
        type            processor;
        value           nonuniform List<scalar> 8(-3.61778 -3.68085 -3.74648 -3.81018 -3.87215 -3.93439 -3.99567 -4.05692);
    }
    procBoundary3to4
    {
        type            processor;
        value           nonuniform List<scalar> 8(-4.89125 -4.95426 -5.01779 -5.0809 -5.14288 -5.20475 -5.26605 -5.32811);
    }
}


// ************************************************************************* //
