/*--------------------------------*- C++ -*----------------------------------*\
  =========                 |
  \\      /  F ield         | OpenFOAM: The Open Source CFD Toolbox
   \\    /   O peration     | Website:  https://openfoam.org
    \\  /    A nd           | Version:  dev
     \\/     M anipulation  |

   OpenFOAM for Windows 20.09 (v1)
   Built by CFD Support, www.cfdsupport.com (based on Symscape).
\*---------------------------------------------------------------------------*/
FoamFile
{
    version     2.0;
    format      ascii;
    class       volScalarField;
    location    "6";
    object      p_rgh;
}
// * * * * * * * * * * * * * * * * * * * * * * * * * * * * * * * * * * * * * //

dimensions      [1 -1 -2 0 0 0 0];

internalField   nonuniform List<scalar> 
120
(
0.0183152
-0.0440507
-0.107657
-0.171334
0.0176879
-0.0441271
-0.108809
-0.173464
0.0175677
-0.0442708
-0.108835
-0.173449
0.0174515
-0.0444321
-0.108862
-0.173434
0.0173367
-0.0445349
-0.108886
-0.173415
0.0172364
-0.0446238
-0.108889
-0.173383
0.0171078
-0.0447255
-0.10892
-0.173367
0.0169933
-0.0448243
-0.108942
-0.173352
0.016879
-0.0449213
-0.108962
-0.173334
0.0167648
-0.0450175
-0.108983
-0.173315
0.016651
-0.0451136
-0.109003
-0.173298
0.0165485
-0.045208
-0.109021
-0.173266
0.0164373
-0.0453187
-0.109056
-0.173258
0.0162856
-0.0455077
-0.109106
-0.173258
-0.120136
-0.135788
-0.200941
-0.292141
-0.233084
-0.296607
-0.357185
-0.417904
-0.234704
-0.296645
-0.357602
-0.41887
-0.234695
-0.296644
-0.357619
-0.418944
-0.234684
-0.296641
-0.357634
-0.41902
-0.234671
-0.296636
-0.357648
-0.419095
-0.23466
-0.296631
-0.357664
-0.419177
-0.234647
-0.296627
-0.35768
-0.419257
-0.234651
-0.296614
-0.357695
-0.419338
-0.23464
-0.29662
-0.35771
-0.419418
-0.23463
-0.296615
-0.357725
-0.4195
-0.234621
-0.296611
-0.35774
-0.419582
-0.234575
-0.296582
-0.357728
-0.419629
-0.234569
-0.296581
-0.357732
-0.419681
-0.234635
-0.29662
-0.357787
-0.419807
-0.327687
-0.393238
-0.460024
-0.526994
)
;

boundaryField
{
    topWall
    {
        type            zeroGradient;
    }
    botWall
    {
        type            zeroGradient;
    }
    inlet
    {
        type            fixedJump;
        patchType       cyclic;
        jump            uniform -0.5;
        value           nonuniform List<scalar> 
15
(
-0.0735647
0.0482394
0.0483781
0.0484598
0.0485346
0.0486324
0.0487304
0.0488276
0.0489251
0.0490298
0.049121
0.0492156
0.0493118
0.049409
0.0502054
)
;
    }
    outlet
    {
        type            fixedJump;
        patchType       cyclic;
        value           nonuniform List<scalar> 
15
(
-0.573565
-0.451761
-0.451622
-0.45154
-0.451465
-0.451368
-0.45127
-0.451172
-0.451075
-0.45097
-0.450879
-0.450784
-0.450688
-0.450591
-0.449795
)
;
    }
    fixWall
    {
        type            empty;
    }
    procBoundary3to2
    {
        type            processor;
        value           nonuniform List<scalar> 8(0.0200424 -0.0430345 -0.108593 -0.172262 -0.234251 -0.296488 -0.357805 -0.419061);
    }
    procBoundary3to4
    {
        type            processor;
        value           nonuniform List<scalar> 8(-4.29899 -4.33192 -4.39683 -4.49656 -4.54469 -4.62284 -4.66706 -4.71569);
    }
}


// ************************************************************************* //
