/*--------------------------------*- C++ -*----------------------------------*\
  =========                 |
  \\      /  F ield         | OpenFOAM: The Open Source CFD Toolbox
   \\    /   O peration     | Website:  https://openfoam.org
    \\  /    A nd           | Version:  dev
     \\/     M anipulation  |

   OpenFOAM for Windows 20.09 (v1)
   Built by CFD Support, www.cfdsupport.com (based on Symscape).
\*---------------------------------------------------------------------------*/
FoamFile
{
    version     2.0;
    format      ascii;
    class       surfaceScalarField;
    location    "6";
    object      phi;
}
// * * * * * * * * * * * * * * * * * * * * * * * * * * * * * * * * * * * * * //

dimensions      [0 3 -1 0 0 0 0];

internalField   nonuniform List<scalar> 
217
(
2.82362e-08
-2.42285e-10
2.8251e-08
6.49806e-10
2.82519e-08
-9.3839e-10
-1.68006e-09
2.82432e-08
2.86755e-08
-2.59866e-10
2.86949e-08
6.30404e-10
2.8692e-08
-9.35485e-10
-1.66524e-09
2.86772e-08
2.91982e-08
-2.78775e-10
2.92197e-08
6.08874e-10
2.92143e-08
-9.29998e-10
-1.64294e-09
2.9192e-08
2.98153e-08
-2.99561e-10
2.98382e-08
5.85984e-10
2.98297e-08
-9.21501e-10
-1.61556e-09
2.98023e-08
3.0541e-08
-3.23283e-10
3.05638e-08
5.63216e-10
3.0552e-08
-9.09715e-10
-1.584e-09
3.05204e-08
3.13883e-08
-3.50006e-10
3.14111e-08
5.40351e-10
3.13955e-08
-8.94091e-10
-1.54951e-09
3.1361e-08
3.23739e-08
-3.80389e-10
3.23957e-08
5.18543e-10
3.23762e-08
-8.74504e-10
-1.51244e-09
3.23391e-08
3.35123e-08
-4.14461e-10
3.35349e-08
4.96024e-10
3.35102e-08
-8.49877e-10
-1.47312e-09
3.34709e-08
3.48242e-08
-4.53408e-10
3.48454e-08
4.74871e-10
3.48161e-08
-8.20645e-10
-1.43143e-09
3.47744e-08
3.63232e-08
-4.96809e-10
3.63471e-08
4.50989e-10
3.63117e-08
-7.85268e-10
-1.38696e-09
3.62672e-08
3.80338e-08
-5.45412e-10
3.80577e-08
4.27073e-10
3.80174e-08
-7.44938e-10
-1.33974e-09
3.79702e-08
3.99691e-08
-5.97782e-10
3.9999e-08
3.97206e-10
3.99521e-08
-6.98077e-10
-1.28925e-09
3.99016e-08
4.21566e-08
-6.52395e-10
4.21887e-08
3.65146e-10
4.21389e-08
-6.48344e-10
-1.23663e-09
4.20863e-08
4.46073e-08
-7.04676e-10
4.46478e-08
3.24627e-10
4.45958e-08
-5.96309e-10
-1.18316e-09
4.45423e-08
4.73867e-08
4.74214e-08
4.73717e-08
4.73183e-08
2.82592e-08
8.90611e-10
2.82544e-08
-3.22674e-11
2.82258e-08
2.23231e-10
1.12691e-09
2.86927e-08
8.75148e-10
2.86957e-08
-3.53211e-11
2.86639e-08
2.5508e-10
1.13284e-09
2.92106e-08
8.56493e-10
2.92169e-08
-4.16351e-11
2.91832e-08
2.88795e-10
1.13676e-09
2.98241e-08
8.34653e-10
2.9833e-08
-5.05106e-11
2.97977e-08
3.24122e-10
1.13995e-09
3.05452e-08
8.09918e-10
3.05558e-08
-6.1169e-11
3.0518e-08
3.61935e-10
1.14071e-09
3.13885e-08
7.824e-10
3.14009e-08
-7.3493e-11
3.13615e-08
4.01289e-10
1.14071e-09
3.23688e-08
7.52678e-10
3.23823e-08
-8.69649e-11
3.23407e-08
4.42871e-10
1.13789e-09
3.35029e-08
7.20678e-10
3.35178e-08
-1.01873e-10
3.34755e-08
4.85255e-10
1.13507e-09
3.48081e-08
6.86993e-10
3.48238e-08
-1.17519e-10
3.47795e-08
5.29501e-10
1.12933e-09
3.63026e-08
6.51675e-10
3.63201e-08
-1.35039e-10
3.6276e-08
5.73593e-10
1.12548e-09
3.8006e-08
6.15883e-10
3.80241e-08
-1.53234e-10
3.79794e-08
6.18301e-10
1.11969e-09
3.99377e-08
5.79692e-10
3.99582e-08
-1.73648e-10
3.99157e-08
6.60797e-10
1.11864e-09
4.21208e-08
5.45139e-10
4.21416e-08
-1.94411e-10
4.21017e-08
7.00706e-10
1.11835e-09
4.45744e-08
5.13068e-10
4.45967e-08
-2.16721e-10
4.4564e-08
7.33473e-10
1.12728e-09
4.73444e-08
4.73658e-08
4.73427e-08
)
;

boundaryField
{
    topWall
    {
        type            calculated;
        value           nonuniform List<scalar> 0();
    }
    botWall
    {
        type            calculated;
        value           nonuniform List<scalar> 0();
    }
    inlet
    {
        type            cyclic;
        value           nonuniform List<scalar> 
15
(
-4.73397e-08
-4.4555e-08
-4.2102e-08
-3.99167e-08
-3.79852e-08
-3.62798e-08
-3.47853e-08
-3.34783e-08
-3.23435e-08
-3.13615e-08
-3.05173e-08
-2.97945e-08
-2.91793e-08
-2.8658e-08
-2.82178e-08
)
;
    }
    outlet
    {
        type            cyclic;
        value           nonuniform List<scalar> 
15
(
4.73397e-08
4.4555e-08
4.2102e-08
3.99167e-08
3.79852e-08
3.62798e-08
3.47853e-08
3.34783e-08
3.23435e-08
3.13615e-08
3.05173e-08
2.97945e-08
2.91793e-08
2.8658e-08
2.82178e-08
)
;
    }
    fixWall
    {
        type            empty;
        value           nonuniform List<scalar> 0();
    }
    procBoundary3to2
    {
        type            processor;
        value           nonuniform List<scalar> 8(2.2371e-10 -6.6497e-10 9.36396e-10 1.68784e-09 -9.06986e-10 3.73943e-11 -1.96054e-10 -1.11865e-09);
    }
    procBoundary3to4
    {
        type            processor;
        value           nonuniform List<scalar> 8(-7.51693e-10 2.89756e-10 -5.46148e-10 -1.13e-09 4.87488e-10 -2.38359e-10 7.56993e-10 1.13026e-09);
    }
}


// ************************************************************************* //
