/*--------------------------------*- C++ -*----------------------------------*\
  =========                 |
  \\      /  F ield         | OpenFOAM: The Open Source CFD Toolbox
   \\    /   O peration     | Website:  https://openfoam.org
    \\  /    A nd           | Version:  dev
     \\/     M anipulation  |

   OpenFOAM for Windows 20.09 (v1)
   Built by CFD Support, www.cfdsupport.com (based on Symscape).
\*---------------------------------------------------------------------------*/
FoamFile
{
    version     2.0;
    format      ascii;
    class       volSymmTensorField;
    location    "6";
    object      R;
}
// * * * * * * * * * * * * * * * * * * * * * * * * * * * * * * * * * * * * * //

dimensions      [0 2 -2 0 0 0 0];

internalField   nonuniform List<symmTensor> 
120
(
(2.09337e-16 -1.06257e-17 -0 2.09365e-16 -0 2.09358e-16)
(2.09175e-16 -1.06208e-17 -0 2.09203e-16 -0 2.09183e-16)
(2.09359e-16 -1.09217e-17 -0 2.09358e-16 -0 2.09359e-16)
(2.09742e-16 -1.05359e-17 -0 2.09709e-16 -0 2.09742e-16)
(2.23998e-16 -1.34784e-17 -0 2.2404e-16 -0 2.2402e-16)
(2.23818e-16 -1.3464e-17 -0 2.23845e-16 -0 2.23831e-16)
(2.2402e-16 -1.36644e-17 -0 2.24012e-16 -0 2.24017e-16)
(2.24447e-16 -1.337e-17 -0 2.24425e-16 -0 2.24438e-16)
(2.40356e-16 -1.70061e-17 -0 2.40401e-16 -0 2.40381e-16)
(2.40149e-16 -1.70031e-17 -0 2.40188e-16 -0 2.40165e-16)
(2.4037e-16 -1.71229e-17 -0 2.40364e-16 -0 2.40364e-16)
(2.40851e-16 -1.68862e-17 -0 2.40828e-16 -0 2.40835e-16)
(2.58554e-16 -2.13109e-17 -0 2.586e-16 -0 2.58583e-16)
(2.58325e-16 -2.13098e-17 -0 2.58358e-16 -0 2.58343e-16)
(2.58566e-16 -2.13622e-17 -0 2.58535e-16 -0 2.58556e-16)
(2.59116e-16 -2.11772e-17 -0 2.59036e-16 -0 2.59093e-16)
(2.78751e-16 -2.6483e-17 -0 2.78816e-16 -0 2.78785e-16)
(2.78499e-16 -2.65012e-17 -0 2.7854e-16 -0 2.78519e-16)
(2.78756e-16 -2.64919e-17 -0 2.78729e-16 -0 2.78742e-16)
(2.79358e-16 -2.63476e-17 -0 2.79314e-16 -0 2.79329e-16)
(3.01143e-16 -3.26645e-17 -0 3.01216e-16 -0 3.01182e-16)
(3.0086e-16 -3.26804e-17 -0 3.00916e-16 -0 3.00882e-16)
(3.01138e-16 -3.26275e-17 -0 3.01106e-16 -0 3.01118e-16)
(3.01818e-16 -3.25147e-17 -0 3.01741e-16 -0 3.01783e-16)
(3.25936e-16 -3.99094e-17 -0 3.26015e-16 -0 3.25982e-16)
(3.25628e-16 -3.99735e-17 -0 3.25675e-16 -0 3.2565e-16)
(3.25925e-16 -3.98787e-17 -0 3.25869e-16 -0 3.25899e-16)
(3.26676e-16 -3.97772e-17 -0 3.26585e-16 -0 3.26637e-16)
(3.53362e-16 -4.83854e-17 -0 3.53462e-16 -0 3.53415e-16)
(3.53026e-16 -4.84595e-17 -0 3.53079e-16 -0 3.5305e-16)
(3.53343e-16 -4.83406e-17 -0 3.53278e-16 -0 3.53309e-16)
(3.54174e-16 -4.82408e-17 -0 3.5408e-16 -0 3.5413e-16)
(3.83694e-16 -5.80644e-17 -0 3.83812e-16 -0 3.83756e-16)
(3.8333e-16 -5.82289e-17 -0 3.83381e-16 -0 3.83353e-16)
(3.83668e-16 -5.80885e-17 -0 3.83585e-16 -0 3.83626e-16)
(3.84591e-16 -5.79706e-17 -0 3.84478e-16 -0 3.8454e-16)
(4.17239e-16 -6.90984e-17 -0 4.17369e-16 -0 4.1731e-16)
(4.1685e-16 -6.92958e-17 -0 4.1687e-16 -0 4.16877e-16)
(4.17211e-16 -6.91656e-17 -0 4.17083e-16 -0 4.17158e-16)
(4.18224e-16 -6.90258e-17 -0 4.181e-16 -0 4.18167e-16)
(4.54333e-16 -8.13856e-17 -0 4.54505e-16 -0 4.54415e-16)
(4.53874e-16 -8.16876e-17 -0 4.54017e-16 -0 4.53903e-16)
(4.54279e-16 -8.15699e-17 -0 4.54201e-16 -0 4.54217e-16)
(4.55424e-16 -8.14019e-17 -0 4.55299e-16 -0 4.55361e-16)
(4.95416e-16 -9.50048e-17 -0 4.95557e-16 -0 4.95507e-16)
(4.94894e-16 -9.53216e-17 -0 4.95039e-16 -0 4.94933e-16)
(4.95329e-16 -9.52794e-17 -0 4.95236e-16 -0 4.95255e-16)
(4.96589e-16 -9.51207e-17 -0 4.96499e-16 -0 4.96519e-16)
(5.40884e-16 -1.09771e-16 -0 5.41148e-16 -0 5.4098e-16)
(5.40401e-16 -1.10089e-16 -0 5.40375e-16 -0 5.40445e-16)
(5.4086e-16 -1.10149e-16 -0 5.40592e-16 -0 5.4078e-16)
(5.42273e-16 -1.10069e-16 -0 5.42008e-16 -0 5.42198e-16)
(5.91377e-16 -1.26668e-16 -0 5.91675e-16 -0 5.91472e-16)
(5.90714e-16 -1.26545e-16 -0 5.91048e-16 -0 5.90772e-16)
(5.9127e-16 -1.26635e-16 -0 5.91152e-16 -0 5.91183e-16)
(5.92878e-16 -1.26749e-16 -0 5.92707e-16 -0 5.928e-16)
(6.47592e-16 -1.99056e-16 -0 6.47712e-16 -0 6.47679e-16)
(6.46883e-16 -1.97174e-16 -0 6.46969e-16 -0 6.46933e-16)
(6.47375e-16 -1.97416e-16 -0 6.47259e-16 -0 6.47291e-16)
(6.4916e-16 -1.98945e-16 -0 6.49075e-16 -0 6.49081e-16)
(2.09513e-16 -1.03109e-17 -0 2.09502e-16 -0 2.0952e-16)
(2.09421e-16 -1.06332e-17 -0 2.09404e-16 -0 2.09422e-16)
(2.09419e-16 -1.05603e-17 -0 2.09351e-16 -0 2.09392e-16)
(2.09365e-16 -1.06369e-17 -0 2.09312e-16 -0 2.09356e-16)
(2.24183e-16 -1.32163e-17 -0 2.2422e-16 -0 2.24194e-16)
(2.24083e-16 -1.35144e-17 -0 2.2409e-16 -0 2.24088e-16)
(2.24083e-16 -1.34244e-17 -0 2.24028e-16 -0 2.24053e-16)
(2.24013e-16 -1.34389e-17 -0 2.24011e-16 -0 2.24004e-16)
(2.40563e-16 -1.67784e-17 -0 2.40603e-16 -0 2.40578e-16)
(2.40441e-16 -1.70419e-17 -0 2.40463e-16 -0 2.4045e-16)
(2.40447e-16 -1.69373e-17 -0 2.40384e-16 -0 2.40414e-16)
(2.40372e-16 -1.69272e-17 -0 2.40368e-16 -0 2.40364e-16)
(2.58792e-16 -2.11042e-17 -0 2.58815e-16 -0 2.5881e-16)
(2.58647e-16 -2.13284e-17 -0 2.58661e-16 -0 2.58659e-16)
(2.58653e-16 -2.12216e-17 -0 2.58576e-16 -0 2.58616e-16)
(2.58579e-16 -2.11861e-17 -0 2.5855e-16 -0 2.58571e-16)
(2.79007e-16 -2.6297e-17 -0 2.79077e-16 -0 2.7903e-16)
(2.78848e-16 -2.64897e-17 -0 2.78883e-16 -0 2.78862e-16)
(2.78859e-16 -2.63853e-17 -0 2.78784e-16 -0 2.78817e-16)
(2.78766e-16 -2.634e-17 -0 2.78787e-16 -0 2.78761e-16)
(3.01436e-16 -3.2483e-17 -0 3.01491e-16 -0 3.01464e-16)
(3.01249e-16 -3.26375e-17 -0 3.01279e-16 -0 3.01266e-16)
(3.01265e-16 -3.25446e-17 -0 3.01166e-16 -0 3.01219e-16)
(3.01174e-16 -3.24849e-17 -0 3.0116e-16 -0 3.01169e-16)
(3.26261e-16 -3.97558e-17 -0 3.26327e-16 -0 3.26293e-16)
(3.26048e-16 -3.98829e-17 -0 3.26083e-16 -0 3.26067e-16)
(3.26067e-16 -3.98068e-17 -0 3.25964e-16 -0 3.26015e-16)
(3.25968e-16 -3.9744e-17 -0 3.25965e-16 -0 3.25966e-16)
(3.53726e-16 -4.82323e-17 -0 3.53807e-16 -0 3.53763e-16)
(3.53484e-16 -4.83201e-17 -0 3.53527e-16 -0 3.53507e-16)
(3.53509e-16 -4.82637e-17 -0 3.53397e-16 -0 3.53453e-16)
(3.53403e-16 -4.81873e-17 -0 3.53408e-16 -0 3.53402e-16)
(3.84105e-16 -5.79647e-17 -0 3.84192e-16 -0 3.84146e-16)
(3.83829e-16 -5.80202e-17 -0 3.83875e-16 -0 3.83854e-16)
(3.8386e-16 -5.80037e-17 -0 3.83738e-16 -0 3.83799e-16)
(3.83747e-16 -5.79213e-17 -0 3.83756e-16 -0 3.83749e-16)
(4.17692e-16 -6.90285e-17 -0 4.17808e-16 -0 4.17737e-16)
(4.17384e-16 -6.90229e-17 -0 4.17438e-16 -0 4.17413e-16)
(4.17413e-16 -6.90563e-17 -0 4.17311e-16 -0 4.17349e-16)
(4.17287e-16 -6.89682e-17 -0 4.1736e-16 -0 4.17287e-16)
(4.54871e-16 -8.14138e-17 -0 4.54941e-16 -0 4.54919e-16)
(4.54503e-16 -8.13385e-17 -0 4.54562e-16 -0 4.54534e-16)
(4.54563e-16 -8.14485e-17 -0 4.54382e-16 -0 4.54496e-16)
(4.54469e-16 -8.13744e-17 -0 4.54365e-16 -0 4.54472e-16)
(4.95998e-16 -9.51497e-17 -0 4.96092e-16 -0 4.96048e-16)
(4.95588e-16 -9.49559e-17 -0 4.95653e-16 -0 4.95623e-16)
(4.9565e-16 -9.51659e-17 -0 4.95477e-16 -0 4.95584e-16)
(4.95551e-16 -9.51354e-17 -0 4.95483e-16 -0 4.95546e-16)
(5.41553e-16 -1.1013e-16 -0 5.41716e-16 -0 5.41601e-16)
(5.41116e-16 -1.09769e-16 -0 5.41176e-16 -0 5.41153e-16)
(5.41129e-16 -1.10105e-16 -0 5.41104e-16 -0 5.41066e-16)
(5.40976e-16 -1.10181e-16 -0 5.41224e-16 -0 5.4097e-16)
(5.92185e-16 -1.26715e-16 -0 5.92191e-16 -0 5.92231e-16)
(5.9163e-16 -1.26228e-16 -0 5.91726e-16 -0 5.9167e-16)
(5.91676e-16 -1.26642e-16 -0 5.91581e-16 -0 5.91623e-16)
(5.91616e-16 -1.26974e-16 -0 5.91534e-16 -0 5.91596e-16)
(6.48405e-16 -1.98158e-16 -0 6.48488e-16 -0 6.48441e-16)
(6.47825e-16 -1.97636e-16 -0 6.47905e-16 -0 6.47865e-16)
(6.47852e-16 -1.98056e-16 -0 6.47779e-16 -0 6.47813e-16)
(6.47764e-16 -1.98726e-16 -0 6.47766e-16 -0 6.47752e-16)
)
;

boundaryField
{
    topWall
    {
        type            kqRWallFunction;
        value           nonuniform List<symmTensor> 0();
    }
    botWall
    {
        type            kqRWallFunction;
        value           nonuniform List<symmTensor> 0();
    }
    inlet
    {
        type            cyclic;
    }
    outlet
    {
        type            cyclic;
    }
    fixWall
    {
        type            empty;
    }
    procBoundary3to2
    {
        type            processor;
        value           nonuniform List<symmTensor> 8((1.96229e-16 -8.35908e-18 -0 1.96276e-16 -0 1.96249e-16) (1.96098e-16 -8.36697e-18 -0 1.96118e-16 -0 1.961e-16) (1.96256e-16 -8.65845e-18 -0 1.96274e-16 -0 1.96257e-16) (1.96569e-16 -8.25929e-18 -0 1.96623e-16 -0 1.96581e-16) (1.96376e-16 -8.02294e-18 -0 1.96415e-16 -0 1.96381e-16) (1.9631e-16 -8.31517e-18 -0 1.9631e-16 -0 1.96307e-16) (1.96309e-16 -8.24894e-18 -0 1.96262e-16 -0 1.96283e-16) (1.96249e-16 -8.3521e-18 -0 1.96242e-16 -0 1.96238e-16));
    }
    procBoundary3to4
    {
        type            processor;
        value           nonuniform List<symmTensor> 8((7.09059e-16 -3.60845e-16 -0 7.08956e-16 -0 7.09081e-16) (7.08406e-16 -3.60503e-16 -0 7.07997e-16 -0 7.08413e-16) (7.08738e-16 -3.60775e-16 -0 7.08565e-16 -0 7.0872e-16) (7.10738e-16 -3.62279e-16 -0 7.10571e-16 -0 7.1071e-16) (7.09908e-16 -3.61745e-16 -0 7.10025e-16 -0 7.09911e-16) (7.09313e-16 -3.61315e-16 -0 7.09311e-16 -0 7.09334e-16) (7.09265e-16 -3.61378e-16 -0 7.09259e-16 -0 7.09257e-16) (7.09126e-16 -3.61233e-16 -0 7.09281e-16 -0 7.09126e-16));
    }
}


// ************************************************************************* //
