/*--------------------------------*- C++ -*----------------------------------*\
  =========                 |
  \\      /  F ield         | OpenFOAM: The Open Source CFD Toolbox
   \\    /   O peration     | Website:  https://openfoam.org
    \\  /    A nd           | Version:  dev
     \\/     M anipulation  |

   OpenFOAM for Windows 20.09 (v1)
   Built by CFD Support, www.cfdsupport.com (based on Symscape).
\*---------------------------------------------------------------------------*/
FoamFile
{
    version     2.0;
    format      ascii;
    class       volVectorField;
    location    "6";
    object      U;
}
// * * * * * * * * * * * * * * * * * * * * * * * * * * * * * * * * * * * * * //

dimensions      [0 1 -1 0 0 0 0];

internalField   nonuniform List<vector> 
120
(
(0.0338729 -4.79522e-06 0)
(0.0339016 1.28541e-05 0)
(0.0338957 -1.91459e-05 0)
(0.0338994 -3.44858e-05 0)
(0.0344 -4.74271e-06 0)
(0.0344293 1.26725e-05 0)
(0.0344334 -1.85904e-05 0)
(0.0344213 -3.24851e-05 0)
(0.0350277 -5.63136e-06 0)
(0.035056 1.22405e-05 0)
(0.0350665 -1.89153e-05 0)
(0.0350415 -3.39343e-05 0)
(0.0357671 -5.56217e-06 0)
(0.0357973 1.17697e-05 0)
(0.03581 -1.85886e-05 0)
(0.035775 -3.22285e-05 0)
(0.0366381 -6.25979e-06 0)
(0.0366679 1.17069e-05 0)
(0.0366809 -1.81257e-05 0)
(0.0366375 -3.18e-05 0)
(0.0376528 -6.68925e-06 0)
(0.0376864 1.10156e-05 0)
(0.0376966 -1.81441e-05 0)
(0.0376462 -3.17123e-05 0)
(0.0388358 -7.41347e-06 0)
(0.0388693 1.05579e-05 0)
(0.0388767 -1.77251e-05 0)
(0.0388198 -3.03789e-05 0)
(0.0401981 -7.7237e-06 0)
(0.0402392 1.02013e-05 0)
(0.0402409 -1.72067e-05 0)
(0.0401774 -3.0074e-05 0)
(0.0417717 -8.83553e-06 0)
(0.041814 9.67073e-06 0)
(0.0418113 -1.67823e-05 0)
(0.0417411 -2.88739e-05 0)
(0.0435637 -9.33245e-06 0)
(0.0436196 9.38289e-06 0)
(0.0436101 -1.5993e-05 0)
(0.0435318 -2.82566e-05 0)
(0.0456144 -1.0487e-05 0)
(0.0456743 9.88779e-06 0)
(0.0456611 -1.46936e-05 0)
(0.0455745 -2.70065e-05 0)
(0.0479268 -1.17605e-05 0)
(0.0480068 6.31869e-06 0)
(0.0479876 -1.55682e-05 0)
(0.0478912 -2.66021e-05 0)
(0.0505491 -1.18091e-05 0)
(0.0506344 7.12218e-06 0)
(0.0506157 -1.42165e-05 0)
(0.0505116 -2.64688e-05 0)
(0.0534795 -1.60098e-05 0)
(0.0535856 8.07331e-06 0)
(0.0535666 -1.08074e-05 0)
(0.0534572 -2.17876e-05 0)
(0.0568227 -1.68329e-05 0)
(0.0569126 2.82545e-07 0)
(0.0568961 -1.3439e-05 0)
(0.0567895 -2.4161e-05 0)
(0.0338964 1.76303e-05 0)
(0.0339186 -8.4065e-07 0)
(0.0338983 4.15983e-06 0)
(0.0338446 2.2441e-05 0)
(0.0344115 1.8553e-05 0)
(0.0344478 -2.71799e-07 0)
(0.0344244 5.21788e-06 0)
(0.0343723 2.34017e-05 0)
(0.0350266 1.65084e-05 0)
(0.0350757 -9.24795e-07 0)
(0.0350473 5.24267e-06 0)
(0.0349956 2.21105e-05 0)
(0.035758 1.75308e-05 0)
(0.0358169 -7.87066e-07 0)
(0.0357849 6.40552e-06 0)
(0.0357327 2.32382e-05 0)
(0.0366188 1.63253e-05 0)
(0.0366865 -9.96689e-07 0)
(0.03665 6.73849e-06 0)
(0.0365963 2.28993e-05 0)
(0.0376275 1.58304e-05 0)
(0.037702 -1.52962e-06 0)
(0.0376627 7.55899e-06 0)
(0.0376079 2.23154e-05 0)
(0.0388011 1.53926e-05 0)
(0.0388812 -1.43485e-06 0)
(0.0388389 8.50159e-06 0)
(0.0387816 2.32039e-05 0)
(0.0401597 1.47497e-05 0)
(0.0402445 -2.03164e-06 0)
(0.0402011 9.19778e-06 0)
(0.0401426 2.23594e-05 0)
(0.0417244 1.40748e-05 0)
(0.0418123 -2.03581e-06 0)
(0.0417676 1.02125e-05 0)
(0.0417058 2.30119e-05 0)
(0.0435163 1.34223e-05 0)
(0.043607 -2.64064e-06 0)
(0.043564 1.09525e-05 0)
(0.0435007 2.21659e-05 0)
(0.0455606 1.21246e-05 0)
(0.0456509 -2.74317e-06 0)
(0.04561 1.12727e-05 0)
(0.0455429 2.09688e-05 0)
(0.0478792 1.28247e-05 0)
(0.0479685 -3.38249e-06 0)
(0.0479339 1.40019e-05 0)
(0.0478659 2.50402e-05 0)
(0.0505021 1.09812e-05 0)
(0.050585 -3.51061e-06 0)
(0.0505579 1.40547e-05 0)
(0.0504882 2.26162e-05 0)
(0.053451 9.90863e-06 0)
(0.0535247 -3.95642e-06 0)
(0.0535105 1.30375e-05 0)
(0.0534449 1.85996e-05 0)
(0.056781 1.19765e-05 0)
(0.0568423 -4.89723e-06 0)
(0.0568396 1.50833e-05 0)
(0.0567847 2.41501e-05 0)
)
;

boundaryField
{
    topWall
    {
        type            noSlip;
    }
    botWall
    {
        type            noSlip;
    }
    inlet
    {
        type            cyclic;
    }
    outlet
    {
        type            cyclic;
    }
    fixWall
    {
        type            empty;
    }
    procBoundary3to2
    {
        type            processor;
        value           nonuniform List<vector> 8((0.0334285 -4.43061e-06 0) (0.0334576 1.35636e-05 0) (0.0334346 -1.86376e-05 0) (0.0334609 -3.40138e-05 0) (0.0334706 1.77088e-05 0) (0.0334762 -1.07774e-06 0) (0.0334598 3.34275e-06 0) (0.0334 2.14154e-05 0));
    }
    procBoundary3to4
    {
        type            processor;
        value           nonuniform List<vector> 8((0.0631857 -1.68017e-05 0) (0.0632149 7.20219e-06 0) (0.0632049 -1.00136e-05 0) (0.0631613 -2.16444e-05 0) (0.06312 8.77034e-06 0) (0.0631717 -4.94286e-06 0) (0.0631837 1.38557e-05 0) (0.0631479 1.82615e-05 0));
    }
}


// ************************************************************************* //
