/*--------------------------------*- C++ -*----------------------------------*\
  =========                 |
  \\      /  F ield         | OpenFOAM: The Open Source CFD Toolbox
   \\    /   O peration     | Website:  https://openfoam.org
    \\  /    A nd           | Version:  dev
     \\/     M anipulation  |

   OpenFOAM for Windows 20.09 (v1)
   Built by CFD Support, www.cfdsupport.com (based on Symscape).
\*---------------------------------------------------------------------------*/
FoamFile
{
    version     2.0;
    format      ascii;
    class       volVectorField;
    location    "6";
    object      UMean;
}
// * * * * * * * * * * * * * * * * * * * * * * * * * * * * * * * * * * * * * //

dimensions      [0 1 -1 0 0 0 0];

internalField   nonuniform List<vector> 
120
(
(0.0246138 1.08597e-05 0)
(0.0245939 -1.3762e-05 0)
(0.0245652 -6.19223e-06 0)
(0.0245883 -1.21117e-06 0)
(0.0249313 1.12161e-05 0)
(0.0249078 -1.34666e-05 0)
(0.0248756 -6.03869e-06 0)
(0.0248941 -1.19911e-06 0)
(0.025319 1.10136e-05 0)
(0.0252919 -1.27055e-05 0)
(0.0252565 -5.99066e-06 0)
(0.0252726 -1.5882e-06 0)
(0.0257901 1.10498e-05 0)
(0.0257596 -1.24037e-05 0)
(0.0257213 -5.84042e-06 0)
(0.0257361 -1.85527e-06 0)
(0.0263592 1.07905e-05 0)
(0.026326 -1.13696e-05 0)
(0.0262855 -5.62324e-06 0)
(0.0262998 -1.74715e-06 0)
(0.0270433 1.09856e-05 0)
(0.0270083 -1.10508e-05 0)
(0.0269657 -5.4245e-06 0)
(0.0269795 -2.4543e-06 0)
(0.0278616 1.0468e-05 0)
(0.0278249 -1.01189e-05 0)
(0.0277808 -5.33256e-06 0)
(0.0277945 -2.30527e-06 0)
(0.0288335 1.09287e-05 0)
(0.0287971 -9.63126e-06 0)
(0.0287514 -4.89946e-06 0)
(0.0287644 -2.88699e-06 0)
(0.0299839 1.00623e-05 0)
(0.0299468 -8.68631e-06 0)
(0.0299002 -4.92283e-06 0)
(0.0299125 -2.88492e-06 0)
(0.0313342 1.08615e-05 0)
(0.0312988 -8.21351e-06 0)
(0.0312518 -4.35387e-06 0)
(0.031262 -3.37316e-06 0)
(0.0329149 9.55564e-06 0)
(0.0328784 -6.90266e-06 0)
(0.0328318 -4.22009e-06 0)
(0.0328405 -3.42249e-06 0)
(0.0347484 1.088e-05 0)
(0.0347137 -7.33773e-06 0)
(0.0346684 -4.05629e-06 0)
(0.0346737 -3.93077e-06 0)
(0.0368724 9.36414e-06 0)
(0.0368339 -5.77919e-06 0)
(0.0367895 -4.04311e-06 0)
(0.0367939 -4.28274e-06 0)
(0.039307 1.07874e-05 0)
(0.0392684 -4.66437e-06 0)
(0.0392244 -2.59542e-06 0)
(0.0392271 -3.67152e-06 0)
(0.0421137 1.07044e-05 0)
(0.0420667 -4.73588e-06 0)
(0.0420185 -3.81746e-06 0)
(0.0420243 -4.36217e-06 0)
(0.0246014 1.19637e-05 0)
(0.0246137 -5.68125e-06 0)
(0.0246101 -1.40166e-05 0)
(0.024595 1.76392e-05 0)
(0.0249088 1.20484e-05 0)
(0.0249299 -5.60766e-06 0)
(0.0249185 -1.3802e-05 0)
(0.0249031 1.76404e-05 0)
(0.0252883 1.12205e-05 0)
(0.0253153 -5.96857e-06 0)
(0.0252981 -1.37041e-05 0)
(0.0252826 1.73097e-05 0)
(0.0257533 1.11926e-05 0)
(0.0257847 -5.74706e-06 0)
(0.0257631 -1.31441e-05 0)
(0.0257482 1.70272e-05 0)
(0.0263179 1.04673e-05 0)
(0.0263523 -6.15937e-06 0)
(0.0263272 -1.3071e-05 0)
(0.0263125 1.6981e-05 0)
(0.026999 1.01234e-05 0)
(0.0270358 -5.97329e-06 0)
(0.0270084 -1.25418e-05 0)
(0.026994 1.62095e-05 0)
(0.0278149 9.50006e-06 0)
(0.0278533 -6.24141e-06 0)
(0.0278237 -1.21888e-05 0)
(0.027809 1.63009e-05 0)
(0.0287864 9.15857e-06 0)
(0.0288262 -6.19253e-06 0)
(0.0287954 -1.1744e-05 0)
(0.0287807 1.54545e-05 0)
(0.0299358 8.3864e-06 0)
(0.0299766 -6.22896e-06 0)
(0.0299439 -1.13319e-05 0)
(0.0299284 1.55629e-05 0)
(0.031287 8.06247e-06 0)
(0.0313293 -6.56682e-06 0)
(0.0312963 -1.09428e-05 0)
(0.0312806 1.46413e-05 0)
(0.0328662 7.11956e-06 0)
(0.0329092 -6.01877e-06 0)
(0.0328749 -1.04529e-05 0)
(0.0328587 1.43738e-05 0)
(0.0347 7.05797e-06 0)
(0.0347446 -7.04099e-06 0)
(0.0347115 -9.84911e-06 0)
(0.0346961 1.46717e-05 0)
(0.0368184 5.99733e-06 0)
(0.0368629 -6.12512e-06 0)
(0.03683 -9.45998e-06 0)
(0.0368169 1.40535e-05 0)
(0.0392493 5.46946e-06 0)
(0.0392936 -7.0428e-06 0)
(0.0392658 -9.06761e-06 0)
(0.0392602 1.26071e-05 0)
(0.0420392 5.27042e-06 0)
(0.0420857 -6.61684e-06 0)
(0.0420556 -8.95353e-06 0)
(0.0420548 1.47936e-05 0)
)
;

boundaryField
{
    topWall
    {
        type            calculated;
        value           nonuniform List<vector> 0();
    }
    botWall
    {
        type            calculated;
        value           nonuniform List<vector> 0();
    }
    inlet
    {
        type            cyclic;
    }
    outlet
    {
        type            cyclic;
    }
    fixWall
    {
        type            empty;
    }
    procBoundary3to2
    {
        type            processor;
        value           nonuniform List<vector> 8((0.0243544 1.10423e-05 0) (0.0243351 -1.40871e-05 0) (0.0243079 -5.9647e-06 0) (0.024341 -7.06828e-07 0) (0.0243565 1.20796e-05 0) (0.0243568 -5.82886e-06 0) (0.0243621 -1.44125e-05 0) (0.0243482 1.76818e-05 0));
    }
    procBoundary3to4
    {
        type            processor;
        value           nonuniform List<vector> 8((0.0475169 9.60216e-06 0) (0.0474784 -3.38903e-06 0) (0.0474053 -2.50218e-06 0) (0.0474287 -4.18073e-06 0) (0.0474271 4.55117e-06 0) (0.047477 -6.98474e-06 0) (0.0474535 -8.54934e-06 0) (0.0474544 1.20646e-05 0));
    }
}


// ************************************************************************* //
