/*--------------------------------*- C++ -*----------------------------------*\
  =========                 |
  \\      /  F ield         | OpenFOAM: The Open Source CFD Toolbox
   \\    /   O peration     | Website:  https://openfoam.org
    \\  /    A nd           | Version:  dev
     \\/     M anipulation  |

   OpenFOAM for Windows 20.09 (v1)
   Built by CFD Support, www.cfdsupport.com (based on Symscape).
\*---------------------------------------------------------------------------*/
FoamFile
{
    version     2.0;
    format      ascii;
    class       volSymmTensorField;
    location    "6";
    object      UPrime2Mean;
}
// * * * * * * * * * * * * * * * * * * * * * * * * * * * * * * * * * * * * * //

dimensions      [0 2 -2 0 0 0 0];

internalField   nonuniform List<symmTensor> 
120
(
(3.80261e-05 -5.2611e-09 0 2.52293e-10 0 0)
(3.82497e-05 8.00303e-08 0 2.30346e-10 0 0)
(3.82436e-05 -3.67609e-08 0 5.52006e-11 0 0)
(3.81431e-05 -1.09283e-07 0 3.67321e-10 0 0)
(3.9757e-05 -6.23793e-09 0 2.56212e-10 0 0)
(4.00181e-05 8.14024e-08 0 2.22159e-10 0 0)
(4.00829e-05 -3.56513e-08 0 5.23029e-11 0 0)
(3.98897e-05 -1.05877e-07 0 3.25982e-10 0 0)
(4.17943e-05 -8.34663e-09 0 2.65242e-10 0 0)
(4.20772e-05 8.07488e-08 0 2.02541e-10 0 0)
(4.21907e-05 -3.69688e-08 0 5.59685e-11 0 0)
(4.19168e-05 -1.11639e-07 0 3.47444e-10 0 0)
(4.4151e-05 -9.85437e-09 0 2.54174e-10 0 0)
(4.44692e-05 8.17157e-08 0 1.90665e-10 0 0)
(4.46056e-05 -3.70042e-08 0 5.48461e-11 0 0)
(4.42613e-05 -1.08206e-07 0 3.07094e-10 0 0)
(4.68812e-05 -1.10982e-08 0 2.62511e-10 0 0)
(4.72175e-05 8.17255e-08 0 1.74508e-10 0 0)
(4.73642e-05 -3.62068e-08 0 5.38106e-11 0 0)
(4.69562e-05 -1.10327e-07 0 3.00751e-10 0 0)
(4.99877e-05 -1.50446e-08 0 2.59039e-10 0 0)
(5.03634e-05 8.25998e-08 0 1.6101e-10 0 0)
(5.05002e-05 -3.71675e-08 0 5.65796e-11 0 0)
(5.00332e-05 -1.10959e-07 0 2.85223e-10 0 0)
(5.35322e-05 -1.56918e-08 0 2.64934e-10 0 0)
(5.39249e-05 8.12666e-08 0 1.42454e-10 0 0)
(5.40489e-05 -3.65455e-08 0 5.468e-11 0 0)
(5.35237e-05 -1.10663e-07 0 2.63423e-10 0 0)
(5.7492e-05 -2.06015e-08 0 2.6371e-10 0 0)
(5.79416e-05 8.35262e-08 0 1.3406e-10 0 0)
(5.80331e-05 -3.58574e-08 0 5.60154e-11 0 0)
(5.74481e-05 -1.11254e-07 0 2.47433e-10 0 0)
(6.19467e-05 -2.14961e-08 0 2.70766e-10 0 0)
(6.24189e-05 8.15088e-08 0 1.1642e-10 0 0)
(6.24794e-05 -3.52039e-08 0 5.27574e-11 0 0)
(6.18321e-05 -1.10827e-07 0 2.26838e-10 0 0)
(6.68193e-05 -2.89621e-08 0 2.7739e-10 0 0)
(6.73913e-05 8.53156e-08 0 1.12859e-10 0 0)
(6.73979e-05 -3.30924e-08 0 5.45787e-11 0 0)
(6.66746e-05 -1.11345e-07 0 2.09542e-10 0 0)
(7.22173e-05 -2.83985e-08 0 2.79949e-10 0 0)
(7.28344e-05 8.44343e-08 0 1.02507e-10 0 0)
(7.28001e-05 -3.01802e-08 0 4.51197e-11 0 0)
(7.19866e-05 -1.09558e-07 0 1.88206e-10 0 0)
(7.79896e-05 -4.1422e-08 0 3.10172e-10 0 0)
(7.87667e-05 8.06559e-08 0 8.25928e-11 0 0)
(7.86682e-05 -3.15342e-08 0 5.9068e-11 0 0)
(7.77441e-05 -1.12152e-07 0 1.77463e-10 0 0)
(8.42745e-05 -3.59789e-08 0 2.8998e-10 0 0)
(8.51158e-05 7.93296e-08 0 7.39386e-11 0 0)
(8.4999e-05 -2.78384e-08 0 4.76609e-11 0 0)
(8.39383e-05 -1.12046e-07 0 1.67569e-10 0 0)
(9.08433e-05 -6.15205e-08 0 3.83751e-10 0 0)
(9.18724e-05 8.88167e-08 0 8.73036e-11 0 0)
(9.17299e-05 -1.51944e-08 0 4.33897e-11 0 0)
(9.05238e-05 -1.00945e-07 0 1.1859e-10 0 0)
(9.81496e-05 -6.06347e-08 0 4.2809e-10 0 0)
(9.90691e-05 5.90606e-08 0 5.24639e-11 0 0)
(9.90093e-05 -2.19152e-08 0 5.25155e-11 0 0)
(9.76963e-05 -1.10152e-07 0 1.35957e-10 0 0)
(3.80641e-05 1.3344e-08 0 1.18722e-11 0 0)
(3.82514e-05 -1.02036e-08 0 6.87307e-11 0 0)
(3.82054e-05 3.79252e-08 0 1.35741e-10 0 0)
(3.78989e-05 2.42921e-08 0 1.71222e-11 0 0)
(3.97565e-05 1.54604e-08 0 1.58226e-11 0 0)
(4.00031e-05 -9.90539e-09 0 7.54022e-11 0 0)
(3.9955e-05 4.12786e-08 0 1.46578e-10 0 0)
(3.96467e-05 2.77641e-08 0 2.03722e-11 0 0)
(4.17444e-05 1.07397e-08 0 1.23928e-11 0 0)
(4.20523e-05 -1.20654e-08 0 7.93883e-11 0 0)
(4.19877e-05 4.25246e-08 0 1.44433e-10 0 0)
(4.16742e-05 2.54055e-08 0 1.7034e-11 0 0)
(4.40667e-05 1.4177e-08 0 1.66591e-11 0 0)
(4.44264e-05 -1.28654e-08 0 8.00603e-11 0 0)
(4.43485e-05 4.60763e-08 0 1.50808e-10 0 0)
(4.40248e-05 3.02049e-08 0 2.12269e-11 0 0)
(4.67462e-05 1.1162e-08 0 1.69956e-11 0 0)
(4.71598e-05 -1.39652e-08 0 8.74821e-11 0 0)
(4.70586e-05 4.84723e-08 0 1.53712e-10 0 0)
(4.672e-05 2.99207e-08 0 1.9711e-11 0 0)
(4.98177e-05 1.06027e-08 0 1.69394e-11 0 0)
(5.02805e-05 -1.72212e-08 0 8.6524e-11 0 0)
(5.01613e-05 5.18122e-08 0 1.55306e-10 0 0)
(4.98088e-05 3.11107e-08 0 1.97684e-11 0 0)
(5.33045e-05 9.84442e-09 0 2.02116e-11 0 0)
(5.38175e-05 -1.74115e-08 0 9.15721e-11 0 0)
(5.36743e-05 5.57239e-08 0 1.62912e-10 0 0)
(5.3299e-05 3.417e-08 0 2.19276e-11 0 0)
(5.72319e-05 8.48237e-09 0 1.99568e-11 0 0)
(5.77938e-05 -2.14793e-08 0 9.41364e-11 0 0)
(5.76337e-05 5.96361e-08 0 1.63754e-10 0 0)
(5.7243e-05 3.52137e-08 0 2.16708e-11 0 0)
(6.16224e-05 6.76346e-09 0 2.42757e-11 0 0)
(6.22282e-05 -2.20296e-08 0 9.30148e-11 0 0)
(6.20489e-05 6.39968e-08 0 1.72253e-10 0 0)
(6.16263e-05 3.73779e-08 0 2.27839e-11 0 0)
(6.6479e-05 5.0151e-09 0 2.42119e-11 0 0)
(6.7129e-05 -2.68712e-08 0 1.04896e-10 0 0)
(6.69422e-05 6.91155e-08 0 1.74278e-10 0 0)
(6.64986e-05 3.92419e-08 0 2.32755e-11 0 0)
(7.18162e-05 1.04121e-09 0 2.79532e-11 0 0)
(7.24985e-05 -2.7586e-08 0 8.93984e-11 0 0)
(7.23104e-05 7.12659e-08 0 1.71289e-10 0 0)
(7.18218e-05 3.51485e-08 0 1.73808e-11 0 0)
(7.76102e-05 2.45482e-09 0 3.42397e-11 0 0)
(7.8325e-05 -3.38148e-08 0 1.18675e-10 0 0)
(7.81514e-05 8.42486e-08 0 2.00638e-10 0 0)
(7.76302e-05 5.33386e-08 0 3.87178e-11 0 0)
(8.38677e-05 -4.57932e-09 0 3.92034e-11 0 0)
(8.45822e-05 -3.40742e-08 0 9.17633e-11 0 0)
(8.4458e-05 8.62077e-08 0 1.9492e-10 0 0)
(8.38784e-05 4.49904e-08 0 2.5916e-11 0 0)
(9.05132e-05 -8.09122e-09 0 3.91752e-11 0 0)
(9.12408e-05 -4.04193e-08 0 1.20909e-10 0 0)
(9.11854e-05 8.5717e-08 0 1.69869e-10 0 0)
(9.05622e-05 3.6548e-08 0 1.48337e-11 0 0)
(9.77425e-05 -3.04838e-09 0 6.03382e-11 0 0)
(9.84153e-05 -4.48679e-08 0 1.03122e-10 0 0)
(9.84682e-05 9.79702e-08 0 1.99099e-10 0 0)
(9.78501e-05 5.41427e-08 0 3.16529e-11 0 0)
)
;

boundaryField
{
    topWall
    {
        type            calculated;
        value           nonuniform List<symmTensor> 0();
    }
    botWall
    {
        type            calculated;
        value           nonuniform List<symmTensor> 0();
    }
    inlet
    {
        type            cyclic;
    }
    outlet
    {
        type            cyclic;
    }
    fixWall
    {
        type            empty;
    }
    procBoundary3to2
    {
        type            processor;
        value           nonuniform List<symmTensor> 8((3.65583e-05 -4.29767e-09 0 2.52516e-10 0 0) (3.67468e-05 8.12302e-08 0 2.48636e-10 0 0) (3.66215e-05 -3.49351e-08 0 5.29613e-11 0 0) (3.6646e-05 -1.07174e-07 0 3.68047e-10 0 0) (3.66414e-05 1.28491e-08 0 1.18261e-11 0 0) (3.67634e-05 -1.02771e-08 0 6.83724e-11 0 0) (3.67158e-05 3.57269e-08 0 1.3124e-10 0 0) (3.63856e-05 2.0952e-08 0 1.47187e-11 0 0));
    }
    procBoundary3to4
    {
        type            processor;
        value           nonuniform List<symmTensor> 8((0.000111636 -6.68752e-08 0 3.70425e-10 0 0) (0.000112048 8.8286e-08 0 7.33395e-11 0 0) (0.000112361 -1.17147e-08 0 4.14806e-11 0 0) (0.000111475 -1.07116e-07 0 1.09362e-10 0 0) (0.000111147 -1.43923e-08 0 4.72963e-11 0 0) (0.000111826 -4.86822e-08 0 1.114e-10 0 0) (0.000111977 9.80443e-08 0 1.7188e-10 0 0) (0.000111438 3.93398e-08 0 1.4386e-11 0 0));
    }
}


// ************************************************************************* //
