/*--------------------------------*- C++ -*----------------------------------*\
  =========                 |
  \\      /  F ield         | OpenFOAM: The Open Source CFD Toolbox
   \\    /   O peration     | Website:  https://openfoam.org
    \\  /    A nd           | Version:  dev
     \\/     M anipulation  |

   OpenFOAM for Windows 20.09 (v1)
   Built by CFD Support, www.cfdsupport.com (based on Symscape).
\*---------------------------------------------------------------------------*/
FoamFile
{
    version     2.0;
    format      ascii;
    class       surfaceScalarField;
    location    "2";
    object      alphaPhi0.water;
}
// * * * * * * * * * * * * * * * * * * * * * * * * * * * * * * * * * * * * * //

dimensions      [0 3 -1 0 0 0 0];

internalField   nonuniform List<scalar> 
217
(
1.3042e-100
1.65326e-103
4.95404e-100
1.35881e-105
5.11286e-100
-3.81934e-105
8.62677e-107
5.93699e-100
1.67984e-103
2.32364e-106
6.40671e-103
2.02796e-108
6.18476e-103
-4.40513e-108
1.35613e-108
1.575e-103
1.96607e-106
2.87426e-109
6.94538e-106
2.09864e-111
7.43815e-106
-4.92299e-111
1.33732e-112
2.308e-106
2.18359e-109
3.19867e-112
7.27717e-109
2.20531e-114
8.88487e-109
-5.21012e-114
2.28861e-116
3.91453e-109
2.32223e-112
3.2666e-115
7.2914e-112
2.1077e-117
1.02965e-111
-5.82429e-117
-2.54845e-118
6.68522e-112
2.3946e-115
3.04783e-118
6.94634e-115
1.8061e-120
1.27051e-114
-6.24708e-120
-6.56279e-121
9.42245e-115
2.39651e-118
2.59427e-121
6.62691e-118
7.98261e-123
1.48958e-117
-6.39377e-123
-1.21892e-123
1.18037e-117
2.34157e-121
1.98028e-124
6.48226e-121
1.32945e-126
1.6912e-120
-6.24254e-126
-1.90437e-126
1.4123e-120
2.24959e-124
1.33245e-127
6.12444e-124
1.10201e-129
1.8516e-123
-5.75693e-129
-2.64627e-129
1.64299e-123
2.13586e-127
7.80148e-131
5.796e-127
1.51939e-132
1.96737e-126
-5.05296e-132
-3.37176e-132
1.88368e-126
2.03186e-130
4.08425e-134
5.45395e-130
8.17182e-136
2.016e-129
-4.12522e-135
-3.91455e-135
2.05883e-129
1.93087e-133
2.3293e-137
5.10073e-133
6.82391e-139
2.02897e-132
-3.17431e-138
-4.11533e-138
2.03902e-132
1.85162e-136
1.3605e-140
4.7475e-136
5.63188e-142
1.89932e-135
-2.21539e-141
-3.90196e-141
1.91309e-135
1.74696e-139
3.05525e-143
4.35968e-139
4.60727e-145
1.66735e-138
-1.43227e-144
-3.3738e-144
1.6803e-138
1.70065e-142
3.99761e-142
1.37229e-141
1.38122e-141
1.07286e-98
1.25371e-101
4.45778e-99
2.04218e-105
9.74489e-100
-9.8704e-105
-4.09519e-105
1.28591e-101
1.44178e-104
5.22145e-102
5.38848e-108
1.20875e-102
-1.11483e-107
-4.89649e-108
1.47203e-104
1.54255e-107
6.10216e-105
9.5567e-111
1.35334e-105
-1.20734e-110
-5.63431e-111
1.59477e-107
1.51833e-110
6.81361e-108
1.37624e-113
1.49097e-108
-1.23527e-113
-6.15779e-114
1.613e-110
1.34594e-113
7.18969e-111
1.68648e-116
1.60642e-111
-1.17053e-116
-6.20847e-117
1.48757e-113
1.04098e-116
7.03682e-114
1.77292e-119
1.67039e-114
-1.02033e-119
-5.73873e-120
1.22895e-116
6.27317e-120
6.32753e-117
1.5939e-122
1.68515e-117
-8.25219e-123
-4.88819e-123
8.62034e-120
2.81165e-123
4.90296e-120
1.2374e-125
1.7358e-120
-6.27374e-126
-3.8747e-126
5.35941e-123
8.19903e-127
3.69011e-123
8.60338e-129
1.88948e-123
-4.58582e-129
-2.95417e-129
3.05878e-126
2.77404e-132
2.84647e-126
1.03994e-130
1.5424e-126
-3.06133e-132
-2.22745e-132
1.87568e-129
7.56615e-135
1.97925e-129
2.42811e-133
1.18727e-129
-2.08995e-135
-1.71185e-135
1.08599e-132
1.01579e-138
1.31256e-132
1.52591e-136
9.4417e-133
-1.5239e-138
-1.30652e-138
9.25366e-136
3.51514e-143
8.62574e-136
8.51659e-140
7.74203e-136
-1.13579e-141
-9.8099e-142
7.75768e-139
-3.85173e-145
5.80715e-139
2.2104e-143
6.36775e-139
-8.46906e-145
-7.16851e-145
6.31452e-142
4.23582e-142
5.11321e-142
)
;

boundaryField
{
    topWall
    {
        type            calculated;
        value           nonuniform List<scalar> 0();
    }
    botWall
    {
        type            calculated;
        value           nonuniform List<scalar> 0();
    }
    inlet
    {
        type            cyclic;
        value           nonuniform List<scalar> 
15
(
-7.27409e-100
-6.81254e-103
-7.78344e-106
-8.62463e-109
-9.1624e-112
-9.10633e-115
-8.3589e-118
-7.04801e-121
-5.53199e-124
-4.18995e-127
-3.21632e-130
-2.58483e-133
-2.33224e-136
-2.16304e-139
-1.86623e-142
)
;
    }
    outlet
    {
        type            cyclic;
        value           nonuniform List<scalar> 
15
(
7.27409e-100
6.81254e-103
7.78344e-106
8.62463e-109
9.1624e-112
9.10633e-115
8.3589e-118
7.04801e-121
5.53199e-124
4.18995e-127
3.21632e-130
2.58483e-133
2.33224e-136
2.16304e-139
1.86623e-142
)
;
    }
    fixWall
    {
        type            empty;
        value           nonuniform List<scalar> 0();
    }
    procBoundary6to5
    {
        type            processor;
        value           nonuniform List<scalar> 8(-6.55584e-100 -1.38064e-102 2.873e-102 -1.92845e-100 -1.01423e-98 -3.85055e-104 8.10542e-102 2.92016e-102);
    }
    procBoundary6to7
    {
        type            processor;
        value           nonuniform List<scalar> 8(2.9584e-145 6.77331e-147 -4.11814e-149 -7.43486e-149 -1.00041e-149 3.30971e-145 -4.09645e-148 -3.23915e-148);
    }
}


// ************************************************************************* //
