/*--------------------------------*- C++ -*----------------------------------*\
  =========                 |
  \\      /  F ield         | OpenFOAM: The Open Source CFD Toolbox
   \\    /   O peration     | Website:  https://openfoam.org
    \\  /    A nd           | Version:  dev
     \\/     M anipulation  |

   OpenFOAM for Windows 20.09 (v1)
   Built by CFD Support, www.cfdsupport.com (based on Symscape).
\*---------------------------------------------------------------------------*/
FoamFile
{
    version     2.0;
    format      ascii;
    class       volSymmTensorField;
    location    "2";
    object      devReff;
}
// * * * * * * * * * * * * * * * * * * * * * * * * * * * * * * * * * * * * * //

dimensions      [0 2 -2 0 0 0 0];

internalField   nonuniform List<symmTensor> 
120
(
(1.69644e-07 2.59171e-06 -0 -1.60159e-07 -0 -9.48562e-09)
(-7.34214e-08 -1.25415e-06 -0 2.72795e-07 -0 -1.99374e-07)
(-1.6465e-07 2.49033e-06 -0 2.64031e-07 -0 -9.93818e-08)
(-1.11821e-07 4.58542e-06 -0 1.72266e-07 -0 -6.04445e-08)
(1.63326e-07 4.02836e-06 -0 -1.82142e-07 -0 1.88161e-08)
(2.45955e-07 -3.19523e-07 -0 -3.54735e-07 -0 1.0878e-07)
(9.92637e-08 2.13842e-06 -0 -1.77507e-07 -0 7.8243e-08)
(-1.38322e-07 4.32413e-06 -0 1.57288e-07 -0 -1.89662e-08)
(1.19079e-08 6.47709e-06 -0 4.18612e-08 -0 -5.37691e-08)
(8.89281e-08 1.23895e-06 -0 -1.15739e-07 -0 2.68106e-08)
(8.13676e-08 2.6137e-06 -0 -7.13218e-08 -0 -1.00458e-08)
(-1.19117e-07 4.49009e-06 -0 1.11494e-07 -0 7.62309e-09)
(7.18011e-09 8.1975e-06 -0 3.37916e-09 -0 -1.05593e-08)
(-7.67293e-08 3.44518e-06 -0 1.60766e-07 -0 -8.40368e-08)
(1.17469e-07 4.14864e-06 -0 -1.03588e-07 -0 -1.38813e-08)
(-2.12482e-07 5.64888e-06 -0 2.61557e-07 -0 -4.90746e-08)
(-4.82394e-08 9.55087e-06 -0 6.53564e-08 -0 -1.71171e-08)
(6.7984e-08 5.90275e-06 -0 -2.0979e-07 -0 1.41806e-07)
(2.48174e-07 6.29088e-06 -0 -3.29645e-07 -0 8.14717e-08)
(-1.56041e-07 7.60347e-06 -0 1.52987e-07 -0 3.05392e-09)
(-5.78034e-08 1.21732e-05 -0 8.13821e-08 -0 -2.35787e-08)
(-1.33748e-07 9.78971e-06 -0 1.65009e-07 -0 -3.12616e-08)
(1.57042e-07 1.00433e-05 -0 -1.24304e-07 -0 -3.27381e-08)
(-1.90647e-07 1.08361e-05 -0 1.93431e-07 -0 -2.78408e-09)
(-1.3843e-08 1.61903e-05 -0 -9.06952e-09 -0 2.29125e-08)
(-1.65164e-07 1.43864e-05 -0 1.84318e-07 -0 -1.91536e-08)
(2.04969e-07 1.44625e-05 -0 -2.06833e-07 -0 1.86437e-09)
(-2.04746e-07 1.5177e-05 -0 2.20819e-07 -0 -1.60735e-08)
(-6.4923e-08 2.2448e-05 -0 1.06771e-07 -0 -4.18478e-08)
(-1.30085e-07 2.16369e-05 -0 9.90301e-08 -0 3.10549e-08)
(2.27908e-07 2.1652e-05 -0 -2.38125e-07 -0 1.0217e-08)
(-2.10284e-07 2.18226e-05 -0 2.22236e-07 -0 -1.19516e-08)
(3.04721e-08 3.17578e-05 -0 -4.79563e-08 -0 1.74842e-08)
(-1.79359e-07 3.12483e-05 -0 1.85063e-07 -0 -5.70446e-09)
(2.17595e-07 3.11883e-05 -0 -2.24593e-07 -0 6.99798e-09)
(-2.09417e-07 3.12823e-05 -0 2.19635e-07 -0 -1.02181e-08)
(2.28373e-08 4.50741e-05 -0 5.51565e-09 -0 -2.8353e-08)
(-1.66251e-07 4.52418e-05 -0 1.51335e-07 -0 1.49166e-08)
(2.22097e-07 4.51905e-05 -0 -2.24115e-07 -0 2.01847e-09)
(-2.03692e-07 4.49005e-05 -0 2.18721e-07 -0 -1.50292e-08)
(9.83294e-08 6.40954e-05 -0 -9.59536e-08 -0 -2.37571e-09)
(-1.58627e-07 6.43687e-05 -0 1.46472e-07 -0 1.21545e-08)
(2.15686e-07 6.43287e-05 -0 -2.31076e-07 -0 1.53903e-08)
(-1.90865e-07 6.39062e-05 -0 1.99612e-07 -0 -8.74703e-09)
(6.30559e-08 9.01534e-05 -0 -3.7558e-08 -0 -2.5498e-08)
(-1.56677e-07 9.06831e-05 -0 1.39007e-07 -0 1.76702e-08)
(2.07399e-07 9.06277e-05 -0 -2.09139e-07 -0 1.74038e-09)
(-1.6707e-07 9.00004e-05 -0 1.78767e-07 -0 -1.16967e-08)
(8.88769e-08 0.000125673 -0 -7.24373e-08 -0 -1.64395e-08)
(-1.61957e-07 0.000126091 -0 1.68042e-07 -0 -6.08502e-09)
(1.85339e-07 0.000126072 -0 -1.92287e-07 -0 6.94783e-09)
(-1.34994e-07 0.000125356 -0 1.3613e-07 -0 -1.13567e-09)
(6.31303e-08 0.000172991 -0 -8.97918e-08 -0 2.66616e-08)
(-1.5772e-07 0.000173289 -0 1.53515e-07 -0 4.20447e-09)
(2.07152e-07 0.000173266 -0 -2.32374e-07 -0 2.52225e-08)
(-1.03696e-07 0.000172418 -0 1.20638e-07 -0 -1.69417e-08)
(-2.63652e-09 0.000235617 -0 3.05542e-08 -0 -2.79177e-08)
(-1.39737e-07 0.000235111 -0 1.31994e-07 -0 7.74301e-09)
(1.36723e-07 0.000235066 -0 -1.23422e-07 -0 -1.33006e-08)
(-6.57679e-08 0.000234559 -0 8.62533e-08 -0 -2.04854e-08)
(-2.18834e-07 -1.21208e-06 -0 3.43745e-07 -0 -1.24911e-07)
(2.38058e-07 -1.3369e-06 -0 -2.21288e-07 -0 -1.67703e-08)
(-1.30742e-07 -2.75991e-08 -0 2.41544e-07 -0 -1.10802e-07)
(-3.98394e-07 1.87218e-06 -0 4.67383e-07 -0 -6.89894e-08)
(-2.32013e-07 -1.23618e-07 -0 2.60134e-07 -0 -2.81208e-08)
(2.26935e-07 -4.51731e-07 -0 -1.91006e-07 -0 -3.59291e-08)
(7.63578e-08 5.19754e-07 -0 -1.14354e-07 -0 3.79961e-08)
(-2.76971e-07 3.02654e-06 -0 2.73258e-07 -0 3.71283e-09)
(-1.70288e-07 1.28603e-06 -0 8.53645e-08 -0 8.49236e-08)
(2.90888e-07 1.11103e-06 -0 -3.0614e-07 -0 1.52515e-08)
(1.36257e-07 1.44592e-06 -0 -1.74392e-07 -0 3.81353e-08)
(-1.79374e-07 4.98641e-06 -0 1.47734e-07 -0 3.16403e-08)
(-4.12244e-07 3.17126e-06 -0 5.0574e-07 -0 -9.34961e-08)
(2.33873e-07 2.8629e-06 -0 -2.00182e-07 -0 -3.3691e-08)
(1.65882e-07 2.74498e-06 -0 -1.62107e-07 -0 -3.77521e-09)
(-1.81506e-07 6.29551e-06 -0 2.51548e-07 -0 -7.00416e-08)
(-3.02881e-07 5.54658e-06 -0 2.55666e-07 -0 4.72143e-08)
(2.51847e-07 5.3889e-06 -0 -2.43144e-07 -0 -8.70305e-09)
(2.86584e-07 4.93683e-06 -0 -3.58652e-07 -0 7.20686e-08)
(9.72617e-09 7.40832e-06 -0 -4.70858e-08 -0 3.73597e-08)
(-3.87532e-07 9.14183e-06 -0 3.80678e-07 -0 6.85369e-09)
(2.49765e-07 8.927e-06 -0 -2.53188e-07 -0 3.42299e-09)
(2.24916e-07 8.14453e-06 -0 -2.11002e-07 -0 -1.39139e-08)
(4.41264e-08 9.91345e-06 -0 -4.4245e-08 -0 1.18601e-10)
(-4.13044e-07 1.4134e-05 -0 4.10689e-07 -0 2.35487e-09)
(2.09654e-07 1.40349e-05 -0 -1.93027e-07 -0 -1.66274e-08)
(2.59635e-07 1.28494e-05 -0 -2.70221e-07 -0 1.05853e-08)
(1.12193e-07 1.40027e-05 -0 -1.15984e-07 -0 3.79153e-09)
(-4.3613e-07 2.13184e-05 -0 4.38274e-07 -0 -2.14407e-09)
(1.93872e-07 2.11577e-05 -0 -1.85306e-07 -0 -8.56577e-09)
(2.50869e-07 1.93382e-05 -0 -2.62368e-07 -0 1.14986e-08)
(1.58075e-07 2.01029e-05 -0 -1.59116e-07 -0 1.04056e-09)
(-4.33313e-07 3.14592e-05 -0 4.27759e-07 -0 5.55398e-09)
(1.47819e-07 3.1385e-05 -0 -1.3652e-07 -0 -1.12991e-08)
(2.26227e-07 2.85165e-05 -0 -2.37172e-07 -0 1.09451e-08)
(2.1816e-07 2.89779e-05 -0 -2.22584e-07 -0 4.42437e-09)
(-4.3184e-07 4.56818e-05 -0 4.31976e-07 -0 -1.35853e-10)
(9.25556e-08 4.54918e-05 -0 -8.19638e-08 -0 -1.05918e-08)
(1.72022e-07 4.22842e-05 -0 -1.83608e-07 -0 1.15864e-08)
(2.67917e-07 4.25714e-05 -0 -2.69151e-07 -0 1.23395e-09)
(-4.13977e-07 6.53049e-05 -0 4.07859e-07 -0 6.11787e-09)
(3.73973e-08 6.51226e-05 -0 -3.01576e-08 -0 -7.23972e-09)
(1.34605e-07 6.28992e-05 -0 -1.50116e-07 -0 1.55109e-08)
(3.11431e-07 6.32095e-05 -0 -3.146e-07 -0 3.16882e-09)
(-3.92816e-07 9.20518e-05 -0 3.93692e-07 -0 -8.75833e-10)
(1.06917e-08 9.15686e-05 -0 3.46006e-10 -0 -1.10377e-08)
(1.06163e-07 8.99467e-05 -0 -1.146e-07 -0 8.43604e-09)
(3.08916e-07 9.05079e-05 -0 -3.09841e-07 -0 9.24802e-10)
(-3.59268e-07 0.000128106 -0 3.50112e-07 -0 9.15523e-09)
(-2.49922e-08 0.000127278 -0 2.32411e-08 -0 1.75114e-09)
(1.05431e-07 0.000126517 -0 -1.26147e-07 -0 2.07159e-08)
(3.0619e-07 0.000127618 -0 -2.95905e-07 -0 -1.02844e-08)
(-3.32005e-07 0.000175899 -0 3.35646e-07 -0 -3.64049e-09)
(-5.04967e-08 0.000175853 -0 6.8588e-08 -0 -1.80913e-08)
(1.17758e-07 0.000175071 -0 -1.2555e-07 -0 7.79148e-09)
(2.87881e-07 0.000175655 -0 -2.94678e-07 -0 6.79698e-09)
(-2.6685e-07 0.000239129 -0 2.79449e-07 -0 -1.25989e-08)
(-7.99399e-08 0.000240835 -0 1.04384e-07 -0 -2.44441e-08)
(6.54377e-08 0.000238475 -0 -5.19293e-08 -0 -1.35084e-08)
(2.56702e-07 0.000237827 -0 -2.65146e-07 -0 8.4435e-09)
)
;

boundaryField
{
    topWall
    {
        type            calculated;
        value           nonuniform List<symmTensor> 0();
    }
    botWall
    {
        type            calculated;
        value           nonuniform List<symmTensor> 0();
    }
    inlet
    {
        type            cyclic;
    }
    outlet
    {
        type            cyclic;
    }
    fixWall
    {
        type            empty;
    }
    procBoundary6to5
    {
        type            processor;
        value           nonuniform List<symmTensor> 8((3.08218e-07 1.47119e-06 -0 -3.65858e-07 -0 5.76403e-08) (2.61946e-07 -2.15845e-06 -0 -3.82632e-07 -0 1.20685e-07) (-1.55827e-07 1.76592e-06 -0 1.35896e-07 -0 1.99304e-08) (8.84107e-08 3.93068e-06 -0 -1.72697e-07 -0 8.42859e-08) (2.04732e-07 -3.06497e-06 -0 -4.13451e-07 -0 2.08719e-07) (2.42005e-07 -3.26613e-06 -0 -2.6021e-07 -0 1.82049e-08) (-2.45114e-08 -6.77191e-07 -0 -2.181e-08 -0 4.63214e-08) (-2.22284e-07 1.0174e-06 -0 7.53805e-08 -0 1.46903e-07));
    }
    procBoundary6to7
    {
        type            processor;
        value           nonuniform List<symmTensor> 8((-2.65402e-08 0.000316327 -0 -2.1258e-09 -0 2.8666e-08) (-1.74466e-07 0.000316642 -0 1.67886e-07 -0 6.5797e-09) (1.85192e-07 0.000316698 -0 -2.06307e-07 -0 2.11152e-08) (3.04789e-08 0.0003153 -0 -1.14383e-08 -0 -1.90406e-08) (-1.09345e-07 0.000319553 -0 9.93657e-08 -0 9.97912e-09) (-6.74443e-08 0.000321823 -0 7.9588e-08 -0 -1.21437e-08) (3.20925e-08 0.00031991 -0 -5.37315e-08 -0 2.16391e-08) (1.95826e-07 0.000318777 -0 -2.04827e-07 -0 9.00004e-09));
    }
}


// ************************************************************************* //
