/*--------------------------------*- C++ -*----------------------------------*\
  =========                 |
  \\      /  F ield         | OpenFOAM: The Open Source CFD Toolbox
   \\    /   O peration     | Website:  https://openfoam.org
    \\  /    A nd           | Version:  dev
     \\/     M anipulation  |

   OpenFOAM for Windows 20.09 (v1)
   Built by CFD Support, www.cfdsupport.com (based on Symscape).
\*---------------------------------------------------------------------------*/
FoamFile
{
    version     2.0;
    format      ascii;
    class       volScalarField;
    location    "2";
    object      epsilon;
}
// * * * * * * * * * * * * * * * * * * * * * * * * * * * * * * * * * * * * * //

dimensions      [0 2 -3 0 0 0 0];

internalField   nonuniform List<scalar> 
120
(
5.44323e-16
5.44039e-16
5.43892e-16
5.4396e-16
5.72616e-16
5.72354e-16
5.72225e-16
5.72286e-16
6.05352e-16
6.0511e-16
6.05e-16
6.05053e-16
6.4317e-16
6.42949e-16
6.42857e-16
6.42903e-16
6.86844e-16
6.86643e-16
6.86568e-16
6.86608e-16
7.3731e-16
7.37128e-16
7.3707e-16
7.37105e-16
7.95712e-16
7.9555e-16
7.95507e-16
7.95537e-16
8.63461e-16
8.63318e-16
8.63289e-16
8.63315e-16
9.42315e-16
9.42191e-16
9.42174e-16
9.42197e-16
1.03449e-15
1.03438e-15
1.03437e-15
1.03439e-15
1.14279e-15
1.1427e-15
1.14271e-15
1.14272e-15
1.27086e-15
1.27079e-15
1.2708e-15
1.27082e-15
1.42343e-15
1.42338e-15
1.42339e-15
1.42341e-15
1.60681e-15
1.60677e-15
1.60679e-15
1.60681e-15
1.82947e-15
1.82945e-15
1.82946e-15
1.82949e-15
5.43879e-16
5.43853e-16
5.43886e-16
5.43909e-16
5.72209e-16
5.72185e-16
5.72219e-16
5.72244e-16
6.0498e-16
6.04958e-16
6.04993e-16
6.05019e-16
6.42835e-16
6.42814e-16
6.4285e-16
6.42877e-16
6.86546e-16
6.86525e-16
6.86562e-16
6.86589e-16
7.37049e-16
7.37026e-16
7.37065e-16
7.37093e-16
7.95488e-16
7.95461e-16
7.95503e-16
7.95531e-16
8.63273e-16
8.63243e-16
8.63287e-16
8.63315e-16
9.42163e-16
9.42127e-16
9.42174e-16
9.42202e-16
1.03437e-15
1.03433e-15
1.03438e-15
1.0344e-15
1.14271e-15
1.14266e-15
1.14271e-15
1.14274e-15
1.27081e-15
1.27075e-15
1.27081e-15
1.27083e-15
1.42341e-15
1.42334e-15
1.42341e-15
1.42343e-15
1.60682e-15
1.60674e-15
1.60681e-15
1.60683e-15
1.82951e-15
1.82942e-15
1.82949e-15
1.82951e-15
)
;

boundaryField
{
    topWall
    {
        type            epsilonWallFunction;
        value           nonuniform List<scalar> 0();
    }
    botWall
    {
        type            epsilonWallFunction;
        value           nonuniform List<scalar> 0();
    }
    inlet
    {
        type            cyclic;
    }
    outlet
    {
        type            cyclic;
    }
    fixWall
    {
        type            empty;
    }
    procBoundary6to5
    {
        type            processor;
        value           nonuniform List<scalar> 8(5.19246e-16 5.18942e-16 5.18782e-16 5.18854e-16 5.18769e-16 5.18744e-16 5.18772e-16 5.18798e-16);
    }
    procBoundary6to7
    {
        type            processor;
        value           nonuniform List<scalar> 8(2.10306e-15 2.10306e-15 2.10308e-15 2.10311e-15 2.10313e-15 2.10303e-15 2.10311e-15 2.10313e-15);
    }
}


// ************************************************************************* //
