/*--------------------------------*- C++ -*----------------------------------*\
  =========                 |
  \\      /  F ield         | OpenFOAM: The Open Source CFD Toolbox
   \\    /   O peration     | Website:  https://openfoam.org
    \\  /    A nd           | Version:  dev
     \\/     M anipulation  |

   OpenFOAM for Windows 20.09 (v1)
   Built by CFD Support, www.cfdsupport.com (based on Symscape).
\*---------------------------------------------------------------------------*/
FoamFile
{
    version     2.0;
    format      ascii;
    class       volVectorField;
    location    "2";
    object      gradp_rgh;
}
// * * * * * * * * * * * * * * * * * * * * * * * * * * * * * * * * * * * * * //

dimensions      [1 -2 -2 0 0 0 0];

internalField   nonuniform List<vector> 
120
(
(-1.2505 -0.00237949 0)
(-1.24761 0.00191399 0)
(-1.24297 0.00106255 0)
(-1.2447 -0.0011743 0)
(-1.25049 -0.00168671 0)
(-1.24758 0.00142295 0)
(-1.24299 0.000721366 0)
(-1.24472 -0.00120886 0)
(-1.25047 -0.00142682 0)
(-1.24757 0.00156057 0)
(-1.24301 0.000779698 0)
(-1.24474 -0.00123229 0)
(-1.25046 -0.00151449 0)
(-1.24755 0.00150925 0)
(-1.24303 0.000854307 0)
(-1.24477 -0.00134215 0)
(-1.25044 -0.00163822 0)
(-1.24753 0.001838 0)
(-1.24306 0.00122505 0)
(-1.2448 -0.00141208 0)
(-1.25042 -0.00175938 0)
(-1.2475 0.00227882 0)
(-1.24309 0.00150589 0)
(-1.24483 -0.00128374 0)
(-1.25039 -0.00173636 0)
(-1.24747 0.00217599 0)
(-1.24312 0.00144718 0)
(-1.24487 -0.00113535 0)
(-1.25037 -0.00171765 0)
(-1.24745 0.0020393 0)
(-1.24314 0.0013788 0)
(-1.2449 -0.001005 0)
(-1.25034 -0.00171668 0)
(-1.24742 0.00192536 0)
(-1.24317 0.00131954 0)
(-1.24493 -0.000864415 0)
(-1.25032 -0.00170187 0)
(-1.2474 0.00179136 0)
(-1.24319 0.00125081 0)
(-1.24496 -0.000727815 0)
(-1.2503 -0.00173922 0)
(-1.24737 0.00170963 0)
(-1.24321 0.0012145 0)
(-1.24498 -0.000587877 0)
(-1.25028 -0.00174494 0)
(-1.24735 0.00162058 0)
(-1.24323 0.00119189 0)
(-1.24501 -0.000448312 0)
(-1.25026 -0.00165455 0)
(-1.24732 0.0014396 0)
(-1.24324 0.00116636 0)
(-1.24503 -0.000339493 0)
(-1.25024 -0.00129734 0)
(-1.2473 0.00121134 0)
(-1.24326 0.00118256 0)
(-1.24505 -0.000348032 0)
(-1.25022 -0.000884446 0)
(-1.24728 0.00108144 0)
(-1.24327 0.00111416 0)
(-1.24507 -0.000520165 0)
(-1.25075 -0.00106181 0)
(-1.25595 0.00135377 0)
(-1.25578 0.00547124 0)
(-1.25175 -0.00045688 0)
(-1.25073 -0.00185235 0)
(-1.2559 0.00117063 0)
(-1.25579 0.00402785 0)
(-1.2518 -0.000315121 0)
(-1.25071 -0.00221804 0)
(-1.25585 0.000996622 0)
(-1.2558 0.00334125 0)
(-1.25184 -0.000245563 0)
(-1.25069 -0.0025716 0)
(-1.25581 0.00083235 0)
(-1.25581 0.00305567 0)
(-1.25188 -0.000488297 0)
(-1.25068 -0.00284434 0)
(-1.25576 0.000659499 0)
(-1.25583 0.00311185 0)
(-1.25192 -0.000742469 0)
(-1.25066 -0.00269099 0)
(-1.25571 0.000634389 0)
(-1.25584 0.00320032 0)
(-1.25196 -0.000749704 0)
(-1.25064 -0.00249281 0)
(-1.25566 0.000646677 0)
(-1.25585 0.00308095 0)
(-1.252 -0.000758138 0)
(-1.25063 -0.00230225 0)
(-1.25561 0.000641065 0)
(-1.25586 0.00295667 0)
(-1.25204 -0.000768403 0)
(-1.25062 -0.00210471 0)
(-1.25557 0.000649454 0)
(-1.25587 0.00284154 0)
(-1.25208 -0.000786004 0)
(-1.2506 -0.00190688 0)
(-1.25553 0.00066463 0)
(-1.25588 0.0027435 0)
(-1.25212 -0.000817045 0)
(-1.25059 -0.00172849 0)
(-1.25549 0.000694147 0)
(-1.2559 0.00266571 0)
(-1.25215 -0.000866761 0)
(-1.25058 -0.00159144 0)
(-1.25546 0.00071638 0)
(-1.25591 0.00257483 0)
(-1.25219 -0.000928348 0)
(-1.25057 -0.00150905 0)
(-1.25542 0.000713165 0)
(-1.25592 0.0024589 0)
(-1.25223 -0.000990704 0)
(-1.25057 -0.00151683 0)
(-1.25539 0.000601915 0)
(-1.25594 0.00226542 0)
(-1.25226 -0.000941932 0)
(-1.25056 -0.00162985 0)
(-1.25536 0.000352603 0)
(-1.25595 0.00194072 0)
(-1.25228 -0.0007123 0)
)
;

boundaryField
{
    topWall
    {
        type            extrapolatedCalculated;
        value           nonuniform List<vector> 0();
    }
    botWall
    {
        type            extrapolatedCalculated;
        value           nonuniform List<vector> 0();
    }
    inlet
    {
        type            cyclic;
    }
    outlet
    {
        type            cyclic;
    }
    fixWall
    {
        type            empty;
    }
    procBoundary6to5
    {
        type            processor;
        value           nonuniform List<vector> 8((-1.25053 -0.003303 0) (-1.24764 0.00221392 0) (-1.24294 0.0014874 0) (-1.24468 -0.0015166 0) (-1.25077 -0.000945763 0) (-1.25601 0.00132198 0) (-1.25576 0.00698424 0) (-1.25167 -0.0011685 0));
    }
    procBoundary6to7
    {
        type            processor;
        value           nonuniform List<vector> 8((-1.25021 -0.000485416 0) (-1.24727 0.00107897 0) (-1.24328 0.00100169 0) (-1.2451 -0.00077947 0) (-1.25055 -0.00172171 0) (-1.25533 5.62613e-05 0) (-1.25596 0.00162342 0) (-1.25231 -0.000337909 0));
    }
}


// ************************************************************************* //
