/*--------------------------------*- C++ -*----------------------------------*\
  =========                 |
  \\      /  F ield         | OpenFOAM: The Open Source CFD Toolbox
   \\    /   O peration     | Website:  https://openfoam.org
    \\  /    A nd           | Version:  dev
     \\/     M anipulation  |

   OpenFOAM for Windows 20.09 (v1)
   Built by CFD Support, www.cfdsupport.com (based on Symscape).
\*---------------------------------------------------------------------------*/
FoamFile
{
    version     2.0;
    format      ascii;
    class       volVectorField;
    location    "2";
    object      gradp;
}
// * * * * * * * * * * * * * * * * * * * * * * * * * * * * * * * * * * * * * //

dimensions      [1 -2 -2 0 0 0 0];

internalField   nonuniform List<vector> 
120
(
(3.7495 -9.81238 0)
(-1.24761 -9.80809 0)
(-1.24297 -9.80894 0)
(-1.2447 -9.81117 0)
(3.74951 -9.81169 0)
(-1.24758 -9.80858 0)
(-1.24299 -9.80928 0)
(-1.24472 -9.81121 0)
(3.74953 -9.81143 0)
(-1.24757 -9.80844 0)
(-1.24301 -9.80922 0)
(-1.24474 -9.81123 0)
(3.74954 -9.81151 0)
(-1.24755 -9.80849 0)
(-1.24303 -9.80915 0)
(-1.24477 -9.81134 0)
(3.74956 -9.81164 0)
(-1.24753 -9.80816 0)
(-1.24306 -9.80877 0)
(-1.2448 -9.81141 0)
(3.74958 -9.81176 0)
(-1.2475 -9.80772 0)
(-1.24309 -9.80849 0)
(-1.24483 -9.81128 0)
(3.74961 -9.81174 0)
(-1.24747 -9.80782 0)
(-1.24312 -9.80855 0)
(-1.24487 -9.81114 0)
(3.74963 -9.81172 0)
(-1.24745 -9.80796 0)
(-1.24314 -9.80862 0)
(-1.2449 -9.81101 0)
(3.74966 -9.81172 0)
(-1.24742 -9.80807 0)
(-1.24317 -9.80868 0)
(-1.24493 -9.81086 0)
(3.74968 -9.8117 0)
(-1.2474 -9.80821 0)
(-1.24319 -9.80875 0)
(-1.24496 -9.81073 0)
(3.7497 -9.81174 0)
(-1.24737 -9.80829 0)
(-1.24321 -9.80879 0)
(-1.24498 -9.81059 0)
(3.74972 -9.81174 0)
(-1.24735 -9.80838 0)
(-1.24323 -9.80881 0)
(-1.24501 -9.81045 0)
(3.74974 -9.81165 0)
(-1.24732 -9.80856 0)
(-1.24324 -9.80883 0)
(-1.24503 -9.81034 0)
(3.74976 -9.8113 0)
(-1.2473 -9.80879 0)
(-1.24326 -9.80882 0)
(-1.24505 -9.81035 0)
(3.74978 -9.81088 0)
(-1.24728 -9.80892 0)
(-1.24327 -9.80889 0)
(-1.24507 -9.81052 0)
(-1.25075 -9.81106 0)
(-1.25595 -9.80865 0)
(-1.25578 -9.80453 0)
(3.74825 -9.81046 0)
(-1.25073 -9.81185 0)
(-1.2559 -9.80883 0)
(-1.25579 -9.80597 0)
(3.7482 -9.81032 0)
(-1.25071 -9.81222 0)
(-1.25585 -9.809 0)
(-1.2558 -9.80666 0)
(3.74816 -9.81025 0)
(-1.25069 -9.81257 0)
(-1.25581 -9.80917 0)
(-1.25581 -9.80694 0)
(3.74812 -9.81049 0)
(-1.25068 -9.81284 0)
(-1.25576 -9.80934 0)
(-1.25583 -9.80689 0)
(3.74808 -9.81074 0)
(-1.25066 -9.81269 0)
(-1.25571 -9.80937 0)
(-1.25584 -9.8068 0)
(3.74804 -9.81075 0)
(-1.25064 -9.81249 0)
(-1.25566 -9.80935 0)
(-1.25585 -9.80692 0)
(3.748 -9.81076 0)
(-1.25063 -9.8123 0)
(-1.25561 -9.80936 0)
(-1.25586 -9.80704 0)
(3.74796 -9.81077 0)
(-1.25062 -9.8121 0)
(-1.25557 -9.80935 0)
(-1.25587 -9.80716 0)
(3.74792 -9.81079 0)
(-1.2506 -9.81191 0)
(-1.25553 -9.80934 0)
(-1.25588 -9.80726 0)
(3.74788 -9.81082 0)
(-1.25059 -9.81173 0)
(-1.25549 -9.80931 0)
(-1.2559 -9.80733 0)
(3.74785 -9.81087 0)
(-1.25058 -9.81159 0)
(-1.25546 -9.80928 0)
(-1.25591 -9.80743 0)
(3.74781 -9.81093 0)
(-1.25057 -9.81151 0)
(-1.25542 -9.80929 0)
(-1.25592 -9.80754 0)
(3.74777 -9.81099 0)
(-1.25057 -9.81152 0)
(-1.25539 -9.8094 0)
(-1.25594 -9.80773 0)
(3.74774 -9.81094 0)
(-1.25056 -9.81163 0)
(-1.25536 -9.80965 0)
(-1.25595 -9.80806 0)
(3.74772 -9.81071 0)
)
;

boundaryField
{
    topWall
    {
        type            extrapolatedCalculated;
        value           nonuniform List<vector> 0();
    }
    botWall
    {
        type            extrapolatedCalculated;
        value           nonuniform List<vector> 0();
    }
    inlet
    {
        type            cyclic;
    }
    outlet
    {
        type            cyclic;
    }
    fixWall
    {
        type            empty;
    }
    procBoundary6to5
    {
        type            processor;
        value           nonuniform List<vector> 8((3.74947 -9.8133 0) (-1.24764 -9.80779 0) (-1.24294 -9.80851 0) (-1.24468 -9.81152 0) (-1.25077 -9.81095 0) (-1.25601 -9.80868 0) (-1.25576 -9.80302 0) (3.74833 -9.81117 0));
    }
    procBoundary6to7
    {
        type            processor;
        value           nonuniform List<vector> 8((3.74979 -9.81049 0) (-1.24727 -9.80892 0) (-1.24328 -9.809 0) (-1.2451 -9.81078 0) (-1.25055 -9.81172 0) (-1.25533 -9.80994 0) (-1.25596 -9.80838 0) (3.74769 -9.81034 0));
    }
}


// ************************************************************************* //
