/*--------------------------------*- C++ -*----------------------------------*\
  =========                 |
  \\      /  F ield         | OpenFOAM: The Open Source CFD Toolbox
   \\    /   O peration     | Website:  https://openfoam.org
    \\  /    A nd           | Version:  dev
     \\/     M anipulation  |

   OpenFOAM for Windows 20.09 (v1)
   Built by CFD Support, www.cfdsupport.com (based on Symscape).
\*---------------------------------------------------------------------------*/
FoamFile
{
    version     2.0;
    format      ascii;
    class       volTensorField;
    location    "2";
    object      gradU;
}
// * * * * * * * * * * * * * * * * * * * * * * * * * * * * * * * * * * * * * //

dimensions      [0 0 -1 0 0 0 0];

internalField   nonuniform List<tensor> 
120
(
(-0.000474694 0.000106213 0 -0.0138423 0.000399284 0 0 0 0)
(-0.000333775 -0.000143636 0 0.00679064 -0.00125125 0 0 0 0)
(0.00017296 -6.1466e-06 0 -0.0131926 -0.000963045 0 0 0 0)
(0.000136149 0.000194288 0 -0.024497 -0.000616682 0 0 0 0)
(-0.00038295 0.000122146 0 -0.0214725 0.000532538 0 0 0 0)
(-0.000363515 -0.00014347 0 0.00183694 0.00122831 0 0 0 0)
(-5.57047e-05 -1.09308e-05 0 -0.0113227 0.000677737 0 0 0 0)
(0.000316292 0.000157459 0 -0.0230754 -0.000467073 0 0 0 0)
(-0.000174044 0.000138589 0 -0.0344671 -0.000253421 0 0 0 0)
(-0.000164611 -0.000141216 0 -0.00642524 0.000377756 0 0 0 0)
(-0.000242245 -3.4403e-05 0 -0.0138182 0.000162381 0 0 0 0)
(0.000335861 0.000170261 0 -0.0239677 -0.000275258 0 0 0 0)
(-4.70094e-05 0.000133569 0 -0.0435803 -3.69368e-05 0 0 0 0)
(-1.93651e-05 -0.00013654 0 -0.0181229 -0.000648728 0 0 0 0)
(-0.00034808 -2.18144e-05 0 -0.021966 0.000237723 0 0 0 0)
(0.00043303 0.000154733 0 -0.0300938 -0.000823174 0 0 0 0)
(8.24741e-05 0.000141981 0 -0.0507616 -0.000218555 0 0 0 0)
(0.000195627 -0.000136638 0 -0.0311479 0.000931727 0 0 0 0)
(-0.00044176 -3.73105e-05 0 -0.0333043 0.00108946 0 0 0 0)
(0.000421602 0.000139832 0 -0.0404382 -0.000397323 0 0 0 0)
(9.06955e-05 0.000145368 0 -0.0646633 -0.000278146 0 0 0 0)
(0.000271589 -0.000114739 0 -0.0517707 -0.000520118 0 0 0 0)
(-0.000502918 -4.39652e-05 0 -0.0531853 0.00024265 0 0 0 0)
(0.000497837 0.000127369 0 -0.0575587 -0.000519971 0 0 0 0)
(9.74022e-05 0.000131353 0 -0.0859398 8.47525e-05 0 0 0 0)
(0.000386927 -0.000127958 0 -0.0761197 -0.000539199 0 0 0 0)
(-0.000538227 -3.7308e-05 0 -0.0766139 0.000553049 0 0 0 0)
(0.000499981 0.000119278 0 -0.0805575 -0.000627766 0 0 0 0)
(6.11491e-05 0.000131092 0 -0.119106 -0.00039384 0 0 0 0)
(0.000427021 -0.000106934 0 -0.114568 -0.000180134 0 0 0 0)
(-0.000576881 -4.54413e-05 0 -0.11471 0.000658106 0 0 0 0)
(0.000525581 0.000100117 0 -0.11576 -0.000620596 0 0 0 0)
(-3.44178e-05 0.000121277 0 -0.168438 0.000173417 0 0 0 0)
(0.000460184 -0.000110426 0 -0.165505 -0.000505535 0 0 0 0)
(-0.000558082 -4.4649e-05 0 -0.165253 0.000613716 0 0 0 0)
(0.000527877 8.88575e-05 0 -0.165885 -0.000609111 0 0 0 0)
(-0.000135654 0.00011264 0 -0.239006 -8.97519e-05 0 0 0 0)
(0.000480095 -9.95961e-05 0 -0.239682 -0.000361508 0 0 0 0)
(-0.000583207 -4.71676e-05 0 -0.239462 0.000599254 0 0 0 0)
(0.000499956 7.12407e-05 0 -0.238044 -0.000619438 0 0 0 0)
(-0.000266868 0.00010331 0 -0.339809 0.000247982 0 0 0 0)
(0.00045257 -9.89424e-05 0 -0.341055 -0.000355942 0 0 0 0)
(-0.000530783 -4.89479e-05 0 -0.340893 0.000653136 0 0 0 0)
(0.000482613 5.9785e-05 0 -0.338762 -0.000552151 0 0 0 0)
(-0.000234668 9.26726e-05 0 -0.477906 3.19591e-05 0 0 0 0)
(0.00046202 -9.28435e-05 0 -0.480528 -0.000321542 0 0 0 0)
(-0.000544995 -5.04377e-05 0 -0.480276 0.000558831 0 0 0 0)
(0.000411739 4.26115e-05 0 -0.477045 -0.000504728 0 0 0 0)
(-0.000279088 8.42252e-05 0 -0.666153 0.000148394 0 0 0 0)
(0.000413061 -9.01612e-05 0 -0.668194 -0.000461437 0 0 0 0)
(-0.000472736 -5.2001e-05 0 -0.668128 0.000527971 0 0 0 0)
(0.000354725 3.30444e-05 0 -0.664421 -0.000363753 0 0 0 0)
(-9.66421e-05 7.23671e-05 0 -0.916926 0.000308601 0 0 0 0)
(0.000429099 -8.65172e-05 0 -0.918347 -0.000395674 0 0 0 0)
(-0.000482113 -4.88097e-05 0 -0.91826 0.000682632 0 0 0 0)
(0.000229899 1.87531e-05 0 -0.913837 -0.000364586 0 0 0 0)
(-6.69952e-05 6.43155e-05 0 -1.24884 -0.000154951 0 0 0 0)
(0.000390823 -8.39274e-05 0 -1.24601 -0.000329266 0 0 0 0)
(-0.000397562 -5.14828e-05 0 -1.2458 0.000291822 0 0 0 0)
(0.000119999 6.68209e-06 0 -1.24317 -0.000282857 0 0 0 0)
(0.000248895 -1.66811e-05 0 0.00644073 -0.00124194 0 0 0 0)
(-0.000675296 -0.000202228 0 0.00728779 0.000541972 0 0 0 0)
(5.28396e-05 -8.33848e-05 0 0.00022966 -0.000933717 0 0 0 0)
(0.000872922 0.000151577 0 -0.0100741 -0.00142139 0 0 0 0)
(0.000540314 -4.9233e-06 0 0.0006601 -0.000763874 0 0 0 0)
(-0.00069659 -0.000175399 0 0.00256958 0.000410953 0 0 0 0)
(-0.000101659 -0.000106292 0 -0.0026484 0.000403727 0 0 0 0)
(0.000743812 0.000161409 0 -0.0162021 -0.000714295 0 0 0 0)
(0.000676311 -2.04731e-06 0 -0.00681389 -1.1685e-06 0 0 0 0)
(-0.000730438 -0.000182768 0 -0.00570567 0.000851687 0 0 0 0)
(-0.000260021 -0.000102139 0 -0.00756126 0.000563197 0 0 0 0)
(0.000559188 0.000153723 0 -0.0265817 -0.000307648 0 0 0 0)
(0.000844681 1.38591e-05 0 -0.0168216 -0.00158798 0 0 0 0)
(-0.000709046 -0.000165993 0 -0.0150074 0.000441202 0 0 0 0)
(-0.000449592 -0.000125614 0 -0.0144228 0.00041958 0 0 0 0)
(0.000295381 0.000147799 0 -0.033514 -0.000852211 0 0 0 0)
(0.000927751 1.90256e-05 0 -0.0294159 -0.000552398 0 0 0 0)
(-0.000690458 -0.000149309 0 -0.0284118 0.000621269 0 0 0 0)
(-0.000568465 -0.000123696 0 -0.0260415 0.00114141 0 0 0 0)
(7.32288e-05 0.000146115 0 -0.0394102 0.000223781 0 0 0 0)
(0.00104512 3.08357e-05 0 -0.0484825 -0.000990635 0 0 0 0)
(-0.000652805 -0.000137762 0 -0.0471753 0.000680018 0 0 0 0)
(-0.000632899 -0.000132239 0 -0.0430338 0.000522283 0 0 0 0)
(-0.000116621 0.000125133 0 -0.0526664 0.000117564 0 0 0 0)
(0.00110081 3.90254e-05 0 -0.0749492 -0.00108209 0 0 0 0)
(-0.000599646 -0.000124094 0 -0.0742609 0.000467458 0 0 0 0)
(-0.000659983 -0.00013307 0 -0.0679685 0.000744136 0 0 0 0)
(-0.000287263 0.000132774 0 -0.0743469 0.000317406 0 0 0 0)
(0.00115006 4.90894e-05 0 -0.113036 -0.00116711 0 0 0 0)
(-0.00053646 -0.000107325 0 -0.112028 0.000468362 0 0 0 0)
(-0.000634332 -0.00013474 0 -0.102357 0.000725746 0 0 0 0)
(-0.000416142 0.000114143 0 -0.106659 0.000424414 0 0 0 0)
(0.001163 5.71747e-05 0 -0.166791 -0.00111884 0 0 0 0)
(-0.000421663 -9.25462e-05 0 -0.166248 0.000331835 0 0 0 0)
(-0.000570498 -0.000133803 0 -0.151004 0.000657511 0 0 0 0)
(-0.000566399 0.000114115 0 -0.153697 0.000601572 0 0 0 0)
(0.00114402 6.47718e-05 0 -0.242178 -0.0011451 0 0 0 0)
(-0.00027334 -7.77195e-05 0 -0.241029 0.000189136 0 0 0 0)
(-0.000425154 -0.000130244 0 -0.223976 0.000517266 0 0 0 0)
(-0.000706711 0.000106075 0 -0.225735 0.000716521 0 0 0 0)
(0.00111325 7.0651e-05 0 -0.346186 -0.00106461 0 0 0 0)
(-0.000118288 -6.48402e-05 0 -0.345085 6.07323e-05 0 0 0 0)
(-0.000315599 -0.000125013 0 -0.333241 0.000438911 0 0 0 0)
(-0.000816895 0.000103998 0 -0.335114 0.000842087 0 0 0 0)
(0.00103864 7.49865e-05 0 -0.48795 -0.0010456 0 0 0 0)
(-5.7583e-05 -5.26607e-05 0 -0.485261 -3.01669e-05 0 0 0 0)
(-0.000258978 -0.000117221 0 -0.4766 0.000326044 0 0 0 0)
(-0.000816177 0.000102893 0 -0.479795 0.000823529 0 0 0 0)
(0.00097632 7.85603e-05 0 -0.679039 -0.000903536 0 0 0 0)
(7.08698e-05 -4.19794e-05 0 -0.674529 -5.69483e-05 0 0 0 0)
(-0.000224496 -0.000110785 0 -0.670431 0.000389187 0 0 0 0)
(-0.000838656 9.90962e-05 0 -0.676475 0.000756895 0 0 0 0)
(0.000870167 8.01e-05 0 -0.932344 -0.000899109 0 0 0 0)
(8.58742e-05 -3.11153e-05 0 -0.93199 -0.0002297 0 0 0 0)
(-0.000291412 -0.000103657 0 -0.927772 0.000353354 0 0 0 0)
(-0.000744872 9.88795e-05 0 -0.931073 0.000798908 0 0 0 0)
(0.000673764 8.08084e-05 0 -1.26746 -0.000773926 0 0 0 0)
(0.000147064 -2.1105e-05 0 -1.2764 -0.000341394 0 0 0 0)
(-0.000209207 -9.36411e-05 0 -1.26382 0.000101815 0 0 0 0)
(-0.000657886 9.83503e-05 0 -1.26058 0.000725011 0 0 0 0)
)
;

boundaryField
{
    topWall
    {
        type            extrapolatedCalculated;
        value           nonuniform List<tensor> 0();
    }
    botWall
    {
        type            extrapolatedCalculated;
        value           nonuniform List<tensor> 0();
    }
    inlet
    {
        type            cyclic;
    }
    outlet
    {
        type            cyclic;
    }
    fixWall
    {
        type            empty;
    }
    procBoundary6to5
    {
        type            processor;
        value           nonuniform List<tensor> 8((-0.00066403 0.00011931 0 -0.00791662 0.00112227 0 0 0 0) (-0.000374342 -0.000120764 0 0.0115606 0.00133379 0 0 0 0) (0.000465756 -2.15069e-05 0 -0.00933788 -0.00030731 0 0 0 0) (-1.09308e-05 0.000162107 0 -0.0209947 0.000681003 0 0 0 0) (1.05672e-05 -2.42342e-05 0 0.0162686 0.00164875 0 0 0 0) (-0.000593072 -0.000180536 0 0.017491 0.0007378 0 0 0 0) (0.000187707 -7.3569e-05 0 0.00366268 0.000180548 0 0 0 0) (0.000978344 0.000139193 0 -0.00553141 0.000189535 0 0 0 0));
    }
    procBoundary6to7
    {
        type            processor;
        value           nonuniform List<tensor> 8((0.000146296 5.47958e-05 0 -1.67659 8.15983e-05 0 0 0 0) (0.00047977 -7.9071e-05 0 -1.67812 -0.000427461 0 0 0 0) (-0.000434804 -4.80362e-05 0 -1.67845 0.000602669 0 0 0 0) (-0.000131227 9.90591e-07 0 -1.67109 -2.01459e-05 0 0 0 0) (0.000316208 7.91243e-05 0 -1.69371 -0.000236874 0 0 0 0) (0.000146547 -1.65197e-05 0 -1.70565 -0.000243089 0 0 0 0) (-2.77014e-05 -8.58839e-05 0 -1.69544 0.000199732 0 0 0 0) (-0.00049509 9.46001e-05 0 -1.68961 0.00056664 0 0 0 0));
    }
}


// ************************************************************************* //
