/*--------------------------------*- C++ -*----------------------------------*\
  =========                 |
  \\      /  F ield         | OpenFOAM: The Open Source CFD Toolbox
   \\    /   O peration     | Website:  https://openfoam.org
    \\  /    A nd           | Version:  dev
     \\/     M anipulation  |

   OpenFOAM for Windows 20.09 (v1)
   Built by CFD Support, www.cfdsupport.com (based on Symscape).
\*---------------------------------------------------------------------------*/
FoamFile
{
    version     2.0;
    format      ascii;
    class       volScalarField;
    location    "2";
    object      nut;
}
// * * * * * * * * * * * * * * * * * * * * * * * * * * * * * * * * * * * * * //

dimensions      [0 2 -1 0 0 0 0];

internalField   nonuniform List<scalar> 
120
(
8.15204e-18
8.1563e-18
8.1585e-18
8.15749e-18
7.74924e-18
7.7528e-18
7.75454e-18
7.75372e-18
7.33019e-18
7.33312e-18
7.33445e-18
7.33381e-18
6.89918e-18
6.90155e-18
6.90254e-18
6.90204e-18
6.46048e-18
6.46237e-18
6.46308e-18
6.4627e-18
6.01829e-18
6.01977e-18
6.02024e-18
6.01996e-18
5.57657e-18
5.57771e-18
5.57801e-18
5.5778e-18
5.13902e-18
5.13987e-18
5.14004e-18
5.13989e-18
4.70898e-18
4.7096e-18
4.70968e-18
4.70957e-18
4.28942e-18
4.28986e-18
4.28988e-18
4.2898e-18
3.8829e-18
3.8832e-18
3.88319e-18
3.88313e-18
3.49162e-18
3.4918e-18
3.49178e-18
3.49173e-18
3.11736e-18
3.11747e-18
3.11744e-18
3.1174e-18
2.76159e-18
2.76165e-18
2.76163e-18
2.76159e-18
2.42548e-18
2.42551e-18
2.42549e-18
2.42545e-18
8.15869e-18
8.15908e-18
8.15859e-18
8.15824e-18
7.75477e-18
7.75508e-18
7.75462e-18
7.75429e-18
7.3347e-18
7.33496e-18
7.33453e-18
7.33422e-18
6.90277e-18
6.903e-18
6.90261e-18
6.90232e-18
6.46329e-18
6.46349e-18
6.46313e-18
6.46288e-18
6.02042e-18
6.02061e-18
6.02029e-18
6.02006e-18
5.57814e-18
5.57833e-18
5.57803e-18
5.57784e-18
5.14014e-18
5.14032e-18
5.14006e-18
5.13989e-18
4.70974e-18
4.70992e-18
4.70969e-18
4.70955e-18
4.2899e-18
4.29008e-18
4.28987e-18
4.28976e-18
3.88318e-18
3.88336e-18
3.88317e-18
3.88308e-18
3.49175e-18
3.49191e-18
3.49175e-18
3.49168e-18
3.1174e-18
3.11755e-18
3.1174e-18
3.11736e-18
2.76157e-18
2.76171e-18
2.76159e-18
2.76155e-18
2.42543e-18
2.42555e-18
2.42545e-18
2.42543e-18
)
;

boundaryField
{
    topWall
    {
        type            nutkWallFunction;
        Cmu             0.09;
        kappa           0.41;
        E               9.8;
        value           nonuniform List<scalar> 0();
    }
    botWall
    {
        type            nutkWallFunction;
        Cmu             0.09;
        kappa           0.41;
        E               9.8;
        value           nonuniform List<scalar> 0();
    }
    inlet
    {
        type            cyclic;
    }
    outlet
    {
        type            cyclic;
    }
    fixWall
    {
        type            empty;
    }
    procBoundary6to5
    {
        type            processor;
        value           nonuniform List<scalar> 8(8.54575e-18 8.55075e-18 8.55339e-18 8.5522e-18 8.5536e-18 8.55401e-18 8.55355e-18 8.55313e-18);
    }
    procBoundary6to7
    {
        type            processor;
        value           nonuniform List<scalar> 8(2.10995e-18 2.10995e-18 2.10993e-18 2.1099e-18 2.10988e-18 2.10998e-18 2.10989e-18 2.10988e-18);
    }
}


// ************************************************************************* //
