/*--------------------------------*- C++ -*----------------------------------*\
  =========                 |
  \\      /  F ield         | OpenFOAM: The Open Source CFD Toolbox
   \\    /   O peration     | Website:  https://openfoam.org
    \\  /    A nd           | Version:  dev
     \\/     M anipulation  |

   OpenFOAM for Windows 20.09 (v1)
   Built by CFD Support, www.cfdsupport.com (based on Symscape).
\*---------------------------------------------------------------------------*/
FoamFile
{
    version     2.0;
    format      ascii;
    class       volScalarField;
    location    "2";
    object      omega;
}
// * * * * * * * * * * * * * * * * * * * * * * * * * * * * * * * * * * * * * //

dimensions      [0 0 -1 0 0 0 0];

internalField   nonuniform List<scalar> 
120
(
27.2379
27.2237
27.2163
27.2197
28.6537
28.6406
28.6342
28.6372
30.2918
30.2797
30.2742
30.2768
32.1842
32.1731
32.1686
32.1709
34.3697
34.3596
34.3559
34.3579
36.895
36.8859
36.883
36.8847
39.8174
39.8093
39.8072
39.8086
43.2076
43.2004
43.199
43.2003
47.1534
47.1472
47.1464
47.1475
51.7657
51.7604
51.7601
51.7611
57.1852
57.1808
57.181
57.1819
63.5937
63.5902
63.5907
63.5916
71.2285
71.2259
71.2266
71.2276
80.4045
80.4028
80.4036
80.4047
91.5465
91.5456
91.5464
91.5476
27.2157
27.2144
27.2161
27.2172
28.6333
28.6321
28.6338
28.6351
30.2732
30.2721
30.2739
30.2751
32.1675
32.1664
32.1682
32.1696
34.3547
34.3537
34.3556
34.3569
36.8819
36.8808
36.8827
36.8841
39.8062
39.8049
39.807
39.8084
43.1982
43.1967
43.1989
43.2003
47.1459
47.144
47.1464
47.1478
51.7598
51.7577
51.7602
51.7616
57.1811
57.1785
57.1813
57.1826
63.5912
63.5882
63.5912
63.5924
71.2276
71.2241
71.2274
71.2285
80.4051
80.4011
80.4047
80.4057
91.5485
91.544
91.5479
91.5487
)
;

boundaryField
{
    topWall
    {
        beta1           0.075;
        blended         0;
        type            omegaWallFunction;
        value           nonuniform List<scalar> 0();
    }
    botWall
    {
        beta1           0.075;
        blended         0;
        type            omegaWallFunction;
        value           nonuniform List<scalar> 0();
    }
    inlet
    {
        type            cyclic;
    }
    outlet
    {
        type            cyclic;
    }
    fixWall
    {
        type            empty;
    }
    procBoundary6to5
    {
        type            processor;
        value           nonuniform List<scalar> 8(25.9831 25.9679 25.9598 25.9634 25.9592 25.958 25.9593 25.9606);
    }
    procBoundary6to7
    {
        type            processor;
        value           nonuniform List<scalar> 8(105.237 105.237 105.238 105.239 105.24 105.235 105.24 105.24);
    }
}


// ************************************************************************* //
