/*--------------------------------*- C++ -*----------------------------------*\
  =========                 |
  \\      /  F ield         | OpenFOAM: The Open Source CFD Toolbox
   \\    /   O peration     | Website:  https://openfoam.org
    \\  /    A nd           | Version:  dev
     \\/     M anipulation  |

   OpenFOAM for Windows 20.09 (v1)
   Built by CFD Support, www.cfdsupport.com (based on Symscape).
\*---------------------------------------------------------------------------*/
FoamFile
{
    version     2.0;
    format      ascii;
    class       volScalarField;
    location    "2";
    object      p;
}
// * * * * * * * * * * * * * * * * * * * * * * * * * * * * * * * * * * * * * //

dimensions      [1 -1 -2 0 0 0 0];

internalField   nonuniform List<scalar> 
120
(
-5.1157
-5.17824
-5.24046
-5.30253
-5.12388
-5.18641
-5.24864
-5.31071
-5.13205
-5.19458
-5.25681
-5.31889
-5.14023
-5.20276
-5.26498
-5.32706
-5.14841
-5.21093
-5.27316
-5.33524
-5.15658
-5.21911
-5.28133
-5.34341
-5.16476
-5.22728
-5.28951
-5.35159
-5.17294
-5.23545
-5.29768
-5.35977
-5.18111
-5.24362
-5.30585
-5.36794
-5.18929
-5.2518
-5.31403
-5.37612
-5.19747
-5.25997
-5.3222
-5.38429
-5.20564
-5.26815
-5.33038
-5.39247
-5.21382
-5.27632
-5.33855
-5.40064
-5.22199
-5.28449
-5.34672
-5.40882
-5.23017
-5.29267
-5.3549
-5.41699
-5.36493
-5.42761
-5.49053
-5.55319
-5.37311
-5.43578
-5.4987
-5.56136
-5.38128
-5.44396
-5.50687
-5.56954
-5.38946
-5.45213
-5.51504
-5.57771
-5.39764
-5.46031
-5.52321
-5.58589
-5.40582
-5.46848
-5.53139
-5.59406
-5.41399
-5.47665
-5.53956
-5.60224
-5.42217
-5.48483
-5.54773
-5.61041
-5.43035
-5.493
-5.5559
-5.61859
-5.43852
-5.50118
-5.56408
-5.62677
-5.4467
-5.50935
-5.57225
-5.63494
-5.45488
-5.51753
-5.58042
-5.64312
-5.46305
-5.5257
-5.5886
-5.65129
-5.47123
-5.53388
-5.59677
-5.65947
-5.47941
-5.54205
-5.60494
-5.66764
)
;

boundaryField
{
    topWall
    {
        type            calculated;
        value           nonuniform List<scalar> 0();
    }
    botWall
    {
        type            calculated;
        value           nonuniform List<scalar> 0();
    }
    inlet
    {
        type            cyclic;
    }
    outlet
    {
        type            cyclic;
    }
    fixWall
    {
        type            empty;
    }
    procBoundary6to5
    {
        type            processor;
        value           nonuniform List<scalar> 8(-5.10752 -5.17006 -5.23229 -5.29436 -5.35676 -5.41943 -5.48236 -5.54501);
    }
    procBoundary6to7
    {
        type            processor;
        value           nonuniform List<scalar> 8(-5.23835 -5.30084 -5.36307 -5.42517 -5.48758 -5.55022 -5.61312 -5.67582);
    }
}


// ************************************************************************* //
