/*--------------------------------*- C++ -*----------------------------------*\
  =========                 |
  \\      /  F ield         | OpenFOAM: The Open Source CFD Toolbox
   \\    /   O peration     | Website:  https://openfoam.org
    \\  /    A nd           | Version:  dev
     \\/     M anipulation  |

   OpenFOAM for Windows 20.09 (v1)
   Built by CFD Support, www.cfdsupport.com (based on Symscape).
\*---------------------------------------------------------------------------*/
FoamFile
{
    version     2.0;
    format      ascii;
    class       volScalarField;
    location    "2";
    object      p_rgh;
}
// * * * * * * * * * * * * * * * * * * * * * * * * * * * * * * * * * * * * * //

dimensions      [1 -1 -2 0 0 0 0];

internalField   nonuniform List<scalar> 
120
(
-4.37586
-4.4384
-4.50062
-4.5627
-4.37587
-4.4384
-4.50062
-4.5627
-4.37587
-4.4384
-4.50062
-4.5627
-4.37587
-4.4384
-4.50062
-4.5627
-4.37587
-4.43839
-4.50062
-4.5627
-4.37587
-4.43839
-4.50062
-4.5627
-4.37587
-4.43839
-4.50062
-4.5627
-4.37587
-4.43839
-4.50062
-4.5627
-4.37587
-4.43839
-4.50062
-4.5627
-4.37588
-4.43839
-4.50062
-4.5627
-4.37588
-4.43838
-4.50061
-4.56271
-4.37588
-4.43838
-4.50061
-4.56271
-4.37588
-4.43838
-4.50061
-4.56271
-4.37588
-4.43838
-4.50061
-4.56271
-4.37588
-4.43838
-4.50061
-4.56271
-4.62509
-4.68777
-4.75069
-4.81335
-4.6251
-4.68777
-4.75069
-4.81335
-4.6251
-4.68777
-4.75068
-4.81335
-4.6251
-4.68777
-4.75068
-4.81335
-4.6251
-4.68777
-4.75068
-4.81335
-4.6251
-4.68777
-4.75067
-4.81335
-4.62511
-4.68777
-4.75067
-4.81335
-4.62511
-4.68777
-4.75067
-4.81335
-4.62511
-4.68777
-4.75067
-4.81335
-4.62511
-4.68777
-4.75066
-4.81335
-4.62511
-4.68776
-4.75066
-4.81335
-4.62511
-4.68776
-4.75066
-4.81336
-4.62512
-4.68776
-4.75066
-4.81336
-4.62512
-4.68776
-4.75066
-4.81336
-4.62512
-4.68776
-4.75065
-4.81336
)
;

boundaryField
{
    topWall
    {
        type            zeroGradient;
    }
    botWall
    {
        type            zeroGradient;
    }
    inlet
    {
        type            fixedJump;
        patchType       cyclic;
        jump            uniform -0.5;
        value           nonuniform List<scalar> 
15
(
-4.34461
-4.34461
-4.34461
-4.34461
-4.34461
-4.34461
-4.34461
-4.34461
-4.34461
-4.34461
-4.34462
-4.34462
-4.34462
-4.34462
-4.34462
)
;
    }
    outlet
    {
        type            fixedJump;
        patchType       cyclic;
        value           nonuniform List<scalar> 
15
(
-4.84461
-4.84461
-4.84461
-4.84461
-4.84461
-4.84461
-4.84461
-4.84461
-4.84461
-4.84461
-4.84462
-4.84462
-4.84462
-4.84462
-4.84462
)
;
    }
    fixWall
    {
        type            empty;
    }
    procBoundary6to5
    {
        type            processor;
        value           nonuniform List<scalar> 8(-4.37586 -4.4384 -4.50063 -4.56269 -4.62509 -4.68777 -4.75069 -4.81335);
    }
    procBoundary6to7
    {
        type            processor;
        value           nonuniform List<scalar> 8(-4.37588 -4.43838 -4.50061 -4.56271 -4.62512 -4.68776 -4.75065 -4.81336);
    }
}


// ************************************************************************* //
