/*--------------------------------*- C++ -*----------------------------------*\
  =========                 |
  \\      /  F ield         | OpenFOAM: The Open Source CFD Toolbox
   \\    /   O peration     | Website:  https://openfoam.org
    \\  /    A nd           | Version:  dev
     \\/     M anipulation  |

   OpenFOAM for Windows 20.09 (v1)
   Built by CFD Support, www.cfdsupport.com (based on Symscape).
\*---------------------------------------------------------------------------*/
FoamFile
{
    version     2.0;
    format      ascii;
    class       surfaceScalarField;
    location    "2";
    object      phi;
}
// * * * * * * * * * * * * * * * * * * * * * * * * * * * * * * * * * * * * * //

dimensions      [0 3 -1 0 0 0 0];

internalField   nonuniform List<scalar> 
217
(
1.38509e-07
2.94742e-10
1.38492e-07
2.28854e-10
1.38497e-07
-3.9746e-10
1.54832e-10
1.38506e-07
1.38504e-07
3.06882e-10
1.38485e-07
2.47895e-10
1.3848e-07
-3.92529e-10
1.37561e-10
1.38497e-07
1.38496e-07
3.104e-10
1.38485e-07
2.58396e-10
1.38473e-07
-3.79962e-10
1.19534e-10
1.38491e-07
1.38475e-07
3.08711e-10
1.38471e-07
2.6261e-10
1.38454e-07
-3.63066e-10
9.74675e-11
1.38476e-07
1.38453e-07
3.01671e-10
1.38457e-07
2.57832e-10
1.38437e-07
-3.4226e-10
7.58885e-11
1.38458e-07
1.38418e-07
2.94359e-10
1.38426e-07
2.49837e-10
1.38403e-07
-3.18906e-10
5.11535e-11
1.38428e-07
1.38372e-07
2.86854e-10
1.38385e-07
2.36987e-10
1.3836e-07
-2.94066e-10
2.63302e-11
1.38385e-07
1.38306e-07
2.80923e-10
1.3832e-07
2.22442e-10
1.38294e-07
-2.67602e-10
4.3638e-13
1.3832e-07
1.38209e-07
2.79054e-10
1.38225e-07
2.0647e-10
1.382e-07
-2.41907e-10
-2.5565e-11
1.38226e-07
1.38074e-07
2.81459e-10
1.38091e-07
1.89622e-10
1.38064e-07
-2.15156e-10
-5.04189e-11
1.38089e-07
1.37877e-07
2.89395e-10
1.37893e-07
1.73858e-10
1.37868e-07
-1.90578e-10
-7.4567e-11
1.37892e-07
1.37601e-07
2.96048e-10
1.37617e-07
1.57628e-10
1.37592e-07
-1.65402e-10
-9.57751e-11
1.37613e-07
1.37211e-07
3.04609e-10
1.37225e-07
1.43364e-10
1.37203e-07
-1.43219e-10
-1.14616e-10
1.37222e-07
1.36674e-07
3.0562e-10
1.36689e-07
1.28373e-10
1.36667e-07
-1.20631e-10
-1.28259e-10
1.3668e-07
1.35937e-07
1.3595e-07
1.35931e-07
1.3594e-07
1.38516e-07
4.66142e-10
1.38492e-07
9.76528e-11
1.38489e-07
-4.61752e-10
-3.73735e-10
1.3852e-07
4.43585e-10
1.38494e-07
1.23202e-10
1.38485e-07
-4.52922e-10
-4.04343e-10
1.38519e-07
4.15536e-10
1.38492e-07
1.50219e-10
1.38476e-07
-4.3764e-10
-4.27185e-10
1.38511e-07
3.80522e-10
1.38485e-07
1.76346e-10
1.38462e-07
-4.14592e-10
-4.39036e-10
1.38497e-07
3.42115e-10
1.38471e-07
2.01684e-10
1.38443e-07
-3.86678e-10
-4.41572e-10
1.38471e-07
2.98868e-10
1.38447e-07
2.25449e-10
1.38417e-07
-3.56187e-10
-4.36132e-10
1.3843e-07
2.53347e-10
1.38408e-07
2.46988e-10
1.38377e-07
-3.24664e-10
-4.23511e-10
1.38367e-07
2.05818e-10
1.38348e-07
2.65888e-10
1.38318e-07
-2.943e-10
-4.05448e-10
1.38274e-07
1.57793e-10
1.3826e-07
2.80003e-10
1.38232e-07
-2.6668e-10
-3.81057e-10
1.38136e-07
1.10598e-10
1.38128e-07
2.87939e-10
1.38106e-07
-2.45191e-10
-3.50756e-10
1.37938e-07
6.47236e-11
1.37937e-07
2.89428e-10
1.3792e-07
-2.28343e-10
-3.15814e-10
1.37656e-07
2.19944e-11
1.37657e-07
2.88408e-10
1.37642e-07
-2.1393e-10
-2.80862e-10
1.37262e-07
-1.81039e-11
1.37269e-07
2.8206e-10
1.37256e-07
-2.01024e-10
-2.44942e-10
1.36716e-07
-5.37536e-11
1.36723e-07
2.75094e-10
1.36707e-07
-1.85391e-10
-2.1291e-10
1.35967e-07
1.35977e-07
1.35965e-07
)
;

boundaryField
{
    topWall
    {
        type            calculated;
        value           nonuniform List<scalar> 0();
    }
    botWall
    {
        type            calculated;
        value           nonuniform List<scalar> 0();
    }
    inlet
    {
        type            cyclic;
        value           nonuniform List<scalar> 
15
(
-1.38525e-07
-1.38516e-07
-1.38499e-07
-1.38474e-07
-1.38446e-07
-1.38411e-07
-1.38364e-07
-1.383e-07
-1.38207e-07
-1.38076e-07
-1.37885e-07
-1.37607e-07
-1.3722e-07
-1.36675e-07
-1.35936e-07
)
;
    }
    outlet
    {
        type            cyclic;
        value           nonuniform List<scalar> 
15
(
1.38525e-07
1.38516e-07
1.38499e-07
1.38474e-07
1.38446e-07
1.38411e-07
1.38364e-07
1.383e-07
1.38207e-07
1.38076e-07
1.37885e-07
1.37607e-07
1.3722e-07
1.36675e-07
1.35936e-07
)
;
    }
    fixWall
    {
        type            empty;
        value           nonuniform List<scalar> 0();
    }
    procBoundary6to5
    {
        type            processor;
        value           nonuniform List<scalar> 8(-2.77249e-10 -2.11394e-10 3.94966e-10 -1.64981e-10 -4.77185e-10 -7.33312e-11 4.61979e-10 3.38143e-10);
    }
    procBoundary6to7
    {
        type            processor;
        value           nonuniform List<scalar> 8(3.07863e-10 1.14431e-10 -1.00861e-10 -1.38152e-10 -8.20853e-11 2.62428e-10 -1.7565e-10 -1.83014e-10);
    }
}


// ************************************************************************* //
