/*--------------------------------*- C++ -*----------------------------------*\
  =========                 |
  \\      /  F ield         | OpenFOAM: The Open Source CFD Toolbox
   \\    /   O peration     | Website:  https://openfoam.org
    \\  /    A nd           | Version:  dev
     \\/     M anipulation  |

   OpenFOAM for Windows 20.09 (v1)
   Built by CFD Support, www.cfdsupport.com (based on Symscape).
\*---------------------------------------------------------------------------*/
FoamFile
{
    version     2.0;
    format      ascii;
    class       volSymmTensorField;
    location    "2";
    object      R;
}
// * * * * * * * * * * * * * * * * * * * * * * * * * * * * * * * * * * * * * //

dimensions      [0 2 -2 0 0 0 0];

internalField   nonuniform List<symmTensor> 
120
(
(1.48037e-16 1.11977e-19 -0 1.48023e-16 -0 1.48029e-16)
(1.48027e-16 -5.4215e-20 -0 1.48042e-16 -0 1.48021e-16)
(1.48023e-16 1.07682e-19 -0 1.48041e-16 -0 1.48025e-16)
(1.48025e-16 1.98249e-19 -0 1.48037e-16 -0 1.48027e-16)
(1.48036e-16 1.65449e-19 -0 1.48022e-16 -0 1.48031e-16)
(1.4804e-16 -1.31291e-20 -0 1.48015e-16 -0 1.48034e-16)
(1.48034e-16 8.78868e-20 -0 1.48022e-16 -0 1.48033e-16)
(1.48024e-16 1.77699e-19 -0 1.48036e-16 -0 1.48029e-16)
(1.4803e-16 2.51635e-19 -0 1.48031e-16 -0 1.48028e-16)
(1.48033e-16 4.81526e-20 -0 1.48025e-16 -0 1.48031e-16)
(1.48033e-16 1.01601e-19 -0 1.48027e-16 -0 1.48029e-16)
(1.48025e-16 1.74526e-19 -0 1.48034e-16 -0 1.4803e-16)
(1.4803e-16 2.99747e-19 -0 1.4803e-16 -0 1.48029e-16)
(1.48027e-16 1.26019e-19 -0 1.48036e-16 -0 1.48027e-16)
(1.48034e-16 1.51772e-19 -0 1.48026e-16 -0 1.48029e-16)
(1.48022e-16 2.06641e-19 -0 1.48039e-16 -0 1.48028e-16)
(1.48028e-16 3.27027e-19 -0 1.48032e-16 -0 1.48029e-16)
(1.48032e-16 2.02173e-19 -0 1.48023e-16 -0 1.48035e-16)
(1.48038e-16 2.1549e-19 -0 1.48018e-16 -0 1.48033e-16)
(1.48024e-16 2.60436e-19 -0 1.48035e-16 -0 1.4803e-16)
(1.48028e-16 3.88287e-19 -0 1.48032e-16 -0 1.48029e-16)
(1.48025e-16 3.12338e-19 -0 1.48035e-16 -0 1.48029e-16)
(1.48035e-16 3.20453e-19 -0 1.48026e-16 -0 1.48029e-16)
(1.48024e-16 3.45734e-19 -0 1.48036e-16 -0 1.4803e-16)
(1.48029e-16 4.78517e-19 -0 1.48029e-16 -0 1.4803e-16)
(1.48025e-16 4.25287e-19 -0 1.48035e-16 -0 1.48029e-16)
(1.48036e-16 4.27561e-19 -0 1.48024e-16 -0 1.4803e-16)
(1.48024e-16 4.48668e-19 -0 1.48036e-16 -0 1.48029e-16)
(1.48028e-16 6.11412e-19 -0 1.48033e-16 -0 1.48029e-16)
(1.48026e-16 5.89417e-19 -0 1.48032e-16 -0 1.48031e-16)
(1.48036e-16 5.89849e-19 -0 1.48023e-16 -0 1.4803e-16)
(1.48024e-16 5.94478e-19 -0 1.48036e-16 -0 1.48029e-16)
(1.4803e-16 7.92599e-19 -0 1.48029e-16 -0 1.4803e-16)
(1.48025e-16 7.79984e-19 -0 1.48034e-16 -0 1.4803e-16)
(1.48035e-16 7.78501e-19 -0 1.48024e-16 -0 1.4803e-16)
(1.48025e-16 7.80829e-19 -0 1.48035e-16 -0 1.48029e-16)
(1.4803e-16 1.02471e-18 -0 1.4803e-16 -0 1.48029e-16)
(1.48026e-16 1.02863e-18 -0 1.48033e-16 -0 1.4803e-16)
(1.48035e-16 1.02747e-18 -0 1.48025e-16 -0 1.4803e-16)
(1.48025e-16 1.02085e-18 -0 1.48035e-16 -0 1.48029e-16)
(1.48032e-16 1.31904e-18 -0 1.48028e-16 -0 1.4803e-16)
(1.48026e-16 1.32477e-18 -0 1.48033e-16 -0 1.4803e-16)
(1.48034e-16 1.32394e-18 -0 1.48025e-16 -0 1.4803e-16)
(1.48026e-16 1.31523e-18 -0 1.48034e-16 -0 1.4803e-16)
(1.48031e-16 1.66834e-18 -0 1.48029e-16 -0 1.48029e-16)
(1.48027e-16 1.67823e-18 -0 1.48032e-16 -0 1.4803e-16)
(1.48034e-16 1.67719e-18 -0 1.48026e-16 -0 1.4803e-16)
(1.48027e-16 1.66556e-18 -0 1.48033e-16 -0 1.4803e-16)
(1.48031e-16 2.07637e-18 -0 1.48029e-16 -0 1.48029e-16)
(1.48027e-16 2.08335e-18 -0 1.48033e-16 -0 1.4803e-16)
(1.48033e-16 2.08301e-18 -0 1.48027e-16 -0 1.4803e-16)
(1.48028e-16 2.07116e-18 -0 1.48032e-16 -0 1.4803e-16)
(1.48031e-16 2.53198e-18 -0 1.48028e-16 -0 1.4803e-16)
(1.48027e-16 2.53639e-18 -0 1.48032e-16 -0 1.4803e-16)
(1.48033e-16 2.53603e-18 -0 1.48026e-16 -0 1.4803e-16)
(1.48028e-16 2.52359e-18 -0 1.48032e-16 -0 1.48029e-16)
(1.4803e-16 3.02888e-18 -0 1.4803e-16 -0 1.48029e-16)
(1.48028e-16 3.0224e-18 -0 1.48031e-16 -0 1.4803e-16)
(1.48031e-16 3.02179e-18 -0 1.48028e-16 -0 1.4803e-16)
(1.48029e-16 3.01523e-18 -0 1.48031e-16 -0 1.48029e-16)
(1.4802e-16 -5.24118e-20 -0 1.48045e-16 -0 1.48024e-16)
(1.4804e-16 -5.78117e-20 -0 1.4802e-16 -0 1.48029e-16)
(1.48024e-16 -1.1934e-21 -0 1.4804e-16 -0 1.48025e-16)
(1.48013e-16 8.09507e-20 -0 1.4805e-16 -0 1.48027e-16)
(1.4802e-16 -5.08074e-21 -0 1.4804e-16 -0 1.48029e-16)
(1.48039e-16 -1.8567e-20 -0 1.48022e-16 -0 1.48028e-16)
(1.48033e-16 2.13616e-20 -0 1.48025e-16 -0 1.48031e-16)
(1.48018e-16 1.24384e-19 -0 1.48041e-16 -0 1.4803e-16)
(1.48023e-16 4.99928e-20 -0 1.48033e-16 -0 1.48033e-16)
(1.48041e-16 4.31915e-20 -0 1.48018e-16 -0 1.4803e-16)
(1.48035e-16 5.62075e-20 -0 1.48023e-16 -0 1.48031e-16)
(1.48023e-16 1.93829e-19 -0 1.48035e-16 -0 1.48031e-16)
(1.48015e-16 1.1602e-19 -0 1.48048e-16 -0 1.48026e-16)
(1.48038e-16 1.04742e-19 -0 1.48022e-16 -0 1.48029e-16)
(1.48036e-16 1.00422e-19 -0 1.48024e-16 -0 1.4803e-16)
(1.48023e-16 2.30304e-19 -0 1.48039e-16 -0 1.48027e-16)
(1.48019e-16 1.90001e-19 -0 1.48038e-16 -0 1.48031e-16)
(1.48038e-16 1.84605e-19 -0 1.48021e-16 -0 1.48029e-16)
(1.4804e-16 1.69109e-19 -0 1.48017e-16 -0 1.48032e-16)
(1.4803e-16 2.53759e-19 -0 1.48028e-16 -0 1.48031e-16)
(1.48017e-16 2.917e-19 -0 1.48042e-16 -0 1.4803e-16)
(1.48038e-16 2.84853e-19 -0 1.48022e-16 -0 1.4803e-16)
(1.48037e-16 2.59872e-19 -0 1.48023e-16 -0 1.48029e-16)
(1.48031e-16 3.16302e-19 -0 1.48028e-16 -0 1.4803e-16)
(1.48018e-16 4.1786e-19 -0 1.48042e-16 -0 1.4803e-16)
(1.48036e-16 4.14944e-19 -0 1.48024e-16 -0 1.48029e-16)
(1.48037e-16 3.79873e-19 -0 1.48022e-16 -0 1.4803e-16)
(1.48033e-16 4.13955e-19 -0 1.48026e-16 -0 1.4803e-16)
(1.48018e-16 5.8077e-19 -0 1.48042e-16 -0 1.4803e-16)
(1.48035e-16 5.76413e-19 -0 1.48025e-16 -0 1.4803e-16)
(1.48037e-16 5.26816e-19 -0 1.48023e-16 -0 1.4803e-16)
(1.48034e-16 5.4763e-19 -0 1.48025e-16 -0 1.4803e-16)
(1.48019e-16 7.85271e-19 -0 1.4804e-16 -0 1.4803e-16)
(1.48033e-16 7.8345e-19 -0 1.48026e-16 -0 1.48029e-16)
(1.48035e-16 7.1181e-19 -0 1.48024e-16 -0 1.4803e-16)
(1.48035e-16 7.23307e-19 -0 1.48024e-16 -0 1.4803e-16)
(1.4802e-16 1.03864e-18 -0 1.4804e-16 -0 1.4803e-16)
(1.48032e-16 1.03437e-18 -0 1.48028e-16 -0 1.48029e-16)
(1.48034e-16 9.61386e-19 -0 1.48026e-16 -0 1.4803e-16)
(1.48036e-16 9.67893e-19 -0 1.48024e-16 -0 1.4803e-16)
(1.48021e-16 1.34403e-18 -0 1.48038e-16 -0 1.4803e-16)
(1.48031e-16 1.34034e-18 -0 1.48029e-16 -0 1.4803e-16)
(1.48033e-16 1.29452e-18 -0 1.48027e-16 -0 1.4803e-16)
(1.48036e-16 1.30087e-18 -0 1.48023e-16 -0 1.4803e-16)
(1.48022e-16 1.70354e-18 -0 1.48037e-16 -0 1.4803e-16)
(1.4803e-16 1.69467e-18 -0 1.4803e-16 -0 1.4803e-16)
(1.48032e-16 1.66458e-18 -0 1.48028e-16 -0 1.4803e-16)
(1.48035e-16 1.67493e-18 -0 1.48024e-16 -0 1.4803e-16)
(1.48024e-16 2.11659e-18 -0 1.48036e-16 -0 1.4803e-16)
(1.48029e-16 2.10301e-18 -0 1.4803e-16 -0 1.4803e-16)
(1.48031e-16 2.09035e-18 -0 1.48028e-16 -0 1.4803e-16)
(1.48035e-16 2.1085e-18 -0 1.48025e-16 -0 1.4803e-16)
(1.48025e-16 2.57451e-18 -0 1.48035e-16 -0 1.4803e-16)
(1.48029e-16 2.57397e-18 -0 1.48031e-16 -0 1.48029e-16)
(1.48031e-16 2.56241e-18 -0 1.48028e-16 -0 1.4803e-16)
(1.48034e-16 2.57093e-18 -0 1.48025e-16 -0 1.4803e-16)
(1.48026e-16 3.07395e-18 -0 1.48033e-16 -0 1.4803e-16)
(1.48029e-16 3.09604e-18 -0 1.48031e-16 -0 1.48029e-16)
(1.48031e-16 3.06557e-18 -0 1.48029e-16 -0 1.4803e-16)
(1.48033e-16 3.05721e-18 -0 1.48026e-16 -0 1.4803e-16)
)
;

boundaryField
{
    topWall
    {
        type            kqRWallFunction;
        value           nonuniform List<symmTensor> 0();
    }
    botWall
    {
        type            kqRWallFunction;
        value           nonuniform List<symmTensor> 0();
    }
    inlet
    {
        type            cyclic;
    }
    outlet
    {
        type            cyclic;
    }
    fixWall
    {
        type            empty;
    }
    procBoundary6to5
    {
        type            processor;
        value           nonuniform List<symmTensor> 8((1.48044e-16 6.66338e-20 -0 1.48013e-16 -0 1.48032e-16) (1.48042e-16 -9.78188e-20 -0 1.48012e-16 -0 1.48035e-16) (1.48023e-16 8.00545e-20 -0 1.48036e-16 -0 1.48031e-16) (1.48034e-16 1.78165e-19 -0 1.48022e-16 -0 1.48034e-16) (1.48039e-16 -1.38947e-19 -0 1.48011e-16 -0 1.48039e-16) (1.48041e-16 -1.48074e-19 -0 1.48018e-16 -0 1.48031e-16) (1.48029e-16 -3.06997e-20 -0 1.48029e-16 -0 1.48032e-16) (1.4802e-16 4.61203e-20 -0 1.48033e-16 -0 1.48036e-16));
    }
    procBoundary6to7
    {
        type            processor;
        value           nonuniform List<symmTensor> 8((1.48029e-16 3.53739e-18 -0 1.4803e-16 -0 1.4803e-16) (1.48028e-16 3.54092e-18 -0 1.48032e-16 -0 1.4803e-16) (1.48032e-16 3.54151e-18 -0 1.48027e-16 -0 1.4803e-16) (1.4803e-16 3.52583e-18 -0 1.4803e-16 -0 1.4803e-16) (1.48029e-16 3.57335e-18 -0 1.48031e-16 -0 1.4803e-16) (1.48029e-16 3.59891e-18 -0 1.48031e-16 -0 1.4803e-16) (1.4803e-16 3.57737e-18 -0 1.48029e-16 -0 1.4803e-16) (1.48032e-16 3.56468e-18 -0 1.48027e-16 -0 1.4803e-16));
    }
}


// ************************************************************************* //
