/*--------------------------------*- C++ -*----------------------------------*\
  =========                 |
  \\      /  F ield         | OpenFOAM: The Open Source CFD Toolbox
   \\    /   O peration     | Website:  https://openfoam.org
    \\  /    A nd           | Version:  dev
     \\/     M anipulation  |

   OpenFOAM for Windows 20.09 (v1)
   Built by CFD Support, www.cfdsupport.com (based on Symscape).
\*---------------------------------------------------------------------------*/
FoamFile
{
    version     2.0;
    format      ascii;
    class       volVectorField;
    location    "2";
    object      UMean;
}
// * * * * * * * * * * * * * * * * * * * * * * * * * * * * * * * * * * * * * //

dimensions      [0 1 -1 0 0 0 0];

internalField   nonuniform List<vector> 
120
(
(0.166239 6.04885e-06 0)
(0.166177 4.429e-06 0)
(0.166206 -8.31474e-06 0)
(0.166195 3.81434e-06 0)
(0.166226 5.93343e-06 0)
(0.166177 3.50609e-06 0)
(0.16619 -8.41353e-06 0)
(0.166171 2.41301e-06 0)
(0.166203 6.93641e-06 0)
(0.16618 6.47619e-06 0)
(0.166187 -7.18518e-06 0)
(0.166156 3.03589e-06 0)
(0.166169 5.51106e-06 0)
(0.166166 4.13568e-06 0)
(0.166167 -8.1429e-06 0)
(0.166132 1.95424e-06 0)
(0.166131 6.87485e-06 0)
(0.16615 5.39498e-06 0)
(0.16615 -6.78897e-06 0)
(0.166106 1.66393e-06 0)
(0.166084 5.1468e-06 0)
(0.166114 5.68856e-06 0)
(0.166111 -6.32713e-06 0)
(0.166064 1.29204e-06 0)
(0.166023 6.41127e-06 0)
(0.166064 4.52811e-06 0)
(0.166062 -6.38455e-06 0)
(0.16601 7.97315e-07 0)
(0.165941 5.28806e-06 0)
(0.165988 4.78989e-06 0)
(0.165984 -5.40538e-06 0)
(0.16593 2.45763e-07 0)
(0.165824 5.75488e-06 0)
(0.165873 4.22789e-06 0)
(0.16587 -5.28771e-06 0)
(0.165817 -2.37012e-07 0)
(0.16566 5.57708e-06 0)
(0.165712 3.94734e-06 0)
(0.165708 -4.38252e-06 0)
(0.165653 -7.69423e-07 0)
(0.165426 5.60529e-06 0)
(0.165473 3.62538e-06 0)
(0.165471 -4.28895e-06 0)
(0.16542 -1.26941e-06 0)
(0.165094 5.99039e-06 0)
(0.165143 3.3541e-06 0)
(0.16514 -3.29396e-06 0)
(0.165089 -1.68968e-06 0)
(0.16463 5.65855e-06 0)
(0.164673 3.08947e-06 0)
(0.164671 -3.35757e-06 0)
(0.164625 -2.11062e-06 0)
(0.163984 6.23771e-06 0)
(0.16403 2.58504e-06 0)
(0.164026 -2.41401e-06 0)
(0.163981 -2.29593e-06 0)
(0.163101 6.17289e-06 0)
(0.163142 2.43002e-06 0)
(0.16314 -2.21985e-06 0)
(0.163102 -2.71827e-06 0)
(0.166219 1.1114e-05 0)
(0.16622 2.14624e-06 0)
(0.166152 -9.10881e-06 0)
(0.166225 -6.19225e-06 0)
(0.166221 7.33237e-06 0)
(0.166225 1.92068e-06 0)
(0.166152 -1.02075e-05 0)
(0.166215 -8.70849e-06 0)
(0.16622 9.84091e-06 0)
(0.166224 2.83116e-06 0)
(0.166147 -8.43593e-06 0)
(0.166198 -7.38274e-06 0)
(0.16621 7.33042e-06 0)
(0.166216 3.34016e-06 0)
(0.166139 -9.26883e-06 0)
(0.166171 -9.22124e-06 0)
(0.166192 7.19428e-06 0)
(0.166199 3.56649e-06 0)
(0.166123 -7.73663e-06 0)
(0.166142 -8.80309e-06 0)
(0.166161 6.40976e-06 0)
(0.166169 4.3756e-06 0)
(0.166096 -7.36648e-06 0)
(0.166105 -8.84827e-06 0)
(0.166112 5.54322e-06 0)
(0.16612 4.69986e-06 0)
(0.166052 -6.86616e-06 0)
(0.166054 -8.60715e-06 0)
(0.166036 4.60628e-06 0)
(0.166045 5.1547e-06 0)
(0.165982 -6.12626e-06 0)
(0.165981 -8.31926e-06 0)
(0.165923 3.59804e-06 0)
(0.165933 5.48046e-06 0)
(0.165881 -5.65659e-06 0)
(0.165876 -7.8998e-06 0)
(0.165758 2.74154e-06 0)
(0.165768 5.70776e-06 0)
(0.165731 -5.0304e-06 0)
(0.165725 -7.31664e-06 0)
(0.16552 1.68955e-06 0)
(0.165532 5.79569e-06 0)
(0.165508 -4.79447e-06 0)
(0.1655 -6.70559e-06 0)
(0.165181 9.67187e-07 0)
(0.165193 5.80898e-06 0)
(0.165175 -4.29889e-06 0)
(0.165167 -5.91316e-06 0)
(0.164706 -5.31259e-08 0)
(0.164723 5.74541e-06 0)
(0.164713 -4.25107e-06 0)
(0.1647 -5.33305e-06 0)
(0.164049 -5.38706e-07 0)
(0.164068 5.71407e-06 0)
(0.164058 -3.65024e-06 0)
(0.164039 -4.65167e-06 0)
(0.163152 -1.55164e-06 0)
(0.16317 5.36258e-06 0)
(0.163167 -3.66214e-06 0)
(0.163149 -4.00153e-06 0)
)
;

boundaryField
{
    topWall
    {
        type            calculated;
        value           nonuniform List<vector> 0();
    }
    botWall
    {
        type            calculated;
        value           nonuniform List<vector> 0();
    }
    inlet
    {
        type            cyclic;
    }
    outlet
    {
        type            cyclic;
    }
    fixWall
    {
        type            empty;
    }
    procBoundary6to5
    {
        type            processor;
        value           nonuniform List<vector> 8((0.166249 5.26795e-06 0) (0.166166 5.5915e-06 0) (0.166212 -6.80846e-06 0) (0.166212 3.44081e-06 0) (0.166211 9.40227e-06 0) (0.166213 1.01739e-06 0) (0.166151 -8.6513e-06 0) (0.166232 -6.33951e-06 0));
    }
    procBoundary6to7
    {
        type            processor;
        value           nonuniform List<vector> 8((0.161902 5.97946e-06 0) (0.161953 2.03626e-06 0) (0.16195 -1.92764e-06 0) (0.161909 -2.76736e-06 0) (0.161937 -1.82858e-06 0) (0.161941 5.14507e-06 0) (0.161952 -3.48055e-06 0) (0.161938 -3.44332e-06 0));
    }
}


// ************************************************************************* //
