/*--------------------------------*- C++ -*----------------------------------*\
  =========                 |
  \\      /  F ield         | OpenFOAM: The Open Source CFD Toolbox
   \\    /   O peration     | Website:  https://openfoam.org
    \\  /    A nd           | Version:  dev
     \\/     M anipulation  |

   OpenFOAM for Windows 20.09 (v1)
   Built by CFD Support, www.cfdsupport.com (based on Symscape).
\*---------------------------------------------------------------------------*/
FoamFile
{
    version     2.0;
    format      ascii;
    class       surfaceScalarField;
    location    "10";
    object      alphaPhi0.water;
}
// * * * * * * * * * * * * * * * * * * * * * * * * * * * * * * * * * * * * * //

dimensions      [0 3 -1 0 0 0 0];

internalField   nonuniform List<scalar> 
217
(
9.48308e-45
3.49659e-51
7.33447e-45
3.02571e-51
1.07379e-44
7.48001e-49
5.62986e-50
9.67653e-45
2.10299e-47
-5.85746e-55
1.71617e-47
-1.57589e-53
2.24015e-47
1.90765e-52
1.42837e-52
2.26704e-47
5.04438e-50
-2.24581e-56
4.44076e-50
-1.10002e-55
4.68253e-50
9.33553e-55
3.51394e-55
5.58885e-50
1.24512e-52
-7.08785e-59
1.12998e-52
-4.05039e-58
1.12072e-52
1.06482e-57
8.03497e-58
1.31519e-52
3.15293e-55
-1.86889e-61
2.96486e-55
-1.36572e-60
2.8621e-55
2.45016e-60
2.13869e-60
3.25619e-55
8.21243e-58
-3.61892e-64
7.70984e-58
-3.99184e-63
7.56116e-58
5.42504e-63
5.30917e-63
8.34011e-58
2.15266e-60
-8.40612e-68
2.01363e-60
-1.12223e-65
2.02572e-60
1.09672e-65
1.46831e-65
2.23367e-60
5.82011e-63
2.63565e-69
5.30602e-63
-3.08092e-68
5.49353e-63
2.12578e-68
3.97081e-68
6.25093e-63
1.63291e-65
1.83748e-71
1.50728e-65
-9.28862e-71
1.59269e-65
3.74661e-71
1.20831e-70
1.81635e-65
5.098e-68
1.18035e-73
4.95153e-68
-4.2382e-73
4.99671e-68
3.0198e-74
4.31586e-73
5.59697e-68
2.58919e-70
1.11705e-75
2.52166e-70
-2.35028e-75
2.53203e-70
-8.1711e-76
2.87221e-75
2.59208e-70
1.63528e-72
8.12995e-78
1.60344e-72
-9.11278e-78
1.61123e-72
-8.68879e-78
1.65559e-77
1.59879e-72
7.62334e-75
3.56424e-80
7.49978e-75
-3.35096e-80
7.57674e-75
-6.011e-80
7.21233e-80
7.68771e-75
3.42518e-77
1.63664e-82
3.36712e-77
-1.12856e-82
3.40639e-77
-3.47085e-82
2.95648e-82
3.4782e-77
1.48531e-79
1.45539e-79
1.47037e-79
1.51047e-79
8.52048e-45
5.89953e-50
8.81945e-45
-1.07532e-49
9.27603e-45
-1.5092e-49
3.44125e-50
1.82857e-47
1.97363e-52
1.87404e-47
-2.45108e-52
1.95496e-47
-3.58868e-52
8.6367e-53
4.89019e-50
5.0686e-55
4.65593e-50
-5.80793e-55
4.69575e-50
-8.59337e-55
2.45535e-55
1.21661e-52
1.15741e-57
1.1626e-52
-1.32075e-57
1.14825e-52
-2.09281e-57
6.41385e-58
3.03104e-55
3.02719e-60
2.93357e-55
-3.20712e-60
2.91666e-55
-5.20206e-60
1.75059e-60
7.76523e-58
7.80788e-63
7.54777e-58
-7.2139e-63
7.55434e-58
-1.26788e-62
4.38013e-63
1.96319e-60
2.10536e-65
1.93463e-60
-1.73205e-65
1.96575e-60
-3.30153e-65
1.0549e-65
5.23847e-63
5.93721e-68
5.17328e-63
-3.94713e-68
5.28716e-63
-8.72781e-68
2.33268e-68
1.43932e-65
1.95981e-70
1.4389e-65
-1.03702e-70
1.48636e-65
-2.68467e-70
4.76941e-71
4.5404e-68
1.10697e-72
4.52015e-68
-4.04459e-73
4.63807e-68
-1.35229e-72
8.43495e-74
2.52312e-70
1.13666e-74
2.4477e-70
-1.92301e-75
2.45798e-70
-8.83132e-75
-4.03915e-76
1.63681e-72
5.53172e-77
1.61682e-72
-3.89313e-78
1.61322e-72
-3.71378e-77
-7.10582e-78
7.35419e-75
2.14591e-79
7.12321e-75
-3.96535e-81
7.2647e-75
-1.63273e-79
-5.55092e-80
3.12103e-77
8.81224e-82
3.11745e-77
6.52249e-83
3.20193e-77
-6.61281e-82
-3.42189e-82
1.33895e-79
1.35228e-79
1.40077e-79
)
;

boundaryField
{
    topWall
    {
        type            calculated;
        value           nonuniform List<scalar> 0();
    }
    botWall
    {
        type            calculated;
        value           nonuniform List<scalar> 0();
    }
    inlet
    {
        type            cyclic;
        value           nonuniform List<scalar> 
15
(
-9.88846e-45
-2.05682e-47
-4.81484e-50
-1.1744e-52
-2.96995e-55
-7.68237e-58
-2.0224e-60
-5.46637e-63
-1.54984e-65
-4.83434e-68
-2.50747e-70
-1.6225e-72
-7.45002e-75
-3.33131e-77
-1.44553e-79
)
;
    }
    outlet
    {
        type            cyclic;
        value           nonuniform List<scalar> 
15
(
9.88846e-45
2.05682e-47
4.81484e-50
1.1744e-52
2.96995e-55
7.68237e-58
2.0224e-60
5.46637e-63
1.54984e-65
4.83434e-68
2.50747e-70
1.6225e-72
7.45002e-75
3.33131e-77
1.44553e-79
)
;
    }
    fixWall
    {
        type            empty;
        value           nonuniform List<scalar> 0();
    }
    procBoundary5to4
    {
        type            processor;
        value           nonuniform List<scalar> 8(-8.49247e-48 -1.44941e-47 -6.40232e-46 -5.07999e-47 -6.50263e-47 5.41495e-47 7.3368e-47 -2.85333e-47);
    }
    procBoundary5to6
    {
        type            processor;
        value           nonuniform List<scalar> 8(5.7209e-85 -2.5175e-85 -1.14665e-84 1.02832e-84 5.92199e-83 4.30853e-85 -2.03148e-84 -1.37611e-84);
    }
}


// ************************************************************************* //
