/*--------------------------------*- C++ -*----------------------------------*\
  =========                 |
  \\      /  F ield         | OpenFOAM: The Open Source CFD Toolbox
   \\    /   O peration     | Website:  https://openfoam.org
    \\  /    A nd           | Version:  dev
     \\/     M anipulation  |

   OpenFOAM for Windows 20.09 (v1)
   Built by CFD Support, www.cfdsupport.com (based on Symscape).
\*---------------------------------------------------------------------------*/
FoamFile
{
    version     2.0;
    format      ascii;
    class       volSymmTensorField;
    location    "10";
    object      devReff;
}
// * * * * * * * * * * * * * * * * * * * * * * * * * * * * * * * * * * * * * //

dimensions      [0 2 -2 0 0 0 0];

internalField   nonuniform List<symmTensor> 
120
(
(-4.18673e-07 -0.00230462 -0 4.47343e-07 -0 -2.86697e-08)
(-1.07381e-06 -0.00230041 -0 1.04061e-06 -0 3.32041e-08)
(-4.08279e-07 -0.00230293 -0 3.8475e-07 -0 2.35291e-08)
(-4.38383e-08 -0.0023027 -0 5.24181e-09 -0 3.85965e-08)
(-4.30026e-07 -0.00203094 -0 4.37301e-07 -0 -7.27432e-09)
(-1.24206e-06 -0.0020232 -0 1.22971e-06 -0 1.23425e-08)
(-4.34492e-07 -0.00202686 -0 4.65772e-07 -0 -3.12801e-08)
(2.26965e-07 -0.00202915 -0 -1.88292e-07 -0 -3.86724e-08)
(-1.62467e-07 -0.00178146 -0 1.7484e-07 -0 -1.23734e-08)
(-9.7993e-07 -0.00177012 -0 9.89807e-07 -0 -9.87689e-09)
(-6.1611e-07 -0.00177631 -0 6.00401e-07 -0 1.57084e-08)
(-1.59494e-07 -0.00178267 -0 1.38205e-07 -0 2.12893e-08)
(-1.39924e-07 -0.00155559 -0 1.51613e-07 -0 -1.1689e-08)
(-1.05335e-06 -0.00154068 -0 1.02536e-06 -0 2.79897e-08)
(-8.26879e-07 -0.00154621 -0 8.30414e-07 -0 -3.53456e-09)
(1.82104e-07 -0.00155103 -0 -1.37818e-07 -0 -4.42853e-08)
(1.6062e-07 -0.0013526 -0 -1.22823e-07 -0 -3.77962e-08)
(-7.11408e-07 -0.00133367 -0 7.66925e-07 -0 -5.55164e-08)
(-9.77484e-07 -0.00133624 -0 9.76753e-07 -0 7.30882e-10)
(-1.78599e-07 -0.0013427 -0 1.41478e-07 -0 3.71205e-08)
(2.54187e-07 -0.00116384 -0 -2.41422e-07 -0 -1.27643e-08)
(-4.84289e-07 -0.00114823 -0 4.34534e-07 -0 4.97545e-08)
(-1.11251e-06 -0.00114992 -0 1.09959e-06 -0 1.29144e-08)
(1.97814e-08 -0.00115577 -0 3.64354e-08 -0 -5.62167e-08)
(3.63498e-07 -0.000994259 -0 -3.69307e-07 -0 5.80968e-09)
(-1.96963e-07 -0.000980079 -0 2.04043e-07 -0 -7.08005e-09)
(-1.21425e-06 -0.000980176 -0 1.19809e-06 -0 1.61596e-08)
(-3.09842e-07 -0.000985907 -0 2.67133e-07 -0 4.27091e-08)
(4.00145e-07 -0.000837795 -0 -3.70661e-07 -0 -2.94839e-08)
(-4.92017e-08 -0.000826687 -0 3.5725e-08 -0 1.34767e-08)
(-1.32038e-06 -0.000826893 -0 1.32069e-06 -0 -3.0044e-10)
(-1.08217e-07 -0.000830973 -0 1.70634e-07 -0 -6.24168e-08)
(4.29607e-07 -0.000695165 -0 -4.2972e-07 -0 1.13614e-10)
(1.77586e-07 -0.000686601 -0 -1.79798e-07 -0 2.21196e-09)
(-1.35996e-06 -0.000685799 -0 1.34681e-06 -0 1.31439e-08)
(-3.66717e-07 -0.000689101 -0 3.15778e-07 -0 5.09385e-08)
(4.27272e-07 -0.000563015 -0 -3.96886e-07 -0 -3.03863e-08)
(2.41711e-07 -0.000557241 -0 -2.32256e-07 -0 -9.45444e-09)
(-1.42004e-06 -0.00055675 -0 1.43723e-06 -0 -1.71851e-08)
(-1.07133e-07 -0.000558333 -0 1.7108e-07 -0 -6.39475e-08)
(3.74083e-07 -0.000440032 -0 -3.47846e-07 -0 -2.62367e-08)
(3.84472e-07 -0.000437617 -0 -3.83294e-07 -0 -1.17708e-09)
(-1.36408e-06 -0.000436502 -0 1.31978e-06 -0 4.4297e-08)
(-3.51753e-07 -0.000437291 -0 3.06785e-07 -0 4.49676e-08)
(4.00312e-07 -0.000324922 -0 -4.37782e-07 -0 3.74702e-08)
(4.36851e-07 -0.000324981 -0 -5.0375e-07 -0 6.6899e-08)
(-1.39027e-06 -0.000324198 -0 1.3902e-06 -0 7.00567e-11)
(-1.43558e-08 -0.000323591 -0 8.88145e-08 -0 -7.44586e-08)
(2.39225e-07 -0.000214247 -0 -2.07326e-07 -0 -3.18997e-08)
(3.90314e-07 -0.000218369 -0 -3.70099e-07 -0 -2.02153e-08)
(-1.34778e-06 -0.000216987 -0 1.33552e-06 -0 1.22637e-08)
(-2.32203e-07 -0.000215483 -0 1.78487e-07 -0 5.37161e-08)
(1.64569e-07 -0.000108539 -0 -1.5806e-07 -0 -6.50956e-09)
(3.23644e-07 -0.000115178 -0 -3.68302e-07 -0 4.46583e-08)
(-1.25566e-06 -0.000113704 -0 1.2199e-06 -0 3.57581e-08)
(1.70987e-07 -0.00011128 -0 -8.57275e-08 -0 -8.52598e-08)
(5.99898e-08 -2.48487e-06 -0 -7.72263e-08 -0 1.72365e-08)
(2.19563e-07 -1.42618e-05 -0 -2.00654e-07 -0 -1.89095e-08)
(-1.27132e-06 -1.1771e-05 -0 1.3155e-06 -0 -4.41829e-08)
(-8.78619e-08 -8.28383e-06 -0 9.56485e-09 -0 7.82971e-08)
(6.73028e-07 -0.00230172 -0 -6.27135e-07 -0 -4.58931e-08)
(9.57409e-07 -0.00230748 -0 -8.8432e-07 -0 -7.30889e-08)
(1.1303e-07 -0.00230538 -0 -1.23168e-07 -0 1.01386e-08)
(1.84915e-07 -0.00230358 -0 -2.10876e-07 -0 2.59605e-08)
(5.43882e-07 -0.00202971 -0 -5.91735e-07 -0 4.78535e-08)
(5.47993e-07 -0.00203737 -0 -6.0395e-07 -0 5.59572e-08)
(2.76235e-07 -0.00203267 -0 -2.22534e-07 -0 -5.37008e-08)
(4.90036e-07 -0.00203041 -0 -4.83347e-07 -0 -6.68957e-09)
(4.2585e-07 -0.00177739 -0 -4.09871e-07 -0 -1.59793e-08)
(8.91474e-07 -0.00178179 -0 -8.4638e-07 -0 -4.50935e-08)
(3.63093e-07 -0.00177776 -0 -3.86105e-07 -0 2.30113e-08)
(2.5177e-07 -0.00177897 -0 -2.8927e-07 -0 3.75002e-08)
(5.35605e-07 -0.00154717 -0 -5.48283e-07 -0 1.26778e-08)
(5.80752e-07 -0.00155593 -0 -6.76782e-07 -0 9.60295e-08)
(4.06442e-07 -0.00154841 -0 -3.84232e-07 -0 -2.22101e-08)
(3.29644e-07 -0.00155115 -0 -2.89058e-07 -0 -4.05864e-08)
(3.00607e-07 -0.00134065 -0 -3.25839e-07 -0 2.5232e-08)
(8.33023e-07 -0.00134418 -0 -7.66712e-07 -0 -6.63111e-08)
(4.79858e-07 -0.00133569 -0 -4.55293e-07 -0 -2.45654e-08)
(3.8807e-08 -0.00134555 -0 -1.05337e-07 -0 6.65303e-08)
(4.55394e-07 -0.00115393 -0 -4.4023e-07 -0 -1.51636e-08)
(7.43498e-07 -0.00115782 -0 -8.32373e-07 -0 8.88755e-08)
(4.28317e-07 -0.00114639 -0 -4.68722e-07 -0 4.04049e-08)
(-2.42777e-07 -0.00115302 -0 2.88977e-07 -0 -4.62e-08)
(2.17431e-07 -0.000983738 -0 -2.31162e-07 -0 1.3731e-08)
(1.06033e-06 -0.00098304 -0 -9.65877e-07 -0 -9.44565e-08)
(6.06183e-07 -0.000976066 -0 -5.43345e-07 -0 -6.28384e-08)
(-5.5991e-07 -0.000984988 -0 5.07463e-07 -0 5.24467e-08)
(5.24635e-07 -0.000828762 -0 -4.86545e-07 -0 -3.80899e-08)
(9.96893e-07 -0.000830225 -0 -1.07946e-06 -0 8.25699e-08)
(3.76645e-07 -0.000823416 -0 -4.25559e-07 -0 4.89145e-08)
(-8.1807e-07 -0.000828873 -0 8.30296e-07 -0 -1.22256e-08)
(2.92196e-07 -0.000685642 -0 -3.59572e-07 -0 6.73765e-08)
(1.28765e-06 -0.000684559 -0 -1.23897e-06 -0 -4.868e-08)
(6.43498e-07 -0.000681934 -0 -5.68205e-07 -0 -7.52927e-08)
(-1.06537e-06 -0.000687483 -0 1.03669e-06 -0 2.86803e-08)
(6.70979e-07 -0.000556053 -0 -6.31718e-07 -0 -3.92616e-08)
(1.13323e-06 -0.000556963 -0 -1.22549e-06 -0 9.22607e-08)
(3.15041e-07 -0.000553716 -0 -3.95125e-07 -0 8.0084e-08)
(-1.24485e-06 -0.000556412 -0 1.24076e-06 -0 4.09024e-09)
(2.87913e-07 -0.000433341 -0 -3.09591e-07 -0 2.16777e-08)
(1.30628e-06 -0.000432712 -0 -1.19599e-06 -0 -1.10284e-07)
(6.12285e-07 -0.000433416 -0 -4.82748e-07 -0 -1.29537e-07)
(-1.40136e-06 -0.000434828 -0 1.39723e-06 -0 4.12826e-09)
(7.84865e-07 -0.000320822 -0 -7.11347e-07 -0 -7.35183e-08)
(1.10765e-06 -0.000321841 -0 -1.17494e-06 -0 6.72901e-08)
(2.73427e-07 -0.00032215 -0 -3.77735e-07 -0 1.04309e-07)
(-1.44152e-06 -0.000321164 -0 1.41262e-06 -0 2.88993e-08)
(4.10684e-07 -0.000211058 -0 -5.01483e-07 -0 9.07993e-08)
(1.32399e-06 -0.000211006 -0 -1.27445e-06 -0 -4.95412e-08)
(6.42087e-07 -0.000215544 -0 -5.15138e-07 -0 -1.2695e-07)
(-1.50163e-06 -0.000212687 -0 1.50512e-06 -0 -3.48943e-09)
(8.4169e-07 -0.000110074 -0 -6.80851e-07 -0 -1.60839e-07)
(9.08342e-07 -0.000111349 -0 -9.25052e-07 -0 1.67099e-08)
(2.05175e-07 -0.000113821 -0 -2.92539e-07 -0 8.73639e-08)
(-1.41838e-06 -0.000108396 -0 1.40989e-06 -0 8.48921e-09)
(5.49857e-07 -9.53498e-06 -0 -7.87455e-07 -0 2.37597e-07)
(1.31071e-06 -9.92741e-06 -0 -1.37268e-06 -0 6.19702e-08)
(8.35851e-07 -1.38884e-05 -0 -7.99578e-07 -0 -3.62733e-08)
(-1.2764e-06 -5.79792e-06 -0 1.23175e-06 -0 4.46535e-08)
)
;

boundaryField
{
    topWall
    {
        type            calculated;
        value           nonuniform List<symmTensor> 0();
    }
    botWall
    {
        type            calculated;
        value           nonuniform List<symmTensor> 0();
    }
    inlet
    {
        type            cyclic;
    }
    outlet
    {
        type            cyclic;
    }
    fixWall
    {
        type            empty;
    }
    procBoundary5to4
    {
        type            processor;
        value           nonuniform List<symmTensor> 8((-5.00078e-07 -0.00260744 -0 4.72696e-07 -0 2.73819e-08) (-1.23455e-06 -0.00260432 -0 1.15811e-06 -0 7.6435e-08) (-3.07406e-07 -0.00260503 -0 2.90113e-07 -0 1.72929e-08) (1.64063e-07 -0.00260408 -0 -1.00057e-07 -0 -6.40066e-08) (6.06377e-07 -0.00260605 -0 -5.55229e-07 -0 -5.11487e-08) (6.01045e-07 -0.00260854 -0 -5.93037e-07 -0 -8.00801e-09) (1.79149e-07 -0.00260564 -0 -1.63666e-07 -0 -1.54834e-08) (4.75086e-07 -0.0026065 -0 -4.76311e-07 -0 1.22451e-09));
    }
    procBoundary5to6
    {
        type            processor;
        value           nonuniform List<symmTensor> 8((-2.26371e-07 9.95893e-05 -0 3.3902e-07 -0 -1.12649e-07) (-1.18313e-07 8.5901e-05 -0 2.05832e-07 -0 -8.75187e-08) (-1.07608e-06 8.99418e-05 -0 1.06355e-06 -0 1.25211e-08) (2.66568e-07 9.3827e-05 -0 -2.03465e-07 -0 -6.31023e-08) (8.22926e-07 9.20953e-05 -0 -7.03722e-07 -0 -1.19204e-07) (8.08647e-07 9.05041e-05 -0 -8.70901e-07 -0 6.22542e-08) (3.14141e-07 8.47439e-05 -0 -3.68094e-07 -0 5.39523e-08) (-1.05564e-06 9.53557e-05 -0 1.06601e-06 -0 -1.03724e-08));
    }
}


// ************************************************************************* //
