/*--------------------------------*- C++ -*----------------------------------*\
  =========                 |
  \\      /  F ield         | OpenFOAM: The Open Source CFD Toolbox
   \\    /   O peration     | Website:  https://openfoam.org
    \\  /    A nd           | Version:  dev
     \\/     M anipulation  |

   OpenFOAM for Windows 20.09 (v1)
   Built by CFD Support, www.cfdsupport.com (based on Symscape).
\*---------------------------------------------------------------------------*/
FoamFile
{
    version     2.0;
    format      ascii;
    class       volScalarField;
    location    "10";
    object      epsilon;
}
// * * * * * * * * * * * * * * * * * * * * * * * * * * * * * * * * * * * * * //

dimensions      [0 2 -3 0 0 0 0];

internalField   nonuniform List<scalar> 
120
(
5.08528e-12
5.21422e-12
5.23115e-12
5.22752e-12
4.16514e-12
4.3116e-12
4.32627e-12
4.32306e-12
3.4141e-12
3.57195e-12
3.58441e-12
3.58144e-12
2.80481e-12
2.96718e-12
2.97747e-12
2.97435e-12
2.31407e-12
2.4742e-12
2.48258e-12
2.47909e-12
1.92031e-12
2.07337e-12
2.08023e-12
2.07617e-12
1.60499e-12
1.7478e-12
1.7535e-12
1.74878e-12
1.35254e-12
1.48326e-12
1.48818e-12
1.48273e-12
1.15014e-12
1.26785e-12
1.27236e-12
1.26622e-12
9.86821e-13
1.0911e-12
1.09548e-12
1.08878e-12
8.54771e-13
9.45606e-13
9.50022e-13
9.4293e-13
7.47678e-13
8.25294e-13
8.29887e-13
8.22578e-13
6.60406e-13
7.25254e-13
7.30116e-13
7.22754e-13
5.88686e-13
6.41537e-13
6.46721e-13
6.39445e-13
5.28762e-13
5.70994e-13
5.76506e-13
5.69429e-13
5.22142e-12
5.22867e-12
5.22208e-12
5.20972e-12
4.31635e-12
4.32426e-12
4.31773e-12
4.30091e-12
3.5756e-12
3.58239e-12
3.57801e-12
3.55563e-12
2.96872e-12
2.97573e-12
2.97229e-12
2.94647e-12
2.47336e-12
2.48095e-12
2.47824e-12
2.45056e-12
2.07e-12
2.07861e-12
2.07659e-12
2.0482e-12
1.74179e-12
1.75183e-12
1.75054e-12
1.72242e-12
1.47447e-12
1.48643e-12
1.48586e-12
1.45866e-12
1.25602e-12
1.27045e-12
1.27057e-12
1.2448e-12
1.07583e-12
1.09342e-12
1.09416e-12
1.07014e-12
9.26157e-13
9.47893e-13
9.49175e-13
9.27056e-13
8.01843e-13
8.28262e-13
8.29451e-13
8.0934e-13
6.98854e-13
7.28915e-13
7.301e-13
7.11934e-13
6.13407e-13
6.4593e-13
6.47129e-13
6.30769e-13
5.42204e-13
5.7612e-13
5.77318e-13
5.6255e-13
)
;

boundaryField
{
    topWall
    {
        type            epsilonWallFunction;
        value           nonuniform List<scalar> 0();
    }
    botWall
    {
        type            epsilonWallFunction;
        value           nonuniform List<scalar> 0();
    }
    inlet
    {
        type            cyclic;
    }
    outlet
    {
        type            cyclic;
    }
    fixWall
    {
        type            empty;
    }
    procBoundary5to4
    {
        type            processor;
        value           nonuniform List<scalar> 8(6.22392e-12 6.33184e-12 6.35107e-12 6.34681e-12 6.34421e-12 6.34765e-12 6.34272e-12 6.33376e-12);
    }
    procBoundary5to6
    {
        type            processor;
        value           nonuniform List<scalar> 8(4.78716e-13 5.12509e-13 5.18333e-13 5.11522e-13 4.838e-13 5.18327e-13 5.19467e-13 5.06e-13);
    }
}


// ************************************************************************* //
