/*--------------------------------*- C++ -*----------------------------------*\
  =========                 |
  \\      /  F ield         | OpenFOAM: The Open Source CFD Toolbox
   \\    /   O peration     | Website:  https://openfoam.org
    \\  /    A nd           | Version:  dev
     \\/     M anipulation  |

   OpenFOAM for Windows 20.09 (v1)
   Built by CFD Support, www.cfdsupport.com (based on Symscape).
\*---------------------------------------------------------------------------*/
FoamFile
{
    version     2.0;
    format      ascii;
    class       volVectorField;
    location    "10";
    object      gradp;
}
// * * * * * * * * * * * * * * * * * * * * * * * * * * * * * * * * * * * * * //

dimensions      [1 -2 -2 0 0 0 0];

internalField   nonuniform List<vector> 
120
(
(3.74789 -9.80827 0)
(-1.25285 -9.8085 0)
(-1.24976 -9.81006 0)
(-1.24862 -9.81055 0)
(3.74792 -9.80801 0)
(-1.25286 -9.808 0)
(-1.24978 -9.80989 0)
(-1.24865 -9.81058 0)
(3.74794 -9.80786 0)
(-1.25288 -9.80779 0)
(-1.24981 -9.81 0)
(-1.24866 -9.81064 0)
(3.74797 -9.80787 0)
(-1.2529 -9.80778 0)
(-1.24983 -9.81015 0)
(-1.24868 -9.81069 0)
(3.748 -9.80806 0)
(-1.25292 -9.80802 0)
(-1.24986 -9.81034 0)
(-1.2487 -9.81069 0)
(3.74802 -9.80827 0)
(-1.25294 -9.80822 0)
(-1.24988 -9.81043 0)
(-1.24871 -9.81069 0)
(3.74804 -9.80831 0)
(-1.25295 -9.80824 0)
(-1.2499 -9.8104 0)
(-1.24871 -9.81068 0)
(3.74807 -9.80834 0)
(-1.25297 -9.80828 0)
(-1.24992 -9.81037 0)
(-1.24872 -9.81068 0)
(3.74809 -9.80837 0)
(-1.25299 -9.80831 0)
(-1.24994 -9.81034 0)
(-1.24873 -9.81068 0)
(3.74811 -9.80838 0)
(-1.253 -9.80835 0)
(-1.24996 -9.81029 0)
(-1.24874 -9.8107 0)
(3.74813 -9.80837 0)
(-1.25302 -9.80827 0)
(-1.24998 -9.81009 0)
(-1.24875 -9.81078 0)
(3.74815 -9.80813 0)
(-1.25303 -9.80789 0)
(-1.25 -9.80982 0)
(-1.24877 -9.8109 0)
(3.74818 -9.80794 0)
(-1.25305 -9.80763 0)
(-1.25003 -9.80969 0)
(-1.24879 -9.81095 0)
(3.7482 -9.80807 0)
(-1.25306 -9.80772 0)
(-1.25005 -9.80968 0)
(-1.24881 -9.81091 0)
(3.74823 -9.80843 0)
(-1.25307 -9.80827 0)
(-1.25008 -9.81 0)
(-1.24884 -9.81067 0)
(-1.24889 -9.8122 0)
(-1.2481 -9.8128 0)
(-1.24924 -9.81163 0)
(3.74957 -9.81108 0)
(-1.24892 -9.81236 0)
(-1.24809 -9.81337 0)
(-1.24922 -9.81188 0)
(3.7496 -9.81099 0)
(-1.24894 -9.81225 0)
(-1.24809 -9.81356 0)
(-1.2492 -9.81211 0)
(3.74963 -9.81093 0)
(-1.24897 -9.81206 0)
(-1.24809 -9.81337 0)
(-1.24917 -9.8122 0)
(3.74967 -9.811 0)
(-1.24899 -9.81173 0)
(-1.24809 -9.81311 0)
(-1.24916 -9.81232 0)
(3.7497 -9.81102 0)
(-1.24901 -9.8115 0)
(-1.2481 -9.81292 0)
(-1.24914 -9.81223 0)
(3.74974 -9.81106 0)
(-1.24902 -9.81142 0)
(-1.2481 -9.81291 0)
(-1.24913 -9.8122 0)
(3.74977 -9.81109 0)
(-1.24904 -9.81146 0)
(-1.24811 -9.81298 0)
(-1.24911 -9.81219 0)
(3.7498 -9.81101 0)
(-1.24906 -9.81141 0)
(-1.24811 -9.81296 0)
(-1.24909 -9.81223 0)
(3.74983 -9.81095 0)
(-1.24908 -9.81147 0)
(-1.24812 -9.81302 0)
(-1.24907 -9.81225 0)
(3.74987 -9.81086 0)
(-1.2491 -9.81179 0)
(-1.24813 -9.81337 0)
(-1.24906 -9.81243 0)
(3.7499 -9.81082 0)
(-1.24912 -9.81222 0)
(-1.24813 -9.81379 0)
(-1.24903 -9.81253 0)
(3.74994 -9.81071 0)
(-1.24915 -9.81234 0)
(-1.24813 -9.81389 0)
(-1.24901 -9.81253 0)
(3.74997 -9.81062 0)
(-1.24917 -9.81226 0)
(-1.24814 -9.81368 0)
(-1.24898 -9.8124 0)
(3.75001 -9.81055 0)
(-1.24919 -9.81144 0)
(-1.24813 -9.81286 0)
(-1.24895 -9.812 0)
(3.75004 -9.81039 0)
)
;

boundaryField
{
    topWall
    {
        type            extrapolatedCalculated;
        value           nonuniform List<vector> 0();
    }
    botWall
    {
        type            extrapolatedCalculated;
        value           nonuniform List<vector> 0();
    }
    inlet
    {
        type            cyclic;
    }
    outlet
    {
        type            cyclic;
    }
    fixWall
    {
        type            empty;
    }
    procBoundary5to4
    {
        type            processor;
        value           nonuniform List<vector> 8((3.74787 -9.8086 0) (-1.25283 -9.80912 0) (-1.24975 -9.81051 0) (-1.24861 -9.81049 0) (-1.24888 -9.81173 0) (-1.2481 -9.812 0) (-1.24925 -9.81149 0) (3.74954 -9.81119 0));
    }
    procBoundary5to6
    {
        type            processor;
        value           nonuniform List<vector> 8((3.74824 -9.80927 0) (-1.25309 -9.80938 0) (-1.25009 -9.81039 0) (-1.24884 -9.81031 0) (-1.24921 -9.81044 0) (-1.24815 -9.81188 0) (-1.24894 -9.81181 0) (3.75007 -9.81034 0));
    }
}


// ************************************************************************* //
