/*--------------------------------*- C++ -*----------------------------------*\
  =========                 |
  \\      /  F ield         | OpenFOAM: The Open Source CFD Toolbox
   \\    /   O peration     | Website:  https://openfoam.org
    \\  /    A nd           | Version:  dev
     \\/     M anipulation  |

   OpenFOAM for Windows 20.09 (v1)
   Built by CFD Support, www.cfdsupport.com (based on Symscape).
\*---------------------------------------------------------------------------*/
FoamFile
{
    version     2.0;
    format      ascii;
    class       volVectorField;
    location    "10";
    object      gradp_rgh;
}
// * * * * * * * * * * * * * * * * * * * * * * * * * * * * * * * * * * * * * //

dimensions      [1 -2 -2 0 0 0 0];

internalField   nonuniform List<vector> 
120
(
(-1.25211 0.00173114 0)
(-1.25285 0.00149936 0)
(-1.24976 -5.51791e-05 0)
(-1.24862 -0.000550071 0)
(-1.25208 0.00198986 0)
(-1.25286 0.00199822 0)
(-1.24978 0.000106626 0)
(-1.24865 -0.00058437 0)
(-1.25206 0.00214179 0)
(-1.25288 0.00221346 0)
(-1.24981 3.49649e-06 0)
(-1.24866 -0.000637442 0)
(-1.25203 0.00213125 0)
(-1.2529 0.00221986 0)
(-1.24983 -0.000150167 0)
(-1.24868 -0.000689906 0)
(-1.252 0.00193983 0)
(-1.25292 0.00197651 0)
(-1.24986 -0.000335441 0)
(-1.2487 -0.00068713 0)
(-1.25198 0.00173207 0)
(-1.25294 0.00177722 0)
(-1.24988 -0.0004251 0)
(-1.24871 -0.000691358 0)
(-1.25196 0.00168703 0)
(-1.25295 0.00176482 0)
(-1.2499 -0.00040364 0)
(-1.24871 -0.000680318 0)
(-1.25193 0.00166281 0)
(-1.25297 0.00172101 0)
(-1.24992 -0.000372318 0)
(-1.24872 -0.00068215 0)
(-1.25191 0.00163468 0)
(-1.25299 0.00169185 0)
(-1.24994 -0.000339822 0)
(-1.24873 -0.000676595 0)
(-1.25189 0.00161731 0)
(-1.253 0.00165008 0)
(-1.24996 -0.00029115 0)
(-1.24874 -0.000703065 0)
(-1.25187 0.00162689 0)
(-1.25302 0.00173475 0)
(-1.24998 -8.84386e-05 0)
(-1.24875 -0.00078262 0)
(-1.25185 0.0018703 0)
(-1.25303 0.00210889 0)
(-1.25 0.000181372 0)
(-1.24877 -0.000899033 0)
(-1.25182 0.00205604 0)
(-1.25305 0.00237403 0)
(-1.25003 0.000308577 0)
(-1.24879 -0.000954799 0)
(-1.2518 0.00193285 0)
(-1.25306 0.00227515 0)
(-1.25005 0.000324804 0)
(-1.24881 -0.000910732 0)
(-1.25177 0.00157463 0)
(-1.25307 0.00173024 0)
(-1.25008 4.14884e-06 0)
(-1.24884 -0.000667751 0)
(-1.24889 -0.0021952 0)
(-1.2481 -0.00279926 0)
(-1.24924 -0.00163329 0)
(-1.25043 -0.00108285 0)
(-1.24892 -0.00235908 0)
(-1.24809 -0.00337434 0)
(-1.24922 -0.00188334 0)
(-1.2504 -0.00098828 0)
(-1.24894 -0.00225097 0)
(-1.24809 -0.00356286 0)
(-1.2492 -0.00210524 0)
(-1.25037 -0.000929199 0)
(-1.24897 -0.00206289 0)
(-1.24809 -0.00336877 0)
(-1.24917 -0.00220286 0)
(-1.25033 -0.00099725 0)
(-1.24899 -0.0017319 0)
(-1.24809 -0.00310545 0)
(-1.24916 -0.00231707 0)
(-1.2503 -0.00102395 0)
(-1.24901 -0.0015036 0)
(-1.2481 -0.00291992 0)
(-1.24914 -0.00223201 0)
(-1.25026 -0.0010553 0)
(-1.24902 -0.00142429 0)
(-1.2481 -0.00291495 0)
(-1.24913 -0.00220189 0)
(-1.25023 -0.0010889 0)
(-1.24904 -0.00146388 0)
(-1.24811 -0.00298446 0)
(-1.24911 -0.00219018 0)
(-1.2502 -0.00100803 0)
(-1.24906 -0.00141434 0)
(-1.24811 -0.00296185 0)
(-1.24909 -0.00222788 0)
(-1.25017 -0.000947719 0)
(-1.24908 -0.00146714 0)
(-1.24812 -0.00301505 0)
(-1.24907 -0.00225022 0)
(-1.25013 -0.000859874 0)
(-1.2491 -0.00178794 0)
(-1.24813 -0.003366 0)
(-1.24906 -0.00242756 0)
(-1.2501 -0.000817323 0)
(-1.24912 -0.00221866 0)
(-1.24813 -0.00379335 0)
(-1.24903 -0.00253365 0)
(-1.25006 -0.000711346 0)
(-1.24915 -0.00234476 0)
(-1.24813 -0.00388807 0)
(-1.24901 -0.00252814 0)
(-1.25003 -0.000615694 0)
(-1.24917 -0.00225964 0)
(-1.24814 -0.00368137 0)
(-1.24898 -0.00239618 0)
(-1.24999 -0.000550873 0)
(-1.24919 -0.00144052 0)
(-1.24813 -0.00285934 0)
(-1.24895 -0.00200424 0)
(-1.24996 -0.000392386 0)
)
;

boundaryField
{
    topWall
    {
        type            extrapolatedCalculated;
        value           nonuniform List<vector> 0();
    }
    botWall
    {
        type            extrapolatedCalculated;
        value           nonuniform List<vector> 0();
    }
    inlet
    {
        type            cyclic;
    }
    outlet
    {
        type            cyclic;
    }
    fixWall
    {
        type            empty;
    }
    procBoundary5to4
    {
        type            processor;
        value           nonuniform List<vector> 8((-1.25213 0.00140415 0) (-1.25283 0.000875881 0) (-1.24975 -0.000506974 0) (-1.24861 -0.000494128 0) (-1.24888 -0.00172513 0) (-1.2481 -0.00199785 0) (-1.24925 -0.00149493 0) (-1.25046 -0.00119492 0));
    }
    procBoundary5to6
    {
        type            processor;
        value           nonuniform List<vector> 8((-1.25176 0.000727427 0) (-1.25309 0.000618281 0) (-1.25009 -0.000388802 0) (-1.24884 -0.00030647 0) (-1.24921 -0.000438293 0) (-1.24815 -0.00188086 0) (-1.24894 -0.00181452 0) (-1.24993 -0.000338444 0));
    }
}


// ************************************************************************* //
