/*--------------------------------*- C++ -*----------------------------------*\
  =========                 |
  \\      /  F ield         | OpenFOAM: The Open Source CFD Toolbox
   \\    /   O peration     | Website:  https://openfoam.org
    \\  /    A nd           | Version:  dev
     \\/     M anipulation  |

   OpenFOAM for Windows 20.09 (v1)
   Built by CFD Support, www.cfdsupport.com (based on Symscape).
\*---------------------------------------------------------------------------*/
FoamFile
{
    version     2.0;
    format      ascii;
    class       volTensorField;
    location    "10";
    object      gradU;
}
// * * * * * * * * * * * * * * * * * * * * * * * * * * * * * * * * * * * * * //

dimensions      [0 0 -1 0 0 0 0];

internalField   nonuniform List<tensor> 
120
(
(0.00103351 -1.28553e-05 0 12.2145 -0.00126143 0 0 0 0)
(0.0029336 0.000219497 0 12.192 -0.00266962 0 0 0 0)
(0.00114429 4.22153e-05 0 12.2055 -0.000957236 0 0 0 0)
(0.000218452 -0.000112361 0 12.2044 8.83898e-05 0 0 0 0)
(0.00112029 -4.06671e-05 0 10.764 -0.00117812 0 0 0 0)
(0.00332416 0.000230357 0 10.7227 -0.00322603 0 0 0 0)
(0.00106851 9.64902e-05 0 10.7422 -0.00131719 0 0 0 0)
(-0.000703938 -4.39404e-05 0 10.7545 0.000396493 0 0 0 0)
(0.000397748 -8.76749e-05 0 9.44183 -0.000496116 0 0 0 0)
(0.00257064 0.000217179 0 9.38142 -0.00264916 0 0 0 0)
(0.00167432 0.000102591 0 9.41432 -0.00154944 0 0 0 0)
(0.000479076 -6.21594e-05 0 9.44822 -0.000309827 0 0 0 0)
(0.000339823 -9.92521e-05 0 8.24474 -0.000432751 0 0 0 0)
(0.00286556 0.000212801 0 8.16538 -0.00264304 0 0 0 0)
(0.00218186 0.000135479 0 8.19479 -0.00220996 0 0 0 0)
(-0.000599931 -7.19611e-07 0 8.22045 0.000247863 0 0 0 0)
(-0.000525802 -0.0001427 0 7.16893 0.000225322 0 0 0 0)
(0.00173811 0.000187559 0 7.06828 -0.00217947 0 0 0 0)
(0.00259227 0.000150772 0 7.08191 -0.00258646 0 0 0 0)
(0.000571656 -5.5088e-07 0 7.11631 -0.000276548 0 0 0 0)
(-0.00070742 -0.000143167 0 6.1685 0.000605944 0 0 0 0)
(0.00141521 0.000165938 0 6.08543 -0.00101967 0 0 0 0)
(0.00298236 0.000167194 0 6.09441 -0.00287969 0 0 0 0)
(-0.000201395 5.78937e-05 0 6.12553 -0.000245528 0 0 0 0)
(-0.000947873 -0.00014489 0 5.26972 0.00099406 0 0 0 0)
(0.00050319 0.000129465 0 5.19429 -0.000559476 0 0 0 0)
(0.00326059 0.000163675 0 5.19477 -0.00313212 0 0 0 0)
(0.00093426 6.62178e-05 0 5.22524 -0.000594723 0 0 0 0)
(-0.00113852 -0.000132396 0 4.44044 0.000904121 0 0 0 0)
(0.000166098 9.71688e-05 0 4.38135 -5.89581e-05 0 0 0 0)
(0.00349822 0.000166607 0 4.38237 -0.00350061 0 0 0 0)
(0.00012137 0.000120912 0 4.40403 -0.000617584 0 0 0 0)
(-0.00113816 -0.000108662 0 3.68448 0.00113906 0 0 0 0)
(-0.000464741 5.6053e-05 0 3.63893 0.000482327 0 0 0 0)
(0.00363872 0.000154364 0 3.63458 -0.00353423 0 0 0 0)
(0.00110679 0.000144368 0 3.65209 -0.000701826 0 0 0 0)
(-0.00121279 -7.98364e-05 0 2.98406 0.000971224 0 0 0 0)
(-0.000665587 1.92807e-05 0 2.95336 0.000590425 0 0 0 0)
(0.00371757 0.000146871 0 2.95063 -0.00385419 0 0 0 0)
(0.000114441 0.000198672 0 2.95897 -0.000622824 0 0 0 0)
(-0.00106085 -4.42016e-05 0 2.33221 0.000852265 0 0 0 0)
(-0.00102197 -2.43706e-05 0 2.3194 0.00101261 0 0 0 0)
(0.0037322 0.000134144 0 2.31333 -0.00338004 0 0 0 0)
(0.00105131 0.000234771 0 2.31741 -0.000693816 0 0 0 0)
(-0.00096153 -1.43079e-06 0 1.72209 0.00125942 0 0 0 0)
(-0.000980373 -5.12577e-05 0 1.72245 0.00151222 0 0 0 0)
(0.00368441 0.000118431 0 1.71813 -0.00368385 0 0 0 0)
(-0.000159272 0.000269637 0 1.71477 -0.000432674 0 0 0 0)
(-0.000718482 4.21165e-05 0 1.13547 0.000464879 0 0 0 0)
(-0.0010879 -0.000106758 0 1.15746 0.000927191 0 0 0 0)
(0.00360412 0.000101729 0 1.14993 -0.00350663 0 0 0 0)
(0.000757686 0.00032434 0 1.14174 -0.000330643 0 0 0 0)
(-0.000453359 8.06527e-05 0 0.575174 0.000401608 0 0 0 0)
(-0.000739312 -0.000117449 0 0.61056 0.00109435 0 0 0 0)
(0.00342226 9.74668e-05 0 0.602531 -0.00313798 0 0 0 0)
(-0.000679055 0.00035424 0 0.589428 1.23948e-06 0 0 0 0)
(-0.000113296 0.000122251 0 0.0130476 0.000250327 0 0 0 0)
(-0.000631953 -0.000165752 0 0.0757534 0.000481623 0 0 0 0)
(0.00325191 8.35102e-05 0 0.0623026 -0.00360317 0 0 0 0)
(0.000440321 0.000399607 0 0.0435047 0.00018214 0 0 0 0)
(-0.00190514 -0.000424089 0 12.1995 0.00154029 0 0 0 0)
(-0.00273082 -0.000449875 0 12.2301 0.00214976 0 0 0 0)
(-0.000272662 0.000394729 0 12.2181 0.000353263 0 0 0 0)
(-0.000421229 0.000342739 0 12.2086 0.000627616 0 0 0 0)
(-0.00131447 -0.000407123 0 10.7579 0.00169491 0 0 0 0)
(-0.0013039 -0.000497568 0 10.7986 0.00174875 0 0 0 0)
(-0.00087433 0.0003513 0 10.7728 0.000447408 0 0 0 0)
(-0.00131632 0.000311151 0 10.7609 0.00126314 0 0 0 0)
(-0.00117085 -0.000401551 0 9.42056 0.00104381 0 0 0 0)
(-0.0024819 -0.000470667 0 9.44394 0.00212341 0 0 0 0)
(-0.000901217 0.000386635 0 9.42172 0.00108416 0 0 0 0)
(-0.000567814 0.000315647 0 9.42825 0.000865941 0 0 0 0)
(-0.00138576 -0.000366569 0 8.20034 0.00148655 0 0 0 0)
(-0.00128452 -0.000496895 0 8.24692 0.00204795 0 0 0 0)
(-0.00113593 0.000330342 0 8.20626 0.000959359 0 0 0 0)
(-0.000981112 0.000284813 0 8.22079 0.00065845 0 0 0 0)
(-0.000729744 -0.00037155 0 7.10582 0.000930338 0 0 0 0)
(-0.00238324 -0.000479453 0 7.12464 0.00185606 0 0 0 0)
(-0.00133672 0.000363477 0 7.07881 0.00114143 0 0 0 0)
(7.34668e-05 0.000292445 0 7.13111 0.000455449 0 0 0 0)
(-0.00124698 -0.000331026 0 6.11616 0.00112643 0 0 0 0)
(-0.00173475 -0.000493377 0 6.13693 0.00244131 0 0 0 0)
(-0.00102797 0.000306999 0 6.07555 0.00134919 0 0 0 0)
(0.00052093 0.000269545 0 6.11076 -0.00088822 0 0 0 0)
(-0.000539805 -0.000326769 0 5.21414 0.000648966 0 0 0 0)
(-0.00306019 -0.000475741 0 5.21059 0.00230926 0 0 0 0)
(-0.00177291 0.000307985 0 5.17284 0.00127334 0 0 0 0)
(0.00162274 0.000280058 0 5.22015 -0.00120579 0 0 0 0)
(-0.00149122 -0.000282626 0 4.39272 0.00118841 0 0 0 0)
(-0.00242296 -0.000482971 0 4.40068 0.00307939 0 0 0 0)
(-0.000868485 0.000248414 0 4.36386 0.00125736 0 0 0 0)
(0.00213549 0.00026489 0 4.39276 -0.00223268 0 0 0 0)
(-0.000595771 -0.000265153 0 3.63417 0.00113141 0 0 0 0)
(-0.00354128 -0.000474592 0 3.62864 0.00315427 0 0 0 0)
(-0.00190479 0.00021945 0 3.61403 0.00130622 0 0 0 0)
(0.00289923 0.00027417 0 3.64339 -0.00267122 0 0 0 0)
(-0.00188214 -0.000218358 0 2.9473 0.00157001 0 0 0 0)
(-0.00275856 -0.000480057 0 2.95238 0.00349203 0 0 0 0)
(-0.000622636 0.000151323 0 2.93454 0.0012593 0 0 0 0)
(0.0033097 0.000262104 0 2.94872 -0.00327718 0 0 0 0)
(-0.000705524 -0.000196572 0 2.2969 0.000877861 0 0 0 0)
(-0.00375388 -0.00047977 0 2.29385 0.00287712 0 0 0 0)
(-0.00196583 0.00010663 0 2.297 0.000936011 0 0 0 0)
(0.00372454 0.000269369 0 2.30432 -0.00369172 0 0 0 0)
(-0.00227472 -0.000158842 0 1.70051 0.00169025 0 0 0 0)
(-0.00275696 -0.000479088 0 1.70623 0.00329192 0 0 0 0)
(-0.000448162 4.1842e-05 0 1.70735 0.00127742 0 0 0 0)
(0.00389661 0.000260708 0 1.70191 -0.00366686 0 0 0 0)
(-0.000847694 -0.000134496 0 1.11874 0.00156955 0 0 0 0)
(-0.00363986 -0.00048665 0 1.11882 0.00324601 0 0 0 0)
(-0.00203795 -9.34947e-06 0 1.14239 0.0010287 0 0 0 0)
(0.00397008 0.000269069 0 1.12697 -0.00399782 0 0 0 0)
(-0.0026567 -9.92311e-05 0 0.58349 0.00137803 0 0 0 0)
(-0.00236282 -0.000488102 0 0.59064 0.00249567 0 0 0 0)
(-0.000312199 -7.88885e-05 0 0.603332 0.00100674 0 0 0 0)
(0.00378119 0.000251311 0 0.574249 -0.0037137 0 0 0 0)
(-0.000827489 -9.29218e-05 0 0.0506283 0.00271639 0 0 0 0)
(-0.00330916 -0.000492839 0 0.0531081 0.00380182 0 0 0 0)
(-0.00231113 -0.000112839 0 0.0737213 0.00202276 0 0 0 0)
(0.00350079 0.000258984 0 0.03047 -0.00314579 0 0 0 0)
)
;

boundaryField
{
    topWall
    {
        type            extrapolatedCalculated;
        value           nonuniform List<tensor> 0();
    }
    botWall
    {
        type            extrapolatedCalculated;
        value           nonuniform List<tensor> 0();
    }
    inlet
    {
        type            cyclic;
    }
    outlet
    {
        type            cyclic;
    }
    fixWall
    {
        type            empty;
    }
    procBoundary5to4
    {
        type            processor;
        value           nonuniform List<tensor> 8((0.00139777 1.42869e-05 0 13.8194 -0.00118008 0 0 0 0) (0.00347411 0.000225287 0 13.8027 -0.00286645 0 0 0 0) (0.000860452 5.05233e-05 0 13.8066 -0.000722973 0 0 0 0) (-0.000604385 -8.55659e-05 0 13.8017 9.55326e-05 0 0 0 0) (-0.00174244 -0.000441479 0 13.8125 0.00133581 0 0 0 0) (-0.00161399 -0.000477784 0 13.8257 0.00155033 0 0 0 0) (-0.000515776 0.000376669 0 13.8095 0.000392683 0 0 0 0) (-0.00125573 0.000338063 0 13.8141 0.00126547 0 0 0 0));
    }
    procBoundary5to6
    {
        type            processor;
        value           nonuniform List<tensor> 8((0.000301365 0.00014111 0 -0.527964 -0.00119692 0 0 0 0) (8.1605e-05 -0.000181674 0 -0.455093 -0.000777379 0 0 0 0) (0.00288478 9.24755e-05 0 -0.476784 -0.00278524 0 0 0 0) (-0.000873625 0.000459566 0 -0.497742 0.000371962 0 0 0 0) (-0.00249664 -3.89031e-05 0 -0.488066 0.00154897 0 0 0 0) (-0.00197794 -0.000499663 0 -0.479172 0.00247286 0 0 0 0) (-0.000689501 -0.000194682 0 -0.448948 0.00111842 0 0 0 0) (0.00276996 0.000221771 0 -0.505607 -0.00285242 0 0 0 0));
    }
}


// ************************************************************************* //
