/*--------------------------------*- C++ -*----------------------------------*\
  =========                 |
  \\      /  F ield         | OpenFOAM: The Open Source CFD Toolbox
   \\    /   O peration     | Website:  https://openfoam.org
    \\  /    A nd           | Version:  dev
     \\/     M anipulation  |

   OpenFOAM for Windows 20.09 (v1)
   Built by CFD Support, www.cfdsupport.com (based on Symscape).
\*---------------------------------------------------------------------------*/
FoamFile
{
    version     2.0;
    format      ascii;
    class       volScalarField;
    location    "10";
    object      k;
}
// * * * * * * * * * * * * * * * * * * * * * * * * * * * * * * * * * * * * * //

dimensions      [0 2 -2 0 0 0 0];

internalField   nonuniform List<scalar> 
120
(
1.67499e-12
1.71561e-12
1.7176e-12
1.71488e-12
1.45841e-12
1.50832e-12
1.51035e-12
1.50773e-12
1.26565e-12
1.32316e-12
1.32513e-12
1.32257e-12
1.09529e-12
1.15796e-12
1.15977e-12
1.1572e-12
9.46185e-13
1.01112e-12
1.01273e-12
1.01008e-12
8.16493e-13
8.81142e-13
8.82581e-13
8.7979e-13
7.04188e-13
7.66485e-13
7.67796e-13
7.64823e-13
6.07252e-13
6.65632e-13
6.66883e-13
6.63704e-13
5.23797e-13
5.77131e-13
5.78417e-13
5.75028e-13
4.52086e-13
4.99619e-13
5.01006e-13
4.97459e-13
3.90551e-13
4.31841e-13
4.33366e-13
4.29747e-13
3.37775e-13
3.72652e-13
3.74336e-13
3.70738e-13
2.92471e-13
3.21028e-13
3.22872e-13
3.19381e-13
2.53443e-13
2.76056e-13
2.78046e-13
2.74735e-13
2.19522e-13
2.36934e-13
2.39034e-13
2.35958e-13
1.71498e-12
1.71632e-12
1.7167e-12
1.71129e-12
1.50742e-12
1.50912e-12
1.50916e-12
1.50194e-12
1.32186e-12
1.32392e-12
1.32373e-12
1.31479e-12
1.15613e-12
1.15865e-12
1.15829e-12
1.14783e-12
1.00866e-12
1.01169e-12
1.01127e-12
9.99704e-13
8.77937e-13
8.81617e-13
8.81228e-13
8.6899e-13
7.6242e-13
7.66901e-13
7.6663e-13
7.54168e-13
6.60566e-13
6.66055e-13
6.65943e-13
6.53643e-13
5.70888e-13
5.7762e-13
5.77687e-13
5.65877e-13
4.91974e-13
5.00247e-13
5.00483e-13
4.89407e-13
4.22481e-13
4.32691e-13
4.3305e-13
4.2288e-13
3.61722e-13
3.73785e-13
3.74226e-13
3.65059e-13
3.09106e-13
3.22474e-13
3.22959e-13
3.14824e-13
2.63796e-13
2.77815e-13
2.78316e-13
2.71178e-13
2.24895e-13
2.38968e-13
2.39463e-13
2.33234e-13
)
;

boundaryField
{
    topWall
    {
        type            kqRWallFunction;
        value           nonuniform List<scalar> 0();
    }
    botWall
    {
        type            kqRWallFunction;
        value           nonuniform List<scalar> 0();
    }
    inlet
    {
        type            cyclic;
    }
    outlet
    {
        type            cyclic;
    }
    fixWall
    {
        type            empty;
    }
    procBoundary5to4
    {
        type            processor;
        value           nonuniform List<scalar> 8(1.91649e-12 1.94733e-12 1.94918e-12 1.94637e-12 1.94695e-12 1.94789e-12 1.94867e-12 1.94511e-12);
    }
    procBoundary5to6
    {
        type            processor;
        value           nonuniform List<scalar> 8(1.89663e-13 2.0296e-13 2.05112e-13 2.02307e-13 1.91553e-13 2.05195e-13 2.05671e-13 2.0022e-13);
    }
}


// ************************************************************************* //
