/*--------------------------------*- C++ -*----------------------------------*\
  =========                 |
  \\      /  F ield         | OpenFOAM: The Open Source CFD Toolbox
   \\    /   O peration     | Website:  https://openfoam.org
    \\  /    A nd           | Version:  dev
     \\/     M anipulation  |

   OpenFOAM for Windows 20.09 (v1)
   Built by CFD Support, www.cfdsupport.com (based on Symscape).
\*---------------------------------------------------------------------------*/
FoamFile
{
    version     2.0;
    format      ascii;
    class       volScalarField;
    location    "10";
    object      nut;
}
// * * * * * * * * * * * * * * * * * * * * * * * * * * * * * * * * * * * * * //

dimensions      [0 2 -1 0 0 0 0];

internalField   nonuniform List<scalar> 
120
(
4.25228e-14
4.36342e-14
4.36374e-14
4.35728e-14
4.20033e-14
4.3607e-14
4.35869e-14
4.34622e-14
4.1555e-14
4.37217e-14
4.36343e-14
4.33947e-14
3.84942e-14
4.06714e-14
4.06572e-14
4.05195e-14
3.48192e-14
3.7189e-14
3.71815e-14
3.70392e-14
3.12446e-14
3.37022e-14
3.37008e-14
3.35534e-14
2.78065e-14
3.02524e-14
3.02572e-14
3.01044e-14
2.45375e-14
2.6884e-14
2.6896e-14
2.6738e-14
2.14693e-14
2.36442e-14
2.36654e-14
2.35024e-14
1.864e-14
2.05899e-14
2.06217e-14
2.04559e-14
1.60601e-14
1.77492e-14
1.77917e-14
1.76274e-14
1.37335e-14
1.5144e-14
1.51966e-14
1.50383e-14
1.16573e-14
1.2789e-14
1.28502e-14
1.2702e-14
9.82015e-15
1.06909e-14
1.07586e-14
1.06235e-14
8.20237e-15
8.84843e-15
8.91984e-15
8.79981e-15
4.35938e-14
4.35189e-14
4.3568e-14
4.34649e-14
4.34413e-14
4.33267e-14
4.34281e-14
4.32684e-14
4.35003e-14
4.34603e-14
4.35525e-14
4.32288e-14
4.05218e-14
4.06027e-14
4.06243e-14
4.02436e-14
3.70205e-14
3.71297e-14
3.71392e-14
3.67045e-14
3.35118e-14
3.36534e-14
3.36564e-14
3.31817e-14
3.00354e-14
3.02155e-14
3.02163e-14
2.97194e-14
2.66342e-14
2.68607e-14
2.6862e-14
2.63614e-14
2.33532e-14
2.36358e-14
2.36391e-14
2.31519e-14
2.02481e-14
2.0598e-14
2.06034e-14
2.01438e-14
1.73449e-14
1.77762e-14
1.77817e-14
1.73609e-14
1.46859e-14
1.51817e-14
1.51956e-14
1.48196e-14
1.23047e-14
1.28397e-14
1.28575e-14
1.25297e-14
1.02101e-14
1.07539e-14
1.07728e-14
1.04925e-14
8.39535e-15
8.92088e-15
8.9393e-15
8.70292e-15
)
;

boundaryField
{
    topWall
    {
        type            nutkWallFunction;
        Cmu             0.09;
        kappa           0.41;
        E               9.8;
        value           nonuniform List<scalar> 0();
    }
    botWall
    {
        type            nutkWallFunction;
        Cmu             0.09;
        kappa           0.41;
        E               9.8;
        value           nonuniform List<scalar> 0();
    }
    inlet
    {
        type            cyclic;
    }
    outlet
    {
        type            cyclic;
    }
    fixWall
    {
        type            empty;
    }
    procBoundary5to4
    {
        type            processor;
        value           nonuniform List<scalar> 8(4.30639e-14 4.3811e-14 4.38427e-14 4.37963e-14 4.37756e-14 4.37549e-14 4.38204e-14 4.37257e-14);
    }
    procBoundary5to6
    {
        type            processor;
        value           nonuniform List<scalar> 8(6.76288e-15 7.23373e-15 7.30495e-15 7.20115e-15 6.82583e-15 7.31096e-15 7.32874e-15 7.13032e-15);
    }
}


// ************************************************************************* //
