/*--------------------------------*- C++ -*----------------------------------*\
  =========                 |
  \\      /  F ield         | OpenFOAM: The Open Source CFD Toolbox
   \\    /   O peration     | Website:  https://openfoam.org
    \\  /    A nd           | Version:  dev
     \\/     M anipulation  |

   OpenFOAM for Windows 20.09 (v1)
   Built by CFD Support, www.cfdsupport.com (based on Symscape).
\*---------------------------------------------------------------------------*/
FoamFile
{
    version     2.0;
    format      ascii;
    class       volScalarField;
    location    "10";
    object      omega;
}
// * * * * * * * * * * * * * * * * * * * * * * * * * * * * * * * * * * * * * //

dimensions      [0 0 -1 0 0 0 0];

internalField   nonuniform List<scalar> 
120
(
33.7334
33.7697
33.8401
33.8703
31.7328
31.7616
31.8269
31.8586
29.9724
29.9951
30.055
30.0881
28.4533
28.4712
28.5255
28.559
27.1742
27.1887
27.2375
27.2706
26.1323
26.1449
26.1887
26.2206
25.3246
25.3364
25.3757
25.4057
24.7479
24.7594
24.7949
24.8225
24.3975
24.409
24.4414
24.4668
24.2535
24.2652
24.2951
24.3186
24.3181
24.3301
24.3577
24.3794
24.5949
24.6072
24.6329
24.6529
25.0891
25.1018
25.1258
25.1442
25.8084
25.8215
25.8439
25.8611
26.7633
26.777
26.798
26.814
33.8288
33.8493
33.7993
33.8257
31.8156
31.838
31.789
31.8175
30.0552
30.0655
30.0332
30.0482
28.5311
28.5363
28.5122
28.5221
27.2459
27.2475
27.2291
27.2366
26.1978
26.1969
26.183
26.1888
25.384
25.381
25.3714
25.3763
24.8015
24.7966
24.7913
24.7955
24.4458
24.4384
24.4378
24.4419
24.2973
24.2862
24.2912
24.2956
24.3576
24.341
24.3537
24.3583
24.6305
24.6208
24.6272
24.6335
25.121
25.1154
25.1184
25.1263
25.8368
25.8338
25.8351
25.8448
26.788
26.7875
26.7876
26.7995
)
;

boundaryField
{
    topWall
    {
        beta1           0.075;
        blended         0;
        type            omegaWallFunction;
        value           nonuniform List<scalar> 0();
    }
    botWall
    {
        beta1           0.075;
        blended         0;
        type            omegaWallFunction;
        value           nonuniform List<scalar> 0();
    }
    inlet
    {
        type            cyclic;
    }
    outlet
    {
        type            cyclic;
    }
    fixWall
    {
        type            empty;
    }
    procBoundary5to4
    {
        type            processor;
        value           nonuniform List<scalar> 8(36.0841 36.1282 36.2037 36.2316 36.206 36.2081 36.1656 36.1806);
    }
    procBoundary5to6
    {
        type            processor;
        value           nonuniform List<scalar> 8(28.0448 28.0575 28.0785 28.0938 28.063 28.0668 28.0636 28.0802);
    }
}


// ************************************************************************* //
