/*--------------------------------*- C++ -*----------------------------------*\
  =========                 |
  \\      /  F ield         | OpenFOAM: The Open Source CFD Toolbox
   \\    /   O peration     | Website:  https://openfoam.org
    \\  /    A nd           | Version:  dev
     \\/     M anipulation  |

   OpenFOAM for Windows 20.09 (v1)
   Built by CFD Support, www.cfdsupport.com (based on Symscape).
\*---------------------------------------------------------------------------*/
FoamFile
{
    version     2.0;
    format      ascii;
    class       volScalarField;
    location    "10";
    object      p;
}
// * * * * * * * * * * * * * * * * * * * * * * * * * * * * * * * * * * * * * //

dimensions      [1 -1 -2 0 0 0 0];

internalField   nonuniform List<scalar> 
120
(
-5.00612
-5.06883
-5.13141
-5.19381
-5.0143
-5.077
-5.13958
-5.20198
-5.02247
-5.08518
-5.14776
-5.21016
-5.03064
-5.09335
-5.15593
-5.21833
-5.03882
-5.10152
-5.16411
-5.22651
-5.04699
-5.1097
-5.17228
-5.23468
-5.05516
-5.11787
-5.18046
-5.24286
-5.06334
-5.12604
-5.18863
-5.25103
-5.07151
-5.13422
-5.19681
-5.25921
-5.07968
-5.14239
-5.20498
-5.26739
-5.08786
-5.15056
-5.21316
-5.27556
-5.09603
-5.15874
-5.22133
-5.28374
-5.1042
-5.16691
-5.22951
-5.29191
-5.11238
-5.17508
-5.23768
-5.30009
-5.12055
-5.18326
-5.24586
-5.30826
-5.25627
-5.3187
-5.38108
-5.44362
-5.26445
-5.32687
-5.38926
-5.45179
-5.27262
-5.33505
-5.39743
-5.45997
-5.2808
-5.34323
-5.40561
-5.46815
-5.28898
-5.35141
-5.41379
-5.47632
-5.29715
-5.35958
-5.42196
-5.4845
-5.30533
-5.36776
-5.43014
-5.49267
-5.31351
-5.37594
-5.43832
-5.50085
-5.32168
-5.38412
-5.44649
-5.50903
-5.32986
-5.39229
-5.45467
-5.5172
-5.33803
-5.40047
-5.46285
-5.52538
-5.34621
-5.40865
-5.47102
-5.53355
-5.35439
-5.41683
-5.4792
-5.54173
-5.36256
-5.42501
-5.48738
-5.5499
-5.37074
-5.43318
-5.49555
-5.55808
)
;

boundaryField
{
    topWall
    {
        type            calculated;
        value           nonuniform List<scalar> 0();
    }
    botWall
    {
        type            calculated;
        value           nonuniform List<scalar> 0();
    }
    inlet
    {
        type            cyclic;
    }
    outlet
    {
        type            cyclic;
    }
    fixWall
    {
        type            empty;
    }
    procBoundary5to4
    {
        type            processor;
        value           nonuniform List<scalar> 8(-4.99795 -5.06066 -5.12323 -5.18563 -5.24809 -5.31052 -5.3729 -5.43544);
    }
    procBoundary5to6
    {
        type            processor;
        value           nonuniform List<scalar> 8(-5.12872 -5.19143 -5.25403 -5.31644 -5.37892 -5.44136 -5.50373 -5.56625);
    }
}


// ************************************************************************* //
