/*--------------------------------*- C++ -*----------------------------------*\
  =========                 |
  \\      /  F ield         | OpenFOAM: The Open Source CFD Toolbox
   \\    /   O peration     | Website:  https://openfoam.org
    \\  /    A nd           | Version:  dev
     \\/     M anipulation  |

   OpenFOAM for Windows 20.09 (v1)
   Built by CFD Support, www.cfdsupport.com (based on Symscape).
\*---------------------------------------------------------------------------*/
FoamFile
{
    version     2.0;
    format      ascii;
    class       volScalarField;
    location    "10";
    object      p_rgh;
}
// * * * * * * * * * * * * * * * * * * * * * * * * * * * * * * * * * * * * * //

dimensions      [1 -1 -2 0 0 0 0];

internalField   nonuniform List<scalar> 
120
(
-4.38891
-4.45162
-4.51419
-4.57659
-4.38891
-4.45162
-4.51419
-4.57659
-4.38891
-4.45161
-4.51419
-4.57659
-4.3889
-4.45161
-4.51419
-4.57659
-4.3889
-4.45161
-4.51419
-4.5766
-4.3889
-4.45161
-4.51419
-4.5766
-4.3889
-4.45161
-4.5142
-4.5766
-4.3889
-4.45161
-4.5142
-4.5766
-4.3889
-4.4516
-4.5142
-4.5766
-4.3889
-4.4516
-4.5142
-4.5766
-4.38889
-4.4516
-4.5142
-4.5766
-4.38889
-4.4516
-4.5142
-4.5766
-4.38889
-4.4516
-4.5142
-4.5766
-4.38889
-4.4516
-4.5142
-4.5766
-4.38889
-4.45159
-4.5142
-4.5766
-4.63906
-4.70148
-4.76387
-4.82641
-4.63906
-4.70149
-4.76387
-4.82641
-4.63906
-4.70149
-4.76387
-4.82641
-4.63906
-4.70149
-4.76387
-4.82641
-4.63906
-4.70149
-4.76387
-4.82641
-4.63907
-4.7015
-4.76388
-4.82641
-4.63907
-4.7015
-4.76388
-4.82641
-4.63907
-4.7015
-4.76388
-4.82641
-4.63907
-4.7015
-4.76388
-4.82641
-4.63907
-4.70151
-4.76388
-4.82641
-4.63907
-4.70151
-4.76388
-4.82641
-4.63907
-4.70151
-4.76389
-4.82642
-4.63908
-4.70152
-4.76389
-4.82642
-4.63908
-4.70152
-4.76389
-4.82642
-4.63908
-4.70152
-4.76389
-4.82642
)
;

boundaryField
{
    topWall
    {
        type            zeroGradient;
    }
    botWall
    {
        type            zeroGradient;
    }
    inlet
    {
        type            fixedJump;
        patchType       cyclic;
        jump            uniform -0.5;
        value           nonuniform List<scalar> 
15
(
-4.35766
-4.35766
-4.35766
-4.35766
-4.35766
-4.35766
-4.35766
-4.35766
-4.35766
-4.35765
-4.35765
-4.35765
-4.35765
-4.35765
-4.35765
)
;
    }
    outlet
    {
        type            fixedJump;
        patchType       cyclic;
        value           nonuniform List<scalar> 
15
(
-4.85766
-4.85766
-4.85766
-4.85766
-4.85766
-4.85766
-4.85766
-4.85766
-4.85766
-4.85765
-4.85765
-4.85765
-4.85765
-4.85765
-4.85765
)
;
    }
    fixWall
    {
        type            empty;
    }
    procBoundary5to4
    {
        type            processor;
        value           nonuniform List<scalar> 8(-4.38891 -4.45162 -4.51419 -4.57659 -4.63906 -4.70148 -4.76386 -4.82641);
    }
    procBoundary5to6
    {
        type            processor;
        value           nonuniform List<scalar> 8(-4.38889 -4.45159 -4.5142 -4.5766 -4.63908 -4.70152 -4.76389 -4.82642);
    }
}


// ************************************************************************* //
