/*--------------------------------*- C++ -*----------------------------------*\
  =========                 |
  \\      /  F ield         | OpenFOAM: The Open Source CFD Toolbox
   \\    /   O peration     | Website:  https://openfoam.org
    \\  /    A nd           | Version:  dev
     \\/     M anipulation  |

   OpenFOAM for Windows 20.09 (v1)
   Built by CFD Support, www.cfdsupport.com (based on Symscape).
\*---------------------------------------------------------------------------*/
FoamFile
{
    version     2.0;
    format      ascii;
    class       surfaceScalarField;
    location    "10";
    object      phi;
}
// * * * * * * * * * * * * * * * * * * * * * * * * * * * * * * * * * * * * * //

dimensions      [0 3 -1 0 0 0 0];

internalField   nonuniform List<scalar> 
217
(
3.99815e-07
-9.64722e-12
3.99935e-07
2.57646e-10
3.99981e-07
1.10426e-09
6.04392e-10
3.99992e-07
4.07746e-07
-6.07446e-11
4.07882e-07
1.21077e-10
4.07924e-07
1.06182e-09
6.31088e-10
4.07897e-07
4.14736e-07
-8.18172e-11
4.14841e-07
1.60502e-11
4.14909e-07
9.94426e-10
6.08616e-10
4.14931e-07
4.20817e-07
-1.0039e-10
4.20934e-07
-1.01167e-10
4.21023e-07
9.06035e-10
6.31017e-10
4.21001e-07
4.26132e-07
-8.28586e-11
4.26203e-07
-1.71397e-10
4.26308e-07
8.00554e-10
6.04513e-10
4.26335e-07
4.30704e-07
-5.77582e-11
4.30761e-07
-2.28179e-10
4.30883e-07
6.78803e-10
6.10123e-10
4.30877e-07
4.34642e-07
-2.26652e-11
4.34661e-07
-2.47026e-10
4.34794e-07
5.45424e-10
5.68396e-10
4.34836e-07
4.37971e-07
2.02861e-11
4.37976e-07
-2.519e-10
4.38119e-07
4.02117e-10
5.60522e-10
4.38127e-07
4.40768e-07
6.31408e-11
4.40747e-07
-2.30572e-10
4.40896e-07
2.52944e-10
5.11641e-10
4.40945e-07
4.43057e-07
1.09009e-10
4.43027e-07
-2.0093e-10
4.43179e-07
1.00521e-10
5.04152e-10
4.43187e-07
4.44891e-07
1.48478e-10
4.44847e-07
-1.56451e-10
4.45e-07
-5.24413e-11
4.5771e-10
4.45046e-07
4.46287e-07
1.83773e-10
4.46244e-07
-1.13656e-10
4.46395e-07
-2.0329e-10
4.6177e-10
4.46391e-07
4.47284e-07
2.08934e-10
4.47236e-07
-6.62366e-11
4.47384e-07
-3.50605e-10
4.2757e-10
4.47418e-07
4.47879e-07
2.23225e-10
4.47846e-07
-3.31009e-11
4.47986e-07
-4.90369e-10
4.52814e-10
4.47961e-07
4.48107e-07
4.48079e-07
4.48211e-07
4.48233e-07
3.99912e-07
7.39551e-10
3.99797e-07
-1.45123e-09
3.99788e-07
-1.64975e-09
3.93349e-10
4.07842e-07
7.95236e-10
4.07786e-07
-1.39503e-09
4.07753e-07
-1.61626e-09
4.5122e-10
4.14882e-07
8.44866e-10
4.14777e-07
-1.29006e-09
4.14742e-07
-1.58165e-09
4.78023e-10
4.20942e-07
9.03302e-10
4.20887e-07
-1.23512e-09
4.20843e-07
-1.53727e-09
5.22145e-10
4.26304e-07
9.34295e-10
4.26203e-07
-1.13442e-09
4.2615e-07
-1.48457e-09
5.22519e-10
4.30825e-07
9.86789e-10
4.30751e-07
-1.06064e-09
4.30711e-07
-1.4447e-09
5.0432e-10
4.34813e-07
1.00983e-09
4.34684e-07
-9.31528e-10
4.34613e-07
-1.3738e-09
4.4035e-10
4.38064e-07
1.07256e-09
4.37961e-07
-8.28748e-10
4.37928e-07
-1.34056e-09
3.55086e-10
4.40919e-07
1.09808e-09
4.4077e-07
-6.79215e-10
4.40694e-07
-1.26418e-09
2.38095e-10
4.43108e-07
1.17726e-09
4.42991e-07
-5.62137e-10
4.42968e-07
-1.24126e-09
1.04012e-10
4.45016e-07
1.20749e-09
4.44858e-07
-4.03544e-10
4.44779e-07
-1.16252e-09
-4.73466e-11
4.46296e-07
1.30305e-09
4.46179e-07
-2.86542e-10
4.46164e-07
-1.14722e-09
-2.0599e-10
4.47382e-07
1.33894e-09
4.47229e-07
-1.3298e-10
4.47147e-07
-1.06593e-09
-3.67774e-10
4.4785e-07
1.44974e-09
4.47749e-07
-3.26656e-11
4.47739e-07
-1.0563e-09
-5.21647e-10
4.48198e-07
4.48058e-07
4.47965e-07
)
;

boundaryField
{
    topWall
    {
        type            calculated;
        value           nonuniform List<scalar> 0();
    }
    botWall
    {
        type            calculated;
        value           nonuniform List<scalar> 0();
    }
    inlet
    {
        type            cyclic;
        value           nonuniform List<scalar> 
15
(
-3.99768e-07
-4.07694e-07
-4.14715e-07
-4.20799e-07
-4.2615e-07
-4.30729e-07
-4.34677e-07
-4.38014e-07
-4.40811e-07
-4.43102e-07
-4.44931e-07
-4.46322e-07
-4.47309e-07
-4.47893e-07
-4.48107e-07
)
;
    }
    outlet
    {
        type            cyclic;
        value           nonuniform List<scalar> 
15
(
3.99768e-07
4.07694e-07
4.14715e-07
4.20799e-07
4.2615e-07
4.30729e-07
4.34677e-07
4.38014e-07
4.40811e-07
4.43102e-07
4.44931e-07
4.46322e-07
4.47309e-07
4.47893e-07
4.48107e-07
)
;
    }
    fixWall
    {
        type            empty;
        value           nonuniform List<scalar> 0();
    }
    procBoundary5to4
    {
        type            processor;
        value           nonuniform List<scalar> 8(-4.27766e-11 -3.73945e-10 -1.15532e-09 -6.12481e-10 -6.61421e-10 1.56467e-09 1.65589e-09 -3.73262e-10);
    }
    procBoundary5to6
    {
        type            processor;
        value           nonuniform List<scalar> 8(2.24639e-10 -6.12263e-12 -6.19459e-10 4.31277e-10 1.48429e-09 1.0821e-10 -9.60549e-10 -6.62554e-10);
    }
}


// ************************************************************************* //
