/*--------------------------------*- C++ -*----------------------------------*\
  =========                 |
  \\      /  F ield         | OpenFOAM: The Open Source CFD Toolbox
   \\    /   O peration     | Website:  https://openfoam.org
    \\  /    A nd           | Version:  dev
     \\/     M anipulation  |

   OpenFOAM for Windows 20.09 (v1)
   Built by CFD Support, www.cfdsupport.com (based on Symscape).
\*---------------------------------------------------------------------------*/
FoamFile
{
    version     2.0;
    format      ascii;
    class       volSymmTensorField;
    location    "10";
    object      R;
}
// * * * * * * * * * * * * * * * * * * * * * * * * * * * * * * * * * * * * * //

dimensions      [0 2 -2 0 0 0 0];

internalField   nonuniform List<symmTensor> 
120
(
(1.11656e-12 -5.19395e-13 -0 1.11676e-12 -0 1.11665e-12)
(1.1435e-12 -5.31996e-13 -0 1.14398e-12 -0 1.14375e-12)
(1.14498e-12 -5.32619e-13 -0 1.14516e-12 -0 1.14508e-12)
(1.14324e-12 -5.31777e-13 -0 1.14326e-12 -0 1.14326e-12)
(9.72177e-13 -4.52122e-13 -0 9.7237e-13 -0 9.72271e-13)
(1.00526e-12 -4.67595e-13 -0 1.00583e-12 -0 1.00555e-12)
(1.0068e-12 -4.68226e-13 -0 1.00701e-12 -0 1.00689e-12)
(1.0052e-12 -4.67413e-13 -0 1.00511e-12 -0 1.00514e-12)
(8.43728e-13 -3.92351e-13 -0 8.43802e-13 -0 8.43761e-13)
(8.8188e-13 -4.10181e-13 -0 8.82336e-13 -0 8.82105e-13)
(8.83277e-13 -4.10791e-13 -0 8.83558e-13 -0 8.83423e-13)
(8.8168e-13 -4.1e-13 -0 8.81748e-13 -0 8.81722e-13)
(7.30163e-13 -3.17371e-13 -0 7.30223e-13 -0 7.30189e-13)
(7.71749e-13 -3.32106e-13 -0 7.72197e-13 -0 7.71982e-13)
(7.73e-13 -3.33182e-13 -0 7.73357e-13 -0 7.73178e-13)
(7.71503e-13 -3.33089e-13 -0 7.71435e-13 -0 7.71455e-13)
(6.3082e-13 -2.49612e-13 -0 6.30767e-13 -0 6.30783e-13)
(6.7394e-13 -2.62869e-13 -0 6.74232e-13 -0 6.7407e-13)
(6.74961e-13 -2.63322e-13 -0 6.75346e-13 -0 6.75154e-13)
(6.73352e-13 -2.63583e-13 -0 6.73415e-13 -0 6.73394e-13)
(5.44371e-13 -1.92728e-13 -0 5.44289e-13 -0 5.44326e-13)
(5.87341e-13 -2.05098e-13 -0 5.87506e-13 -0 5.87437e-13)
(5.88188e-13 -2.05392e-13 -0 5.88583e-13 -0 5.88389e-13)
(5.8653e-13 -2.05535e-13 -0 5.86533e-13 -0 5.86517e-13)
(4.69512e-13 -1.46528e-13 -0 4.69404e-13 -0 4.69459e-13)
(5.10958e-13 -1.57143e-13 -0 5.11023e-13 -0 5.10989e-13)
(5.11669e-13 -1.57184e-13 -0 5.12056e-13 -0 5.11866e-13)
(5.09833e-13 -1.57305e-13 -0 5.09925e-13 -0 5.09889e-13)
(4.04887e-13 -1.08954e-13 -0 4.04787e-13 -0 4.04831e-13)
(4.43748e-13 -1.17791e-13 -0 4.4376e-13 -0 4.43757e-13)
(4.44401e-13 -1.17873e-13 -0 4.44777e-13 -0 4.44589e-13)
(4.42454e-13 -1.17758e-13 -0 4.42494e-13 -0 4.42461e-13)
(3.49247e-13 -7.91008e-14 -0 3.49149e-13 -0 3.49198e-13)
(3.84776e-13 -8.60408e-14 -0 3.84731e-13 -0 3.84754e-13)
(3.85441e-13 -8.60176e-14 -0 3.8578e-13 -0 3.85613e-13)
(3.83306e-13 -8.58362e-14 -0 3.83391e-13 -0 3.83358e-13)
(3.01433e-13 -5.56215e-14 -0 3.01352e-13 -0 3.01388e-13)
(3.33106e-13 -6.08099e-14 -0 3.33054e-13 -0 3.33078e-13)
(3.33849e-13 -6.085e-14 -0 3.34161e-13 -0 3.34002e-13)
(3.31628e-13 -6.05324e-14 -0 3.31658e-13 -0 3.31633e-13)
(2.60399e-13 -3.74548e-14 -0 2.60338e-13 -0 2.60365e-13)
(2.8793e-13 -4.1167e-14 -0 2.87858e-13 -0 2.87894e-13)
(2.88782e-13 -4.11605e-14 -0 2.89035e-13 -0 2.88915e-13)
(2.86465e-13 -4.08541e-14 -0 2.86527e-13 -0 2.86502e-13)
(2.25212e-13 -2.36503e-14 -0 2.25151e-13 -0 2.25186e-13)
(2.4847e-13 -2.6084e-14 -0 2.48394e-13 -0 2.4844e-13)
(2.49445e-13 -2.61115e-14 -0 2.49669e-13 -0 2.49557e-13)
(2.47157e-13 -2.57912e-14 -0 2.47165e-13 -0 2.47152e-13)
(1.94996e-13 -1.32369e-14 -0 1.94968e-13 -0 1.94979e-13)
(2.14045e-13 -1.48015e-14 -0 2.13993e-13 -0 2.14017e-13)
(2.15156e-13 -1.47782e-14 -0 2.15339e-13 -0 2.15249e-13)
(2.12905e-13 -1.45064e-14 -0 2.12933e-13 -0 2.12924e-13)
(1.6897e-13 -5.64909e-15 -0 1.68953e-13 -0 1.68961e-13)
(1.84056e-13 -6.5262e-15 -0 1.84016e-13 -0 1.8404e-13)
(1.85292e-13 -6.48347e-15 -0 1.85433e-13 -0 1.85366e-13)
(1.83166e-13 -6.26555e-15 -0 1.83152e-13 -0 1.83152e-13)
(1.46351e-13 -1.08024e-16 -0 1.46345e-13 -0 1.46349e-13)
(1.57966e-13 -6.68832e-16 -0 1.57947e-13 -0 1.57955e-13)
(1.59296e-13 -5.56474e-16 -0 1.59418e-13 -0 1.59354e-13)
(1.57301e-13 -3.86349e-16 -0 1.57306e-13 -0 1.57309e-13)
(1.14348e-12 -5.31806e-13 -0 1.14318e-12 -0 1.14331e-12)
(1.14444e-12 -5.32222e-13 -0 1.14401e-12 -0 1.1442e-12)
(1.14449e-12 -5.32337e-13 -0 1.14444e-12 -0 1.14447e-12)
(1.14091e-12 -5.30661e-13 -0 1.14081e-12 -0 1.14087e-12)
(1.00507e-12 -4.67318e-13 -0 1.00481e-12 -0 1.00496e-12)
(1.00621e-12 -4.67845e-13 -0 1.00594e-12 -0 1.00609e-12)
(1.00617e-12 -4.67858e-13 -0 1.00606e-12 -0 1.0061e-12)
(1.0014e-12 -4.65618e-13 -0 1.00118e-12 -0 1.00129e-12)
(8.81341e-13 -4.09779e-13 -0 8.81148e-13 -0 8.81239e-13)
(8.82818e-13 -4.10416e-13 -0 8.82418e-13 -0 8.82603e-13)
(8.82568e-13 -4.10356e-13 -0 8.82395e-13 -0 8.8249e-13)
(8.76584e-13 -4.07586e-13 -0 8.7646e-13 -0 8.76535e-13)
(7.70871e-13 -3.32278e-13 -0 7.70638e-13 -0 7.70759e-13)
(7.7256e-13 -3.34827e-13 -0 7.7229e-13 -0 7.72456e-13)
(7.72281e-13 -3.33387e-13 -0 7.7211e-13 -0 7.72188e-13)
(7.65292e-13 -3.30846e-13 -0 7.6516e-13 -0 7.65213e-13)
(6.72498e-13 -2.63047e-13 -0 6.72375e-13 -0 6.72443e-13)
(6.74625e-13 -2.64518e-13 -0 6.7431e-13 -0 6.74448e-13)
(6.74274e-13 -2.62915e-13 -0 6.7409e-13 -0 6.74175e-13)
(6.66477e-13 -2.61755e-13 -0 6.66449e-13 -0 6.66482e-13)
(5.85373e-13 -2.04953e-13 -0 5.85213e-13 -0 5.85289e-13)
(5.87877e-13 -2.06512e-13 -0 5.87596e-13 -0 5.8776e-13)
(5.87562e-13 -2.04492e-13 -0 5.87402e-13 -0 5.87492e-13)
(5.79284e-13 -2.02774e-13 -0 5.79377e-13 -0 5.79318e-13)
(5.08315e-13 -1.56599e-13 -0 5.08243e-13 -0 5.08282e-13)
(5.11437e-13 -1.57426e-13 -0 5.11112e-13 -0 5.11252e-13)
(5.11184e-13 -1.56313e-13 -0 5.11e-13 -0 5.11076e-13)
(5.0269e-13 -1.55148e-13 -0 5.02859e-13 -0 5.02787e-13)
(4.40452e-13 -1.16989e-13 -0 4.40309e-13 -0 4.40372e-13)
(4.44179e-13 -1.18192e-13 -0 4.43883e-13 -0 4.44048e-13)
(4.44015e-13 -1.17229e-13 -0 4.43901e-13 -0 4.43969e-13)
(4.35648e-13 -1.15806e-13 -0 4.35878e-13 -0 4.35761e-13)
(3.80628e-13 -8.48634e-14 -0 3.80548e-13 -0 3.806e-13)
(3.85241e-13 -8.57545e-14 -0 3.84925e-13 -0 3.85074e-13)
(3.85205e-13 -8.54376e-14 -0 3.85054e-13 -0 3.85115e-13)
(3.7712e-13 -8.43576e-14 -0 3.77378e-13 -0 3.77255e-13)
(3.28055e-13 -5.96729e-14 -0 3.27915e-13 -0 3.27979e-13)
(3.33622e-13 -6.08034e-14 -0 3.33364e-13 -0 3.33508e-13)
(3.3369e-13 -6.04648e-14 -0 3.33612e-13 -0 3.33664e-13)
(3.26138e-13 -5.94038e-14 -0 3.26404e-13 -0 3.26272e-13)
(2.81681e-13 -3.98362e-14 -0 2.81626e-13 -0 2.81656e-13)
(2.88584e-13 -4.07674e-14 -0 2.88348e-13 -0 2.8845e-13)
(2.88758e-13 -4.08464e-14 -0 2.88655e-13 -0 2.88688e-13)
(2.81791e-13 -4.00096e-14 -0 2.82049e-13 -0 2.81921e-13)
(2.41209e-13 -2.49713e-14 -0 2.41092e-13 -0 2.41142e-13)
(2.49279e-13 -2.58962e-14 -0 2.49096e-13 -0 2.49196e-13)
(2.49506e-13 -2.5945e-14 -0 2.49453e-13 -0 2.49492e-13)
(2.43259e-13 -2.52255e-14 -0 2.43483e-13 -0 2.43375e-13)
(2.06097e-13 -1.37641e-14 -0 2.06038e-13 -0 2.06077e-13)
(2.15073e-13 -1.4359e-14 -0 2.14896e-13 -0 2.14979e-13)
(2.1535e-13 -1.46882e-14 -0 2.15271e-13 -0 2.15298e-13)
(2.09783e-13 -1.4124e-14 -0 2.09983e-13 -0 2.09883e-13)
(1.75909e-13 -5.95646e-15 -0 1.75827e-13 -0 1.75855e-13)
(1.85262e-13 -6.34645e-15 -0 1.85157e-13 -0 1.85211e-13)
(1.85555e-13 -6.49869e-15 -0 1.85527e-13 -0 1.85549e-13)
(1.80706e-13 -6.02797e-15 -0 1.80864e-13 -0 1.80786e-13)
(1.49954e-13 -4.24262e-16 -0 1.49895e-13 -0 1.4994e-13)
(1.59374e-13 -4.69374e-16 -0 1.59247e-13 -0 1.59315e-13)
(1.59682e-13 -6.58008e-16 -0 1.59604e-13 -0 1.5964e-13)
(1.5543e-13 -2.67432e-16 -0 1.55546e-13 -0 1.55491e-13)
)
;

boundaryField
{
    topWall
    {
        type            kqRWallFunction;
        value           nonuniform List<symmTensor> 0();
    }
    botWall
    {
        type            kqRWallFunction;
        value           nonuniform List<symmTensor> 0();
    }
    inlet
    {
        type            cyclic;
    }
    outlet
    {
        type            cyclic;
    }
    fixWall
    {
        type            empty;
    }
    procBoundary5to4
    {
        type            processor;
        value           nonuniform List<symmTensor> 8((1.27754e-12 -5.95118e-13 -0 1.27777e-12 -0 1.27766e-12) (1.29794e-12 -6.04719e-13 -0 1.29849e-12 -0 1.29824e-12) (1.29938e-12 -6.05322e-13 -0 1.29952e-12 -0 1.29946e-12) (1.29762e-12 -6.0446e-13 -0 1.29756e-12 -0 1.29756e-12) (1.29811e-12 -6.04633e-13 -0 1.29784e-12 -0 1.29795e-12) (1.29873e-12 -6.04922e-13 -0 1.29846e-12 -0 1.29859e-12) (1.29915e-12 -6.05154e-13 -0 1.29907e-12 -0 1.29911e-12) (1.29685e-12 -6.04048e-13 -0 1.29663e-12 -0 1.29674e-12));
    }
    procBoundary5to6
    {
        type            processor;
        value           nonuniform List<symmTensor> 8((1.26434e-13 3.56961e-15 -0 1.26454e-13 -0 1.26438e-13) (1.35302e-13 3.29334e-15 -0 1.35315e-13 -0 1.35303e-13) (1.367e-13 3.48221e-15 -0 1.36783e-13 -0 1.36742e-13) (1.34882e-13 3.58101e-15 -0 1.34864e-13 -0 1.34869e-13) (1.27732e-13 3.33172e-15 -0 1.27677e-13 -0 1.27698e-13) (1.36828e-13 3.50686e-15 -0 1.36763e-13 -0 1.36799e-13) (1.37126e-13 3.29165e-15 -0 1.371e-13 -0 1.37116e-13) (1.3344e-13 3.60356e-15 -0 1.33521e-13 -0 1.3348e-13));
    }
}


// ************************************************************************* //
