/*--------------------------------*- C++ -*----------------------------------*\
  =========                 |
  \\      /  F ield         | OpenFOAM: The Open Source CFD Toolbox
   \\    /   O peration     | Website:  https://openfoam.org
    \\  /    A nd           | Version:  dev
     \\/     M anipulation  |

   OpenFOAM for Windows 20.09 (v1)
   Built by CFD Support, www.cfdsupport.com (based on Symscape).
\*---------------------------------------------------------------------------*/
FoamFile
{
    version     2.0;
    format      ascii;
    class       volVectorField;
    location    "10";
    object      U;
}
// * * * * * * * * * * * * * * * * * * * * * * * * * * * * * * * * * * * * * //

dimensions      [0 1 -1 0 0 0 0];

internalField   nonuniform List<vector> 
120
(
(0.479688 1.36561e-06 0)
(0.479862 6.6912e-06 0)
(0.479981 2.33153e-05 0)
(0.479977 1.09127e-05 0)
(0.489199 -1.69314e-06 0)
(0.489384 3.82822e-06 0)
(0.489532 2.13425e-05 0)
(0.489491 1.34772e-05 0)
(0.497628 -5.97927e-07 0)
(0.497734 1.31447e-06 0)
(0.497885 2.112e-05 0)
(0.497901 1.15736e-05 0)
(0.504936 -2.52e-06 0)
(0.50502 -5.87056e-07 0)
(0.505222 1.87601e-05 0)
(0.505238 1.29609e-05 0)
(0.511369 -1.31918e-06 0)
(0.511343 -3.09059e-06 0)
(0.511543 1.74367e-05 0)
(0.511602 1.19867e-05 0)
(0.516884 -2.14446e-06 0)
(0.5168 -4.2195e-06 0)
(0.517025 1.44494e-05 0)
(0.517098 1.24999e-05 0)
(0.52165 -3.09272e-07 0)
(0.521485 -4.79004e-06 0)
(0.5217 1.26372e-05 0)
(0.521811 1.15774e-05 0)
(0.525667 -4.87695e-07 0)
(0.525457 -5.15196e-06 0)
(0.525683 9.22919e-06 0)
(0.525807 1.15087e-05 0)
(0.52905 1.1976e-06 0)
(0.528787 -4.8883e-06 0)
(0.529004 6.8029e-06 0)
(0.529151 1.05481e-05 0)
(0.531807 1.41074e-06 0)
(0.531522 -4.34809e-06 0)
(0.531741 3.33881e-06 0)
(0.531894 1.0339e-05 0)
(0.534024 2.8163e-06 0)
(0.53371 -3.90426e-06 0)
(0.533922 3.79244e-07 0)
(0.534083 9.5101e-06 0)
(0.535695 2.83118e-06 0)
(0.535388 -2.6604e-06 0)
(0.535596 -2.29459e-06 0)
(0.535756 9.18267e-06 0)
(0.536894 4.91533e-06 0)
(0.53658 -1.38389e-06 0)
(0.536785 -5.76051e-06 0)
(0.536941 8.78897e-06 0)
(0.537587 3.60598e-06 0)
(0.537317 -1.11508e-06 0)
(0.537513 -8.13897e-06 0)
(0.537659 8.6316e-06 0)
(0.537853 5.58468e-06 0)
(0.537598 4.40018e-07 0)
(0.537789 -1.09905e-05 0)
(0.537923 8.79104e-06 0)
(0.480003 1.20792e-05 0)
(0.479786 -3.14962e-05 0)
(0.47973 -3.29083e-05 0)
(0.479759 7.97672e-06 0)
(0.489461 1.69485e-05 0)
(0.489359 -2.72351e-05 0)
(0.489331 -3.28083e-05 0)
(0.489272 7.89492e-06 0)
(0.497933 1.49041e-05 0)
(0.497784 -2.85816e-05 0)
(0.497684 -3.21626e-05 0)
(0.497694 1.0082e-05 0)
(0.505162 1.86882e-05 0)
(0.505099 -2.36961e-05 0)
(0.505034 -3.10013e-05 0)
(0.504986 9.33816e-06 0)
(0.5116 1.73817e-05 0)
(0.511529 -2.51683e-05 0)
(0.511361 -3.05637e-05 0)
(0.511395 1.11794e-05 0)
(0.517005 2.02387e-05 0)
(0.516974 -2.06026e-05 0)
(0.516832 -2.90989e-05 0)
(0.516871 1.00972e-05 0)
(0.521793 1.9259e-05 0)
(0.521757 -2.10995e-05 0)
(0.521487 -2.8315e-05 0)
(0.52158 9.69901e-06 0)
(0.525695 2.13204e-05 0)
(0.525658 -1.67539e-05 0)
(0.525453 -2.69767e-05 0)
(0.525571 8.08759e-06 0)
(0.529115 2.12397e-05 0)
(0.529092 -1.59672e-05 0)
(0.52876 -2.62195e-05 0)
(0.528901 5.97787e-06 0)
(0.531752 2.32061e-05 0)
(0.531706 -1.14967e-05 0)
(0.531477 -2.47997e-05 0)
(0.531643 3.63555e-06 0)
(0.534027 2.38564e-05 0)
(0.534012 -1.01471e-05 0)
(0.533651 -2.41206e-05 0)
(0.533816 5.15897e-07 0)
(0.535581 2.46692e-05 0)
(0.535529 -6.70153e-06 0)
(0.535305 -2.32397e-05 0)
(0.535484 -2.51732e-06 0)
(0.536861 2.66735e-05 0)
(0.536856 -4.66059e-06 0)
(0.536497 -2.19916e-05 0)
(0.536652 -5.59554e-06 0)
(0.537445 2.72851e-05 0)
(0.537393 -1.29151e-06 0)
(0.537209 -2.15252e-05 0)
(0.537362 -9.18036e-06 0)
(0.537833 2.89702e-05 0)
(0.53784 -5.01144e-07 0)
(0.537502 -2.03137e-05 0)
(0.537609 -1.1785e-05 0)
)
;

boundaryField
{
    topWall
    {
        type            noSlip;
    }
    botWall
    {
        type            noSlip;
    }
    inlet
    {
        type            cyclic;
    }
    outlet
    {
        type            cyclic;
    }
    fixWall
    {
        type            empty;
    }
    procBoundary5to4
    {
        type            processor;
        value           nonuniform List<vector> 8((0.468842 4.09253e-07 0) (0.469064 8.27759e-06 0) (0.469189 2.29379e-05 0) (0.46915 1.33299e-05 0) (0.469129 1.43813e-05 0) (0.468976 -3.0818e-05 0) (0.468967 -3.3397e-05 0) (0.468924 6.8489e-06 0));
    }
    procBoundary5to6
    {
        type            processor;
        value           nonuniform List<vector> 8((0.537609 4.02319e-06 0) (0.537443 -3.12379e-07 0) (0.537617 -1.41442e-05 0) (0.537732 8.93517e-06 0) (0.537529 3.18124e-05 0) (0.537482 5.04486e-06 0) (0.537332 -1.81539e-05 0) (0.537413 -1.44233e-05 0));
    }
}


// ************************************************************************* //
