/*--------------------------------*- C++ -*----------------------------------*\
  =========                 |
  \\      /  F ield         | OpenFOAM: The Open Source CFD Toolbox
   \\    /   O peration     | Website:  https://openfoam.org
    \\  /    A nd           | Version:  dev
     \\/     M anipulation  |

   OpenFOAM for Windows 20.09 (v1)
   Built by CFD Support, www.cfdsupport.com (based on Symscape).
\*---------------------------------------------------------------------------*/
FoamFile
{
    version     2.0;
    format      ascii;
    class       volVectorField;
    location    "10";
    object      UMean;
}
// * * * * * * * * * * * * * * * * * * * * * * * * * * * * * * * * * * * * * //

dimensions      [0 1 -1 0 0 0 0];

internalField   nonuniform List<vector> 
120
(
(0.273232 -4.06105e-06 0)
(0.273201 1.60069e-06 0)
(0.273297 8.26952e-07 0)
(0.273323 -8.83872e-06 0)
(0.27669 -4.12897e-06 0)
(0.276632 2.42687e-06 0)
(0.276746 6.6634e-08 0)
(0.276769 -5.67988e-06 0)
(0.279601 -2.65005e-06 0)
(0.279508 1.87802e-06 0)
(0.279635 -1.33213e-06 0)
(0.279671 -6.85943e-06 0)
(0.28203 -2.58543e-06 0)
(0.28191 1.09281e-06 0)
(0.282053 -2.8253e-06 0)
(0.282093 -5.14367e-06 0)
(0.284061 -8.02365e-07 0)
(0.283907 2.5836e-06 0)
(0.284058 -3.88783e-06 0)
(0.284107 -3.15426e-06 0)
(0.285737 -2.12352e-07 0)
(0.28556 1.2567e-06 0)
(0.285722 -6.33525e-06 0)
(0.285776 -4.64375e-06 0)
(0.287124 1.21025e-06 0)
(0.286922 2.53943e-06 0)
(0.28709 -7.67959e-06 0)
(0.287149 -1.93435e-06 0)
(0.288257 2.50826e-06 0)
(0.288037 2.24658e-06 0)
(0.288209 -9.69158e-06 0)
(0.28827 -2.92586e-06 0)
(0.289176 3.54524e-06 0)
(0.288942 3.20847e-06 0)
(0.289111 -1.17292e-05 0)
(0.289174 -1.5292e-06 0)
(0.289905 5.21363e-06 0)
(0.289665 3.77661e-06 0)
(0.28983 -1.33817e-05 0)
(0.289892 -1.90478e-06 0)
(0.290474 6.31349e-06 0)
(0.290231 4.58064e-06 0)
(0.290388 -1.5584e-05 0)
(0.290447 -1.24799e-06 0)
(0.290895 7.02617e-06 0)
(0.29066 4.86898e-06 0)
(0.290805 -1.69939e-05 0)
(0.290863 -1.85272e-06 0)
(0.29119 9.09748e-06 0)
(0.290963 6.81469e-06 0)
(0.291096 -1.85678e-05 0)
(0.291145 -1.16103e-06 0)
(0.291361 9.11958e-06 0)
(0.291156 6.29659e-06 0)
(0.291273 -2.01386e-05 0)
(0.291313 -1.85769e-06 0)
(0.291425 1.03893e-05 0)
(0.291239 8.25971e-06 0)
(0.291338 -2.1025e-05 0)
(0.291364 -1.33915e-06 0)
(0.273195 8.72195e-06 0)
(0.273191 -1.46284e-05 0)
(0.273244 1.76505e-07 0)
(0.273257 1.40119e-05 0)
(0.276628 1.20737e-05 0)
(0.276637 -1.43454e-05 0)
(0.276684 -6.23833e-07 0)
(0.276712 1.48091e-05 0)
(0.279532 9.96511e-06 0)
(0.279529 -1.62523e-05 0)
(0.279552 -1.71937e-06 0)
(0.279615 1.35003e-05 0)
(0.281937 1.44076e-05 0)
(0.28194 -1.46763e-05 0)
(0.281952 -2.02917e-06 0)
(0.282032 1.34226e-05 0)
(0.283966 1.3272e-05 0)
(0.283964 -1.63509e-05 0)
(0.283938 -3.56026e-06 0)
(0.284049 1.31775e-05 0)
(0.285625 1.59466e-05 0)
(0.285622 -1.4676e-05 0)
(0.285578 -4.06616e-06 0)
(0.28571 1.04841e-05 0)
(0.287023 1.6001e-05 0)
(0.287018 -1.54476e-05 0)
(0.286926 -4.45557e-06 0)
(0.287079 1.06441e-05 0)
(0.288141 1.8372e-05 0)
(0.288131 -1.29836e-05 0)
(0.28803 -5.0073e-06 0)
(0.288201 7.74283e-06 0)
(0.289079 1.81055e-05 0)
(0.289077 -1.37027e-05 0)
(0.288928 -5.49562e-06 0)
(0.289106 6.53551e-06 0)
(0.28979 2.0252e-05 0)
(0.289775 -1.04682e-05 0)
(0.289637 -5.62426e-06 0)
(0.28983 3.92376e-06 0)
(0.29038 2.0017e-05 0)
(0.290378 -1.11256e-05 0)
(0.290202 -6.03917e-06 0)
(0.29039 2.4681e-06 0)
(0.290785 2.10589e-05 0)
(0.290765 -7.9579e-06 0)
(0.290614 -6.89329e-06 0)
(0.29081 -1.5126e-06 0)
(0.291105 2.1961e-05 0)
(0.291102 -7.48921e-06 0)
(0.29092 -5.12265e-06 0)
(0.291101 -1.53238e-06 0)
(0.291257 2.1788e-05 0)
(0.291236 -5.56329e-06 0)
(0.291093 -7.60018e-06 0)
(0.291276 -5.94157e-06 0)
(0.291348 2.26415e-05 0)
(0.291347 -4.20801e-06 0)
(0.291178 -5.76986e-06 0)
(0.291339 -6.74344e-06 0)
)
;

boundaryField
{
    topWall
    {
        type            calculated;
        value           nonuniform List<vector> 0();
    }
    botWall
    {
        type            calculated;
        value           nonuniform List<vector> 0();
    }
    inlet
    {
        type            cyclic;
    }
    outlet
    {
        type            cyclic;
    }
    fixWall
    {
        type            empty;
    }
    procBoundary5to4
    {
        type            processor;
        value           nonuniform List<vector> 8((0.269121 -4.98789e-06 0) (0.269124 4.20139e-06 0) (0.269205 1.22777e-06 0) (0.26922 -8.92408e-06 0) (0.269096 7.77601e-06 0) (0.269103 -1.47117e-05 0) (0.269166 -1.18516e-06 0) (0.269144 1.35295e-05 0));
    }
    procBoundary5to6
    {
        type            processor;
        value           nonuniform List<vector> 8((0.291371 1.14384e-05 0) (0.291225 9.00665e-06 0) (0.291303 -2.22117e-05 0) (0.291316 -1.25584e-06 0) (0.291293 2.34226e-05 0) (0.291267 -2.57901e-06 0) (0.291138 -6.52408e-06 0) (0.291295 -7.89437e-06 0));
    }
}


// ************************************************************************* //
