/*--------------------------------*- C++ -*----------------------------------*\
  =========                 |
  \\      /  F ield         | OpenFOAM: The Open Source CFD Toolbox
   \\    /   O peration     | Website:  https://openfoam.org
    \\  /    A nd           | Version:  dev
     \\/     M anipulation  |

   OpenFOAM for Windows 20.09 (v1)
   Built by CFD Support, www.cfdsupport.com (based on Symscape).
\*---------------------------------------------------------------------------*/
FoamFile
{
    version     2.0;
    format      ascii;
    class       volSymmTensorField;
    location    "10";
    object      UPrime2Mean;
}
// * * * * * * * * * * * * * * * * * * * * * * * * * * * * * * * * * * * * * //

dimensions      [0 2 -2 0 0 0 0];

internalField   nonuniform List<symmTensor> 
120
(
(0.0102446 1.22613e-07 0 1.57459e-11 0 0)
(0.0102647 2.8559e-07 0 1.25949e-11 0 0)
(0.0102648 -2.90695e-07 0 5.48723e-10 0 0)
(0.0102598 -2.56819e-07 0 2.92158e-10 0 0)
(0.0108155 3.81507e-08 0 7.20415e-12 0 0)
(0.0108371 2.6931e-07 0 1.4801e-11 0 0)
(0.0108379 -2.35273e-07 0 4.21632e-10 0 0)
(0.0108308 -6.02216e-08 0 1.89535e-10 0 0)
(0.0113415 3.10737e-08 0 1.59783e-11 0 0)
(0.0113593 8.53237e-08 0 4.06336e-12 0 0)
(0.0113601 -2.36033e-07 0 4.88167e-10 0 0)
(0.0113562 -3.14558e-07 0 2.90122e-10 0 0)
(0.0118147 -7.23784e-08 0 7.61062e-12 0 0)
(0.0118308 1.39778e-07 0 1.02905e-11 0 0)
(0.011834 -2.35016e-07 0 4.18031e-10 0 0)
(0.0118307 -8.44173e-08 0 1.77747e-10 0 0)
(0.0122424 -7.60747e-09 0 1.17683e-11 0 0)
(0.0122519 -8.19143e-08 0 1.11577e-11 0 0)
(0.0122551 -1.98781e-07 0 3.82424e-10 0 0)
(0.0122546 -3.03261e-07 0 2.08691e-10 0 0)
(0.0126184 -1.54375e-07 0 9.83715e-12 0 0)
(0.012624 1.57353e-09 0 1.40786e-11 0 0)
(0.0126291 -2.70327e-07 0 4.10493e-10 0 0)
(0.0126299 -1.62092e-07 0 1.81457e-10 0 0)
(0.0129498 -2.75071e-08 0 1.08706e-11 0 0)
(0.0129497 -1.4321e-07 0 1.3371e-11 0 0)
(0.0129549 -2.54822e-07 0 3.67955e-10 0 0)
(0.0129584 -2.93124e-07 0 1.74274e-10 0 0)
(0.0132349 -1.42148e-07 0 8.40115e-12 0 0)
(0.0132308 -8.13215e-08 0 1.69173e-11 0 0)
(0.0132371 -3.43233e-07 0 3.75869e-10 0 0)
(0.0132416 -2.17116e-07 0 1.57274e-10 0 0)
(0.0134783 -5.05282e-08 0 1.05509e-11 0 0)
(0.0134697 -1.33462e-07 0 1.66465e-11 0 0)
(0.0134759 -3.47212e-07 0 3.52031e-10 0 0)
(0.0134821 -3.00285e-07 0 1.4962e-10 0 0)
(0.0136793 -1.17213e-07 0 1.29226e-11 0 0)
(0.0136682 -1.02543e-07 0 1.86124e-11 0 0)
(0.0136746 -4.45254e-07 0 3.51545e-10 0 0)
(0.0136813 -2.68844e-07 0 1.37163e-10 0 0)
(0.0138423 -7.69728e-08 0 1.22133e-11 0 0)
(0.0138286 -9.70353e-08 0 2.03129e-11 0 0)
(0.0138348 -4.66436e-07 0 3.31197e-10 0 0)
(0.0138421 -3.06519e-07 0 1.2691e-10 0 0)
(0.0139667 -6.38864e-08 0 1.43834e-11 0 0)
(0.0139524 -1.485e-08 0 2.35521e-11 0 0)
(0.0139583 -5.31784e-07 0 3.27011e-10 0 0)
(0.0139655 -2.80976e-07 0 1.20416e-10 0 0)
(0.0140565 -7.21045e-08 0 1.8978e-11 0 0)
(0.0140412 -5.13016e-08 0 2.24467e-11 0 0)
(0.0140469 -6.14102e-07 0 3.15164e-10 0 0)
(0.0140539 -3.01084e-07 0 1.08168e-10 0 0)
(0.0141096 -7.84254e-08 0 1.97312e-11 0 0)
(0.014096 7.04589e-08 0 3.10731e-11 0 0)
(0.0141011 -6.2782e-07 0 3.01365e-10 0 0)
(0.0141071 -2.71404e-07 0 1.06625e-10 0 0)
(0.0141305 -3.39451e-08 0 1.93904e-11 0 0)
(0.0141176 4.91139e-08 0 3.30982e-11 0 0)
(0.0141225 -6.93409e-07 0 2.73816e-10 0 0)
(0.0141278 -2.58085e-07 0 9.87075e-11 0 0)
(0.0102683 1.55621e-07 0 8.99339e-11 0 0)
(0.0102502 -4.24312e-07 0 1.90277e-10 0 0)
(0.0102517 6.54229e-08 0 5.51912e-10 0 0)
(0.0102531 1.28188e-07 0 1.19831e-10 0 0)
(0.0108366 3.00452e-07 0 1.29238e-10 0 0)
(0.0108248 -2.4288e-07 0 1.84305e-10 0 0)
(0.0108292 6.35116e-08 0 5.35675e-10 0 0)
(0.010825 1.71424e-07 0 1.66344e-10 0 0)
(0.0113651 2.30102e-07 0 5.99758e-11 0 0)
(0.0113522 -3.11533e-07 0 2.01998e-10 0 0)
(0.0113534 4.00371e-08 0 4.68033e-10 0 0)
(0.011351 1.85711e-07 0 7.64456e-11 0 0)
(0.0118329 3.23603e-07 0 1.21712e-10 0 0)
(0.0118254 -2.00567e-07 0 1.67594e-10 0 0)
(0.011829 4.90364e-08 0 4.28639e-10 0 0)
(0.0118227 3.24341e-07 0 1.56485e-10 0 0)
(0.0122606 3.04746e-07 0 7.47341e-11 0 0)
(0.0122536 -2.09379e-07 0 1.90788e-10 0 0)
(0.0122512 7.88086e-08 0 3.96512e-10 0 0)
(0.0122484 2.84217e-07 0 9.3183e-11 0 0)
(0.0126295 3.26044e-07 0 8.67892e-11 0 0)
(0.0126251 -1.64694e-07 0 1.70409e-10 0 0)
(0.0126241 6.28139e-08 0 3.33863e-10 0 0)
(0.0126215 3.86161e-07 0 8.84305e-11 0 0)
(0.0129619 3.50641e-07 0 8.79334e-11 0 0)
(0.0129583 -1.22579e-07 0 1.69327e-10 0 0)
(0.0129487 9.23979e-08 0 3.18714e-10 0 0)
(0.0129488 3.66118e-07 0 1.00652e-10 0 0)
(0.0132382 3.54827e-07 0 9.2201e-11 0 0)
(0.0132348 -8.57227e-08 0 1.47529e-10 0 0)
(0.0132292 9.31844e-08 0 2.70078e-10 0 0)
(0.0132315 4.09327e-07 0 8.18109e-11 0 0)
(0.0134825 3.85512e-07 0 8.96956e-11 0 0)
(0.0134811 -1.752e-08 0 1.40847e-10 0 0)
(0.0134674 1.23106e-07 0 2.55431e-10 0 0)
(0.0134709 3.36996e-07 0 7.19616e-11 0 0)
(0.0136737 4.1069e-07 0 9.21685e-11 0 0)
(0.0136701 3.73444e-08 0 1.20885e-10 0 0)
(0.0136637 1.27413e-07 0 2.17297e-10 0 0)
(0.0136704 3.25992e-07 0 6.12689e-11 0 0)
(0.0138398 4.43571e-07 0 8.75627e-11 0 0)
(0.0138393 1.08212e-07 0 1.10412e-10 0 0)
(0.0138238 1.44142e-07 0 2.01115e-10 0 0)
(0.0138301 1.99619e-07 0 4.71394e-11 0 0)
(0.0139547 4.98836e-07 0 9.86919e-11 0 0)
(0.0139509 1.45856e-07 0 9.20966e-11 0 0)
(0.0139448 1.60654e-07 0 1.75525e-10 0 0)
(0.0139539 2.34994e-07 0 4.97983e-11 0 0)
(0.0140489 4.90095e-07 0 8.23853e-11 0 0)
(0.0140488 1.90491e-07 0 7.83147e-11 0 0)
(0.0140339 7.82504e-08 0 1.43803e-10 0 0)
(0.0140413 2.0503e-08 0 2.80226e-11 0 0)
(0.0140936 5.98195e-07 0 9.74196e-11 0 0)
(0.0140897 2.92401e-07 0 7.72549e-11 0 0)
(0.014086 1.79349e-07 0 1.41432e-10 0 0)
(0.0140953 4.39309e-08 0 3.79566e-11 0 0)
(0.0141218 6.02009e-07 0 9.51368e-11 0 0)
(0.0141221 2.32153e-07 0 5.56604e-11 0 0)
(0.0141084 6.09043e-08 0 1.03177e-10 0 0)
(0.0141145 -9.97843e-08 0 2.32385e-11 0 0)
)
;

boundaryField
{
    topWall
    {
        type            calculated;
        value           nonuniform List<symmTensor> 0();
    }
    botWall
    {
        type            calculated;
        value           nonuniform List<symmTensor> 0();
    }
    inlet
    {
        type            cyclic;
    }
    outlet
    {
        type            cyclic;
    }
    fixWall
    {
        type            empty;
    }
    procBoundary5to4
    {
        type            processor;
        value           nonuniform List<symmTensor> 8((0.00962371 1.08954e-07 0 2.00409e-11 0 0) (0.00964472 3.56748e-07 0 1.87267e-11 0 0) (0.00964617 -2.63331e-07 0 5.07549e-10 0 0) (0.00963978 -1.85772e-07 0 2.99719e-10 0 0) (0.00964456 1.82569e-07 0 7.04817e-11 0 0) (0.00962945 -3.40258e-07 0 2.15599e-10 0 0) (0.00963288 1.27429e-07 0 5.90275e-10 0 0) (0.00963207 -4.37929e-08 0 6.62408e-11 0 0));
    }
    procBoundary5to6
    {
        type            processor;
        value           nonuniform List<symmTensor> 8((0.0141144 -1.4987e-07 0 2.92504e-11 0 0) (0.0141062 3.24118e-08 0 3.85084e-11 0 0) (0.0141107 -7.33512e-07 0 2.51384e-10 0 0) (0.0141143 -2.6238e-07 0 9.86089e-11 0 0) (0.0141012 6.81513e-07 0 9.02314e-11 0 0) (0.0140973 4.21352e-07 0 7.10548e-11 0 0) (0.0140948 1.61969e-07 0 9.54301e-11 0 0) (0.0141014 -2.65204e-07 0 2.03081e-11 0 0));
    }
}


// ************************************************************************* //
