/*--------------------------------*- C++ -*----------------------------------*\
  =========                 |
  \\      /  F ield         | OpenFOAM: The Open Source CFD Toolbox
   \\    /   O peration     | Website:  https://openfoam.org
    \\  /    A nd           | Version:  dev
     \\/     M anipulation  |

   OpenFOAM for Windows 20.09 (v1)
   Built by CFD Support, www.cfdsupport.com (based on Symscape).
\*---------------------------------------------------------------------------*/
FoamFile
{
    version     2.0;
    format      ascii;
    class       volScalarField;
    location    "50";
    object      k;
}
// * * * * * * * * * * * * * * * * * * * * * * * * * * * * * * * * * * * * * //

dimensions      [0 2 -2 0 0 0 0];

internalField   nonuniform List<scalar> 
1600
(
0.000310633
0.000310632
0.000310632
0.000310632
0.000310632
0.000310632
0.000310632
0.000310633
0.000310633
0.000310634
0.000310634
0.000310635
0.000310635
0.000310636
0.000310636
0.000310637
0.000310638
0.000310638
0.000310639
0.00031064
0.000310641
0.000310641
0.000310642
0.000310643
0.000310643
0.000310644
0.000310644
0.000310645
0.000310645
0.000310645
0.000310645
0.000310646
0.000310645
0.000310645
0.000310644
0.000310642
0.000310639
0.000310636
0.000310632
0.000310633
0.000413571
0.00041357
0.00041357
0.00041357
0.00041357
0.000413571
0.000413571
0.000413572
0.000413572
0.000413572
0.000413573
0.000413573
0.000413574
0.000413575
0.000413575
0.000413576
0.000413576
0.000413577
0.000413577
0.000413578
0.000413578
0.000413579
0.00041358
0.00041358
0.000413581
0.000413581
0.000413582
0.000413582
0.000413582
0.000413582
0.000413583
0.000413583
0.000413583
0.000413583
0.000413582
0.000413581
0.000413578
0.000413575
0.000413571
0.000413571
0.000468763
0.000468763
0.000468763
0.000468763
0.000468764
0.000468764
0.000468765
0.000468765
0.000468765
0.000468766
0.000468766
0.000468767
0.000468767
0.000468768
0.000468768
0.000468769
0.000468769
0.00046877
0.00046877
0.000468771
0.000468772
0.000468772
0.000468773
0.000468774
0.000468774
0.000468775
0.000468775
0.000468775
0.000468776
0.000468776
0.000468776
0.000468776
0.000468777
0.000468777
0.000468776
0.000468775
0.000468772
0.000468769
0.000468765
0.000468765
0.000511904
0.000511905
0.000511905
0.000511905
0.000511905
0.000511905
0.000511906
0.000511906
0.000511907
0.000511907
0.000511907
0.000511908
0.000511908
0.000511909
0.000511909
0.00051191
0.00051191
0.000511911
0.000511911
0.000511912
0.000511912
0.000511913
0.000511913
0.000511914
0.000511915
0.000511915
0.000511915
0.000511916
0.000511916
0.000511916
0.000511917
0.000511917
0.000511917
0.000511917
0.000511917
0.000511916
0.000511914
0.000511911
0.000511905
0.000511905
0.000549373
0.000549374
0.000549374
0.000549373
0.000549373
0.000549373
0.000549373
0.000549373
0.000549373
0.000549373
0.000549374
0.000549374
0.000549374
0.000549375
0.000549375
0.000549376
0.000549376
0.000549376
0.000549377
0.000549377
0.000549378
0.000549379
0.000549379
0.00054938
0.00054938
0.000549381
0.000549381
0.000549381
0.000549382
0.000549382
0.000549382
0.000549383
0.000549383
0.000549383
0.000549383
0.000549383
0.00054938
0.000549377
0.000549371
0.000549371
0.000583373
0.000583373
0.000583372
0.000583372
0.000583371
0.00058337
0.00058337
0.00058337
0.00058337
0.000583371
0.000583371
0.000583371
0.000583371
0.000583371
0.000583372
0.000583372
0.000583372
0.000583373
0.000583373
0.000583374
0.000583374
0.000583374
0.000583375
0.000583375
0.000583376
0.000583376
0.000583377
0.000583377
0.000583377
0.000583378
0.000583378
0.000583378
0.000583379
0.000583379
0.000583379
0.000583379
0.000583377
0.000583374
0.000583368
0.000583368
0.000614898
0.000614899
0.000614898
0.000614897
0.000614896
0.000614895
0.000614895
0.000614895
0.000614895
0.000614895
0.000614895
0.000614895
0.000614896
0.000614896
0.000614896
0.000614896
0.000614896
0.000614897
0.000614897
0.000614897
0.000614898
0.000614898
0.000614898
0.000614899
0.000614899
0.000614899
0.0006149
0.0006149
0.0006149
0.000614901
0.000614901
0.000614901
0.000614901
0.000614902
0.000614902
0.000614902
0.000614901
0.000614897
0.000614891
0.000614892
0.000644456
0.000644456
0.000644456
0.000644455
0.000644453
0.000644452
0.000644452
0.000644451
0.000644452
0.000644452
0.000644452
0.000644452
0.000644452
0.000644452
0.000644452
0.000644453
0.000644453
0.000644453
0.000644453
0.000644453
0.000644453
0.000644454
0.000644454
0.000644454
0.000644455
0.000644455
0.000644455
0.000644455
0.000644455
0.000644456
0.000644456
0.000644456
0.000644456
0.000644457
0.000644457
0.000644457
0.000644456
0.000644453
0.000644447
0.000644448
0.000672301
0.000672302
0.000672302
0.000672301
0.000672299
0.000672297
0.000672297
0.000672297
0.000672297
0.000672297
0.000672297
0.000672297
0.000672298
0.000672298
0.000672298
0.000672298
0.000672298
0.000672298
0.000672298
0.000672298
0.000672298
0.000672298
0.000672299
0.000672299
0.000672299
0.000672299
0.000672299
0.000672299
0.000672299
0.0006723
0.0006723
0.0006723
0.0006723
0.0006723
0.000672301
0.000672301
0.0006723
0.000672297
0.000672291
0.000672292
0.000698549
0.000698549
0.000698549
0.000698548
0.000698546
0.000698544
0.000698543
0.000698544
0.000698544
0.000698544
0.000698544
0.000698544
0.000698545
0.000698544
0.000698544
0.000698545
0.000698544
0.000698545
0.000698544
0.000698545
0.000698545
0.000698545
0.000698545
0.000698546
0.000698545
0.000698545
0.000698546
0.000698545
0.000698545
0.000698546
0.000698546
0.000698546
0.000698546
0.000698546
0.000698546
0.000698546
0.000698546
0.000698543
0.000698538
0.000698539
0.000723217
0.000723218
0.000723218
0.000723216
0.000723214
0.000723212
0.000723212
0.000723212
0.000723212
0.000723212
0.000723212
0.000723213
0.000723213
0.000723213
0.000723213
0.000723213
0.000723213
0.000723213
0.000723213
0.000723213
0.000723213
0.000723214
0.000723214
0.000723213
0.000723213
0.000723213
0.000723213
0.000723213
0.000723213
0.000723213
0.000723213
0.000723213
0.000723213
0.000723213
0.000723214
0.000723213
0.000723213
0.000723211
0.000723205
0.000723207
0.000746261
0.000746262
0.000746262
0.00074626
0.000746258
0.000746256
0.000746256
0.000746256
0.000746256
0.000746256
0.000746256
0.000746256
0.000746256
0.000746257
0.000746257
0.000746256
0.000746256
0.000746257
0.000746257
0.000746257
0.000746257
0.000746257
0.000746257
0.000746257
0.000746257
0.000746257
0.000746257
0.000746256
0.000746257
0.000746257
0.000746257
0.000746257
0.000746257
0.000746257
0.000746257
0.000746257
0.000746256
0.000746254
0.000746249
0.00074625
0.000767587
0.000767587
0.000767587
0.000767586
0.000767583
0.000767582
0.000767581
0.00076758
0.00076758
0.000767581
0.000767581
0.000767581
0.000767581
0.000767581
0.000767581
0.000767581
0.000767581
0.000767582
0.000767582
0.000767582
0.000767582
0.000767582
0.000767582
0.000767582
0.000767582
0.000767582
0.000767581
0.000767581
0.000767581
0.000767581
0.000767581
0.000767581
0.000767581
0.000767581
0.000767581
0.000767581
0.000767581
0.000767579
0.000767574
0.000767576
0.000787058
0.000787059
0.000787059
0.000787057
0.000787055
0.000787053
0.000787051
0.000787051
0.000787051
0.000787051
0.000787052
0.000787052
0.000787052
0.000787052
0.000787052
0.000787052
0.000787052
0.000787053
0.000787053
0.000787053
0.000787052
0.000787053
0.000787052
0.000787053
0.000787053
0.000787052
0.000787052
0.000787052
0.000787052
0.000787052
0.000787052
0.000787052
0.000787052
0.000787052
0.000787052
0.000787052
0.000787052
0.000787051
0.000787046
0.000787047
0.000804508
0.000804508
0.000804508
0.000804506
0.000804504
0.000804502
0.0008045
0.0008045
0.0008045
0.0008045
0.0008045
0.0008045
0.0008045
0.0008045
0.0008045
0.000804501
0.000804501
0.000804501
0.000804501
0.000804501
0.000804501
0.000804501
0.000804501
0.000804501
0.000804501
0.000804501
0.000804501
0.0008045
0.000804501
0.0008045
0.0008045
0.000804501
0.000804501
0.000804501
0.000804501
0.000804502
0.000804502
0.0008045
0.000804495
0.000804497
0.000819735
0.000819735
0.000819735
0.000819733
0.000819731
0.000819729
0.000819727
0.000819726
0.000819726
0.000819726
0.000819727
0.000819727
0.000819727
0.000819727
0.000819727
0.000819727
0.000819727
0.000819727
0.000819727
0.000819727
0.000819727
0.000819727
0.000819727
0.000819728
0.000819727
0.000819728
0.000819727
0.000819727
0.000819727
0.000819727
0.000819728
0.000819728
0.000819728
0.000819728
0.000819729
0.000819729
0.000819729
0.000819727
0.000819723
0.000819725
0.000832511
0.000832511
0.00083251
0.000832509
0.000832506
0.000832504
0.000832502
0.000832501
0.000832501
0.000832501
0.000832501
0.000832501
0.000832501
0.000832502
0.000832502
0.000832502
0.000832502
0.000832502
0.000832502
0.000832502
0.000832502
0.000832502
0.000832502
0.000832502
0.000832503
0.000832503
0.000832503
0.000832503
0.000832503
0.000832503
0.000832504
0.000832504
0.000832504
0.000832505
0.000832505
0.000832506
0.000832505
0.000832503
0.000832499
0.000832501
0.000842574
0.000842574
0.000842573
0.000842571
0.000842569
0.000842567
0.000842565
0.000842564
0.000842564
0.000842564
0.000842564
0.000842564
0.000842564
0.000842564
0.000842564
0.000842564
0.000842565
0.000842565
0.000842565
0.000842565
0.000842565
0.000842565
0.000842565
0.000842565
0.000842566
0.000842566
0.000842566
0.000842566
0.000842567
0.000842567
0.000842568
0.000842568
0.000842568
0.000842569
0.000842569
0.000842569
0.000842569
0.000842567
0.000842563
0.000842564
0.00084963
0.00084963
0.00084963
0.000849627
0.000849625
0.000849623
0.000849621
0.00084962
0.00084962
0.00084962
0.00084962
0.00084962
0.00084962
0.00084962
0.00084962
0.000849621
0.000849621
0.000849621
0.000849621
0.000849621
0.000849621
0.000849621
0.000849621
0.000849622
0.000849622
0.000849623
0.000849623
0.000849623
0.000849624
0.000849624
0.000849625
0.000849625
0.000849626
0.000849626
0.000849626
0.000849627
0.000849626
0.000849624
0.00084962
0.000849621
0.000853347
0.000853347
0.000853346
0.000853344
0.000853342
0.000853339
0.000853338
0.000853337
0.000853337
0.000853337
0.000853337
0.000853337
0.000853337
0.000853337
0.000853338
0.000853338
0.000853338
0.000853338
0.000853338
0.000853338
0.000853338
0.000853338
0.000853339
0.000853339
0.000853339
0.00085334
0.00085334
0.000853341
0.000853341
0.000853342
0.000853342
0.000853343
0.000853343
0.000853343
0.000853344
0.000853344
0.000853343
0.000853341
0.000853337
0.000853338
0.000853346
0.000853346
0.000853346
0.000853344
0.000853341
0.000853339
0.000853338
0.000853337
0.000853337
0.000853337
0.000853337
0.000853337
0.000853337
0.000853338
0.000853338
0.000853338
0.000853338
0.000853338
0.000853338
0.000853338
0.000853338
0.000853338
0.000853339
0.000853339
0.000853339
0.00085334
0.00085334
0.000853341
0.000853341
0.000853342
0.000853342
0.000853343
0.000853343
0.000853343
0.000853344
0.000853344
0.000853343
0.000853341
0.000853337
0.000853338
0.000849629
0.000849629
0.000849629
0.000849627
0.000849624
0.000849622
0.000849621
0.00084962
0.00084962
0.000849621
0.000849621
0.000849621
0.000849621
0.000849621
0.000849621
0.000849621
0.000849621
0.000849621
0.000849621
0.000849621
0.000849621
0.000849622
0.000849622
0.000849622
0.000849622
0.000849623
0.000849623
0.000849623
0.000849624
0.000849624
0.000849625
0.000849625
0.000849625
0.000849626
0.000849626
0.000849626
0.000849626
0.000849623
0.000849619
0.00084962
0.000842572
0.000842573
0.000842571
0.00084257
0.000842567
0.000842565
0.000842564
0.000842564
0.000842564
0.000842564
0.000842564
0.000842564
0.000842564
0.000842564
0.000842564
0.000842565
0.000842565
0.000842565
0.000842565
0.000842565
0.000842565
0.000842565
0.000842565
0.000842565
0.000842565
0.000842566
0.000842566
0.000842566
0.000842567
0.000842567
0.000842567
0.000842568
0.000842568
0.000842568
0.000842569
0.000842569
0.000842568
0.000842566
0.000842561
0.000842563
0.000832508
0.000832508
0.000832507
0.000832506
0.000832504
0.000832502
0.0008325
0.0008325
0.000832501
0.0008325
0.000832501
0.000832501
0.000832501
0.000832501
0.000832501
0.000832501
0.000832501
0.000832501
0.000832501
0.000832502
0.000832502
0.000832502
0.000832501
0.000832501
0.000832502
0.000832502
0.000832502
0.000832502
0.000832502
0.000832503
0.000832503
0.000832503
0.000832503
0.000832504
0.000832504
0.000832504
0.000832504
0.000832501
0.000832497
0.000832498
0.00081973
0.000819731
0.000819731
0.000819729
0.000819727
0.000819725
0.000819724
0.000819724
0.000819724
0.000819724
0.000819724
0.000819725
0.000819725
0.000819725
0.000819725
0.000819725
0.000819725
0.000819725
0.000819725
0.000819725
0.000819725
0.000819725
0.000819725
0.000819725
0.000819725
0.000819725
0.000819725
0.000819725
0.000819726
0.000819726
0.000819726
0.000819726
0.000819726
0.000819726
0.000819727
0.000819727
0.000819726
0.000819724
0.000819719
0.000819721
0.000804501
0.000804502
0.000804502
0.0008045
0.000804498
0.000804496
0.000804496
0.000804496
0.000804496
0.000804496
0.000804496
0.000804496
0.000804497
0.000804497
0.000804497
0.000804497
0.000804497
0.000804497
0.000804497
0.000804497
0.000804497
0.000804497
0.000804497
0.000804497
0.000804497
0.000804497
0.000804497
0.000804497
0.000804497
0.000804497
0.000804497
0.000804497
0.000804497
0.000804498
0.000804498
0.000804498
0.000804497
0.000804494
0.00080449
0.000804491
0.00078705
0.000787051
0.00078705
0.000787049
0.000787047
0.000787046
0.000787046
0.000787046
0.000787046
0.000787046
0.000787046
0.000787046
0.000787046
0.000787046
0.000787046
0.000787046
0.000787046
0.000787047
0.000787047
0.000787047
0.000787047
0.000787047
0.000787046
0.000787046
0.000787046
0.000787046
0.000787046
0.000787046
0.000787046
0.000787047
0.000787046
0.000787046
0.000787046
0.000787047
0.000787047
0.000787047
0.000787046
0.000787043
0.000787039
0.00078704
0.000767576
0.000767577
0.000767576
0.000767576
0.000767574
0.000767573
0.000767573
0.000767573
0.000767573
0.000767573
0.000767573
0.000767573
0.000767573
0.000767573
0.000767573
0.000767573
0.000767573
0.000767573
0.000767573
0.000767573
0.000767573
0.000767573
0.000767573
0.000767573
0.000767573
0.000767573
0.000767573
0.000767573
0.000767573
0.000767573
0.000767573
0.000767573
0.000767573
0.000767573
0.000767573
0.000767573
0.000767573
0.00076757
0.000767565
0.000767566
0.000746249
0.00074625
0.000746249
0.000746248
0.000746247
0.000746246
0.000746246
0.000746246
0.000746246
0.000746246
0.000746246
0.000746246
0.000746246
0.000746246
0.000746246
0.000746246
0.000746246
0.000746246
0.000746246
0.000746246
0.000746246
0.000746246
0.000746246
0.000746246
0.000746246
0.000746246
0.000746246
0.000746246
0.000746246
0.000746246
0.000746246
0.000746246
0.000746246
0.000746246
0.000746247
0.000746247
0.000746246
0.000746243
0.000746238
0.000746239
0.000723203
0.000723203
0.000723203
0.000723202
0.000723201
0.0007232
0.0007232
0.0007232
0.0007232
0.0007232
0.0007232
0.0007232
0.0007232
0.0007232
0.0007232
0.0007232
0.0007232
0.0007232
0.0007232
0.0007232
0.0007232
0.0007232
0.0007232
0.0007232
0.0007232
0.0007232
0.0007232
0.0007232
0.0007232
0.0007232
0.0007232
0.0007232
0.0007232
0.000723201
0.000723201
0.000723202
0.000723201
0.000723197
0.000723192
0.000723193
0.000698532
0.000698533
0.000698533
0.000698532
0.000698531
0.00069853
0.00069853
0.00069853
0.00069853
0.00069853
0.00069853
0.00069853
0.00069853
0.00069853
0.00069853
0.00069853
0.00069853
0.00069853
0.00069853
0.00069853
0.00069853
0.00069853
0.00069853
0.00069853
0.00069853
0.00069853
0.00069853
0.000698531
0.000698531
0.000698531
0.000698531
0.000698531
0.000698532
0.000698532
0.000698533
0.000698533
0.000698532
0.000698528
0.000698523
0.000698524
0.000672284
0.000672285
0.000672285
0.000672283
0.000672282
0.000672281
0.000672281
0.000672281
0.000672281
0.000672281
0.000672281
0.000672281
0.000672281
0.000672281
0.000672282
0.000672281
0.000672282
0.000672282
0.000672282
0.000672282
0.000672282
0.000672282
0.000672282
0.000672283
0.000672283
0.000672283
0.000672283
0.000672283
0.000672284
0.000672284
0.000672284
0.000672285
0.000672285
0.000672285
0.000672286
0.000672286
0.000672285
0.00067228
0.000672275
0.000672276
0.000644438
0.000644438
0.000644438
0.000644436
0.000644435
0.000644435
0.000644434
0.000644435
0.000644435
0.000644435
0.000644435
0.000644435
0.000644435
0.000644435
0.000644435
0.000644435
0.000644435
0.000644436
0.000644436
0.000644436
0.000644437
0.000644437
0.000644437
0.000644437
0.000644438
0.000644438
0.000644438
0.000644439
0.000644439
0.000644439
0.00064444
0.00064444
0.00064444
0.000644441
0.000644441
0.000644441
0.000644439
0.000644435
0.00064443
0.00064443
0.00061488
0.00061488
0.000614879
0.000614879
0.000614877
0.000614877
0.000614877
0.000614877
0.000614877
0.000614877
0.000614877
0.000614877
0.000614878
0.000614878
0.000614878
0.000614879
0.000614879
0.000614879
0.00061488
0.00061488
0.000614881
0.000614881
0.000614882
0.000614882
0.000614882
0.000614883
0.000614883
0.000614883
0.000614884
0.000614884
0.000614884
0.000614885
0.000614885
0.000614885
0.000614886
0.000614885
0.000614883
0.000614878
0.000614874
0.000614874
0.000583355
0.000583354
0.000583354
0.000583353
0.000583352
0.000583352
0.000583352
0.000583352
0.000583352
0.000583352
0.000583353
0.000583353
0.000583353
0.000583354
0.000583354
0.000583355
0.000583355
0.000583356
0.000583356
0.000583357
0.000583358
0.000583358
0.000583358
0.000583359
0.000583359
0.00058336
0.00058336
0.00058336
0.000583361
0.000583361
0.000583361
0.000583362
0.000583362
0.000583362
0.000583362
0.000583361
0.000583358
0.000583354
0.00058335
0.00058335
0.000549357
0.000549356
0.000549355
0.000549355
0.000549354
0.000549355
0.000549355
0.000549355
0.000549355
0.000549356
0.000549356
0.000549357
0.000549357
0.000549358
0.000549358
0.000549359
0.00054936
0.00054936
0.000549361
0.000549362
0.000549362
0.000549363
0.000549363
0.000549364
0.000549364
0.000549364
0.000549365
0.000549365
0.000549365
0.000549366
0.000549366
0.000549366
0.000549367
0.000549367
0.000549366
0.000549365
0.000549362
0.000549358
0.000549354
0.000549354
0.00051189
0.000511889
0.000511888
0.000511888
0.000511888
0.000511888
0.000511889
0.000511889
0.00051189
0.00051189
0.000511891
0.000511891
0.000511892
0.000511893
0.000511893
0.000511894
0.000511895
0.000511896
0.000511896
0.000511897
0.000511897
0.000511898
0.000511898
0.000511899
0.000511899
0.0005119
0.0005119
0.0005119
0.000511901
0.000511901
0.000511901
0.000511901
0.000511902
0.000511902
0.000511901
0.000511899
0.000511896
0.000511893
0.000511889
0.000511888
0.000468749
0.000468749
0.000468748
0.000468748
0.000468748
0.000468749
0.000468749
0.00046875
0.00046875
0.000468751
0.000468751
0.000468752
0.000468753
0.000468753
0.000468754
0.000468755
0.000468756
0.000468756
0.000468757
0.000468758
0.000468758
0.000468759
0.000468759
0.00046876
0.00046876
0.00046876
0.000468761
0.000468761
0.000468761
0.000468761
0.000468762
0.000468762
0.000468762
0.000468762
0.000468761
0.000468759
0.000468756
0.000468753
0.00046875
0.000468749
0.000413558
0.000413557
0.000413557
0.000413557
0.000413557
0.000413557
0.000413558
0.000413558
0.000413559
0.000413559
0.00041356
0.00041356
0.000413561
0.000413562
0.000413562
0.000413563
0.000413564
0.000413565
0.000413565
0.000413566
0.000413566
0.000413567
0.000413567
0.000413568
0.000413568
0.000413568
0.000413569
0.000413569
0.000413569
0.000413569
0.00041357
0.00041357
0.00041357
0.000413569
0.000413568
0.000413566
0.000413563
0.000413561
0.000413558
0.000413558
0.000310621
0.00031062
0.000310619
0.000310619
0.000310619
0.000310619
0.000310619
0.000310619
0.00031062
0.00031062
0.000310621
0.000310621
0.000310622
0.000310623
0.000310624
0.000310625
0.000310625
0.000310626
0.000310627
0.000310628
0.000310628
0.000310629
0.000310629
0.00031063
0.00031063
0.00031063
0.000310631
0.000310631
0.000310631
0.000310632
0.000310632
0.000310632
0.000310632
0.000310631
0.000310629
0.000310627
0.000310624
0.000310622
0.000310619
0.00031062
)
;

boundaryField
{
    bottomWall
    {
        type            kqRWallFunction;
        value           nonuniform List<scalar> 
40
(
0.000310633
0.000310632
0.000310632
0.000310632
0.000310632
0.000310632
0.000310632
0.000310633
0.000310633
0.000310634
0.000310634
0.000310635
0.000310635
0.000310636
0.000310636
0.000310637
0.000310638
0.000310638
0.000310639
0.00031064
0.000310641
0.000310641
0.000310642
0.000310643
0.000310643
0.000310644
0.000310644
0.000310645
0.000310645
0.000310645
0.000310645
0.000310646
0.000310645
0.000310645
0.000310644
0.000310642
0.000310639
0.000310636
0.000310632
0.000310633
)
;
    }
    topWall
    {
        type            kqRWallFunction;
        value           nonuniform List<scalar> 
40
(
0.000310621
0.00031062
0.000310619
0.000310619
0.000310619
0.000310619
0.000310619
0.000310619
0.00031062
0.00031062
0.000310621
0.000310621
0.000310622
0.000310623
0.000310624
0.000310625
0.000310625
0.000310626
0.000310627
0.000310628
0.000310628
0.000310629
0.000310629
0.00031063
0.00031063
0.00031063
0.000310631
0.000310631
0.000310631
0.000310632
0.000310632
0.000310632
0.000310632
0.000310631
0.000310629
0.000310627
0.000310624
0.000310622
0.000310619
0.00031062
)
;
    }
    sides1_half0
    {
        type            empty;
    }
    sides1_half1
    {
        type            empty;
    }
    sides2_half0
    {
        type            empty;
    }
    sides2_half1
    {
        type            empty;
    }
    inout1_half0
    {
        type            cyclic;
    }
    inout1_half1
    {
        type            cyclic;
    }
    inout2_half0
    {
        type            cyclic;
    }
    inout2_half1
    {
        type            cyclic;
    }
}


// ************************************************************************* //
