/*--------------------------------*- C++ -*----------------------------------*\
  =========                 |
  \\      /  F ield         | OpenFOAM: The Open Source CFD Toolbox
   \\    /   O peration     | Website:  https://openfoam.org
    \\  /    A nd           | Version:  dev
     \\/     M anipulation  |

   OpenFOAM for Windows 20.09 (v1)
   Built by CFD Support, www.cfdsupport.com (based on Symscape).
\*---------------------------------------------------------------------------*/
FoamFile
{
    version     2.0;
    format      ascii;
    class       volScalarField;
    location    "50";
    object      p;
}
// * * * * * * * * * * * * * * * * * * * * * * * * * * * * * * * * * * * * * //

dimensions      [0 2 -2 0 0 0 0];

internalField   nonuniform List<scalar> 
1600
(
5.0762e-09
2.03914e-10
3.69576e-09
9.69486e-09
1.19164e-08
1.16782e-08
1.11975e-08
1.08692e-08
1.07033e-08
1.0635e-08
1.06178e-08
1.06452e-08
1.07141e-08
1.08131e-08
1.09273e-08
1.10445e-08
1.11551e-08
1.12578e-08
1.13549e-08
1.14546e-08
1.15566e-08
1.16665e-08
1.17727e-08
1.18791e-08
1.19591e-08
1.20202e-08
1.20155e-08
1.19704e-08
1.18053e-08
1.1577e-08
1.12799e-08
1.1014e-08
1.06728e-08
1.06571e-08
1.10363e-08
1.11916e-08
1.31352e-08
1.00977e-08
6.65737e-09
8.68658e-09
5.87154e-09
-4.82397e-10
3.51557e-09
9.93891e-09
1.19759e-08
1.17523e-08
1.13755e-08
1.11017e-08
1.0961e-08
1.09207e-08
1.09359e-08
1.09843e-08
1.1056e-08
1.11482e-08
1.12598e-08
1.13889e-08
1.15254e-08
1.16636e-08
1.17944e-08
1.19196e-08
1.20299e-08
1.21322e-08
1.22078e-08
1.22715e-08
1.2295e-08
1.23102e-08
1.22682e-08
1.22189e-08
1.21089e-08
1.1881e-08
1.15437e-08
1.12536e-08
1.08331e-08
1.03681e-08
9.90116e-09
9.09394e-09
1.0997e-08
7.03805e-09
4.48803e-09
1.00234e-08
5.22139e-09
-1.31683e-09
4.15859e-09
1.05321e-08
1.2056e-08
1.17347e-08
1.13725e-08
1.11043e-08
1.09488e-08
1.08889e-08
1.08885e-08
1.09246e-08
1.09854e-08
1.10683e-08
1.11724e-08
1.1294e-08
1.1421e-08
1.15479e-08
1.16681e-08
1.17856e-08
1.18924e-08
1.19959e-08
1.20765e-08
1.2149e-08
1.21835e-08
1.22128e-08
1.21846e-08
1.21498e-08
1.20027e-08
1.19146e-08
1.16416e-08
1.13781e-08
1.09475e-08
1.05311e-08
1.01228e-08
9.28126e-09
1.11635e-08
6.31661e-09
5.0172e-09
1.17185e-08
4.20969e-09
-1.79306e-09
5.08036e-09
1.10476e-08
1.20291e-08
1.16405e-08
1.13176e-08
1.10685e-08
1.09102e-08
1.08423e-08
1.08359e-08
1.08664e-08
1.09206e-08
1.09974e-08
1.10966e-08
1.12129e-08
1.13323e-08
1.14493e-08
1.1561e-08
1.16727e-08
1.17781e-08
1.18833e-08
1.19687e-08
1.20472e-08
1.20903e-08
1.21292e-08
1.21147e-08
1.20981e-08
1.19919e-08
1.19186e-08
1.16919e-08
1.14611e-08
1.10676e-08
1.06908e-08
1.03166e-08
9.37178e-09
1.10992e-08
5.346e-09
5.65121e-09
1.3156e-08
3.24921e-09
-1.95818e-09
5.97818e-09
1.13855e-08
1.1887e-08
1.14736e-08
1.12184e-08
1.10112e-08
1.08705e-08
1.08118e-08
1.08114e-08
1.08431e-08
1.08961e-08
1.09721e-08
1.10722e-08
1.11892e-08
1.13058e-08
1.14162e-08
1.15221e-08
1.16294e-08
1.17331e-08
1.1837e-08
1.19226e-08
1.1999e-08
1.20427e-08
1.20818e-08
1.20744e-08
1.20644e-08
1.19792e-08
1.19068e-08
1.17113e-08
1.1502e-08
1.113e-08
1.07318e-08
1.03376e-08
9.27726e-09
1.07529e-08
4.32382e-09
6.43712e-09
1.44511e-08
2.41713e-09
-1.96186e-09
6.75718e-09
1.15504e-08
1.1657e-08
1.12377e-08
1.1065e-08
1.09205e-08
1.08118e-08
1.07757e-08
1.07865e-08
1.08237e-08
1.08806e-08
1.09602e-08
1.10668e-08
1.11894e-08
1.13047e-08
1.14078e-08
1.15089e-08
1.16133e-08
1.17151e-08
1.18167e-08
1.19e-08
1.19701e-08
1.20102e-08
1.20454e-08
1.20395e-08
1.20265e-08
1.19503e-08
1.18754e-08
1.16976e-08
1.14936e-08
1.11291e-08
1.06942e-08
1.027e-08
9.13869e-09
1.03286e-08
3.56088e-09
7.48007e-09
1.56466e-08
1.72671e-09
-1.84152e-09
7.43001e-09
1.15998e-08
1.13572e-08
1.09601e-08
1.08765e-08
1.0797e-08
1.07313e-08
1.07212e-08
1.07445e-08
1.07949e-08
1.08576e-08
1.09452e-08
1.10623e-08
1.11907e-08
1.13003e-08
1.1395e-08
1.14956e-08
1.15999e-08
1.17008e-08
1.1801e-08
1.1881e-08
1.1942e-08
1.19773e-08
1.20081e-08
1.2001e-08
1.19806e-08
1.19069e-08
1.18242e-08
1.16543e-08
1.14445e-08
1.10878e-08
1.06273e-08
1.01774e-08
9.02469e-09
9.93746e-09
3.17512e-09
8.67805e-09
1.65929e-08
1.25214e-09
-1.53761e-09
8.02495e-09
1.15988e-08
1.10315e-08
1.06778e-08
1.0665e-08
1.06516e-08
1.06453e-08
1.06581e-08
1.06966e-08
1.07563e-08
1.08276e-08
1.09332e-08
1.10586e-08
1.11795e-08
1.12769e-08
1.13718e-08
1.14804e-08
1.15856e-08
1.16856e-08
1.17851e-08
1.1858e-08
1.19083e-08
1.19406e-08
1.19684e-08
1.19573e-08
1.19269e-08
1.1849e-08
1.17542e-08
1.15873e-08
1.13663e-08
1.10169e-08
1.05452e-08
1.00777e-08
8.94038e-09
9.61246e-09
3.15479e-09
9.80977e-09
1.7128e-08
1.07188e-09
-1.03741e-09
8.50255e-09
1.15607e-08
1.07571e-08
1.0403e-08
1.044e-08
1.05097e-08
1.05627e-08
1.05964e-08
1.06511e-08
1.07162e-08
1.08053e-08
1.09274e-08
1.10496e-08
1.11507e-08
1.12403e-08
1.13504e-08
1.14697e-08
1.15734e-08
1.16712e-08
1.17619e-08
1.18232e-08
1.18684e-08
1.19006e-08
1.19253e-08
1.19055e-08
1.18603e-08
1.17735e-08
1.16666e-08
1.15005e-08
1.12658e-08
1.09202e-08
1.04514e-08
9.97795e-09
8.87931e-09
9.365e-09
3.4195e-09
1.06991e-08
1.72371e-08
1.20387e-09
-4.72688e-10
8.80584e-09
1.15158e-08
1.05567e-08
1.01474e-08
1.02356e-08
1.03806e-08
1.04728e-08
1.05375e-08
1.06065e-08
1.06839e-08
1.07963e-08
1.09214e-08
1.10262e-08
1.11162e-08
1.12192e-08
1.13412e-08
1.14617e-08
1.1564e-08
1.16554e-08
1.17302e-08
1.17822e-08
1.183e-08
1.18596e-08
1.18739e-08
1.18413e-08
1.17756e-08
1.1681e-08
1.15657e-08
1.13938e-08
1.11479e-08
1.08052e-08
1.03479e-08
9.87998e-09
8.8379e-09
9.19413e-09
3.87403e-09
1.13109e-08
1.70693e-08
1.60598e-09
1.82102e-11
8.93386e-09
1.1467e-08
1.04031e-08
9.94145e-09
1.0069e-08
1.02574e-08
1.03773e-08
1.04738e-08
1.05612e-08
1.06634e-08
1.07897e-08
1.09031e-08
1.09988e-08
1.10994e-08
1.12177e-08
1.134e-08
1.14517e-08
1.15518e-08
1.16317e-08
1.16982e-08
1.17509e-08
1.17918e-08
1.18107e-08
1.18049e-08
1.17648e-08
1.16886e-08
1.15852e-08
1.14599e-08
1.12731e-08
1.10207e-08
1.06796e-08
1.02337e-08
9.78125e-09
8.81488e-09
9.09163e-09
4.43664e-09
1.16842e-08
1.67961e-08
2.21433e-09
4.55906e-10
8.92978e-09
1.1404e-08
1.02865e-08
9.79457e-09
9.93441e-09
1.01374e-08
1.02806e-08
1.0403e-08
1.05208e-08
1.06468e-08
1.07684e-08
1.08753e-08
1.09851e-08
1.11009e-08
1.12228e-08
1.13398e-08
1.14406e-08
1.15335e-08
1.16052e-08
1.16707e-08
1.172e-08
1.17438e-08
1.17537e-08
1.17312e-08
1.16823e-08
1.16081e-08
1.1499e-08
1.13592e-08
1.11557e-08
1.08912e-08
1.05512e-08
1.0121e-08
9.68151e-09
8.80806e-09
9.04351e-09
5.03735e-09
1.18335e-08
1.64468e-08
2.95817e-09
9.28976e-10
8.83514e-09
1.13028e-08
1.02068e-08
9.69103e-09
9.81472e-09
1.00224e-08
1.01908e-08
1.03396e-08
1.04812e-08
1.06147e-08
1.0739e-08
1.08598e-08
1.09836e-08
1.1104e-08
1.1222e-08
1.13323e-08
1.14256e-08
1.15135e-08
1.15868e-08
1.16419e-08
1.16811e-08
1.16994e-08
1.16986e-08
1.16596e-08
1.1603e-08
1.15344e-08
1.14222e-08
1.12658e-08
1.10459e-08
1.07685e-08
1.04338e-08
1.00178e-08
9.59008e-09
8.82059e-09
9.03331e-09
5.62155e-09
1.178e-08
1.59933e-08
3.75725e-09
1.41092e-09
8.6639e-09
1.11615e-08
1.0157e-08
9.61366e-09
9.70742e-09
9.92268e-09
1.01131e-08
1.02795e-08
1.04313e-08
1.05775e-08
1.07184e-08
1.08518e-08
1.09823e-08
1.11008e-08
1.12118e-08
1.13177e-08
1.14095e-08
1.14969e-08
1.15703e-08
1.16144e-08
1.16467e-08
1.1661e-08
1.16405e-08
1.15953e-08
1.15403e-08
1.14663e-08
1.13472e-08
1.11761e-08
1.09445e-08
1.06638e-08
1.03317e-08
9.92532e-09
9.52148e-09
8.85597e-09
9.04717e-09
6.15441e-09
1.15889e-08
1.54852e-08
4.5655e-09
1.90226e-09
8.43922e-09
1.09925e-08
1.01197e-08
9.554e-09
9.61682e-09
9.83526e-09
1.00397e-08
1.02177e-08
1.03814e-08
1.05435e-08
1.06983e-08
1.08426e-08
1.09743e-08
1.10918e-08
1.12035e-08
1.13065e-08
1.14005e-08
1.1485e-08
1.15504e-08
1.15904e-08
1.16134e-08
1.16179e-08
1.15915e-08
1.15492e-08
1.14882e-08
1.13986e-08
1.12729e-08
1.10936e-08
1.08591e-08
1.0577e-08
1.02445e-08
9.85597e-09
9.48021e-09
8.90421e-09
9.06927e-09
6.61417e-09
1.12961e-08
1.49324e-08
5.3606e-09
2.39657e-09
8.17211e-09
1.07965e-08
1.00786e-08
9.50304e-09
9.53719e-09
9.75503e-09
9.97086e-09
1.01597e-08
1.03376e-08
1.0511e-08
1.06773e-08
1.08303e-08
1.09619e-08
1.10835e-08
1.1198e-08
1.13018e-08
1.13954e-08
1.14726e-08
1.15282e-08
1.1564e-08
1.15819e-08
1.15824e-08
1.15586e-08
1.15103e-08
1.14391e-08
1.13424e-08
1.12097e-08
1.10257e-08
1.07902e-08
1.05063e-08
1.01782e-08
9.80855e-09
9.45502e-09
8.95021e-09
9.08558e-09
6.9896e-09
1.09344e-08
1.4361e-08
6.09977e-09
2.82712e-09
7.86414e-09
1.05655e-08
1.00222e-08
9.45667e-09
9.46859e-09
9.68367e-09
9.90782e-09
1.01085e-08
1.03003e-08
1.0484e-08
1.06567e-08
1.08125e-08
1.09496e-08
1.10763e-08
1.11934e-08
1.1298e-08
1.13858e-08
1.14553e-08
1.15073e-08
1.15421e-08
1.15601e-08
1.15578e-08
1.15308e-08
1.14795e-08
1.14052e-08
1.13036e-08
1.11629e-08
1.09739e-08
1.07357e-08
1.04513e-08
1.01281e-08
9.77194e-09
9.43362e-09
8.98396e-09
9.08763e-09
7.28258e-09
1.0565e-08
1.38503e-08
6.74187e-09
3.17531e-09
7.53436e-09
1.03112e-08
9.95036e-09
9.41301e-09
9.41016e-09
9.62104e-09
9.85191e-09
1.00648e-08
1.02669e-08
1.04577e-08
1.06348e-08
1.07952e-08
1.09387e-08
1.10696e-08
1.11878e-08
1.12892e-08
1.13722e-08
1.14398e-08
1.14935e-08
1.15289e-08
1.15447e-08
1.15402e-08
1.15132e-08
1.1463e-08
1.13863e-08
1.12779e-08
1.11294e-08
1.09349e-08
1.06933e-08
1.0408e-08
1.00874e-08
9.74016e-09
9.41153e-09
9.00046e-09
9.07212e-09
7.49949e-09
1.02209e-08
1.34123e-08
7.22722e-09
3.44105e-09
7.22297e-09
1.00616e-08
9.86868e-09
9.36586e-09
9.35673e-09
9.56527e-09
9.80309e-09
1.00259e-08
1.02353e-08
1.04326e-08
1.06152e-08
1.07807e-08
1.09288e-08
1.10619e-08
1.1179e-08
1.12782e-08
1.13613e-08
1.14306e-08
1.14847e-08
1.152e-08
1.15354e-08
1.15317e-08
1.15062e-08
1.14552e-08
1.13748e-08
1.12603e-08
1.11057e-08
1.09064e-08
1.06616e-08
1.03749e-08
1.00551e-08
9.71233e-09
9.38765e-09
8.99893e-09
9.04143e-09
7.64247e-09
9.92275e-09
1.3029e-08
7.46343e-09
3.57165e-09
6.976e-09
9.84879e-09
9.77751e-09
9.3077e-09
9.30301e-09
9.51543e-09
9.76065e-09
9.99156e-09
1.02081e-08
1.04116e-08
1.05988e-08
1.07678e-08
1.09186e-08
1.1053e-08
1.11702e-08
1.12701e-08
1.13545e-08
1.14243e-08
1.14781e-08
1.1514e-08
1.15313e-08
1.15286e-08
1.15028e-08
1.14504e-08
1.13674e-08
1.12493e-08
1.10911e-08
1.08888e-08
1.06417e-08
1.03533e-08
1.00324e-08
9.68958e-09
9.36332e-09
8.98243e-09
9.00251e-09
7.70483e-09
9.71366e-09
1.27343e-08
7.36981e-09
3.43963e-09
6.8088e-09
9.7124e-09
9.67963e-09
9.23377e-09
9.24818e-09
9.4723e-09
9.7253e-09
9.96359e-09
1.01868e-08
1.03952e-08
1.05859e-08
1.0757e-08
1.09099e-08
1.10462e-08
1.11647e-08
1.12652e-08
1.13499e-08
1.14192e-08
1.14728e-08
1.151e-08
1.15283e-08
1.15256e-08
1.14997e-08
1.14473e-08
1.13641e-08
1.12456e-08
1.10868e-08
1.08838e-08
1.06356e-08
1.03453e-08
1.00214e-08
9.67422e-09
9.3418e-09
8.95347e-09
8.96321e-09
7.65955e-09
9.63513e-09
1.26342e-08
6.93551e-09
3.00971e-09
6.70891e-09
9.65552e-09
9.57622e-09
9.1479e-09
9.19522e-09
9.43723e-09
9.69882e-09
9.94294e-09
1.01711e-08
1.03831e-08
1.05761e-08
1.07495e-08
1.09046e-08
1.10426e-08
1.11619e-08
1.12623e-08
1.13473e-08
1.14167e-08
1.14698e-08
1.15068e-08
1.15247e-08
1.1522e-08
1.14971e-08
1.14468e-08
1.13657e-08
1.12496e-08
1.10931e-08
1.08917e-08
1.06435e-08
1.03512e-08
1.00227e-08
9.66734e-09
9.32461e-09
8.91343e-09
8.92509e-09
7.50937e-09
9.69731e-09
1.27462e-08
6.23349e-09
2.36313e-09
6.63753e-09
9.63457e-09
9.46945e-09
9.06057e-09
9.149e-09
9.41144e-09
9.68093e-09
9.92966e-09
1.01617e-08
1.03743e-08
1.05688e-08
1.07456e-08
1.09021e-08
1.10411e-08
1.11611e-08
1.1262e-08
1.13481e-08
1.14174e-08
1.14695e-08
1.15056e-08
1.1523e-08
1.15201e-08
1.14975e-08
1.14504e-08
1.1373e-08
1.12616e-08
1.11096e-08
1.09113e-08
1.06644e-08
1.03698e-08
1.00349e-08
9.66802e-09
9.31108e-09
8.86324e-09
8.88396e-09
7.28497e-09
9.86816e-09
1.29877e-08
5.36766e-09
1.52798e-09
6.54132e-09
9.62346e-09
9.37061e-09
8.98405e-09
9.11604e-09
9.39669e-09
9.67251e-09
9.92584e-09
1.01576e-08
1.03671e-08
1.05635e-08
1.07434e-08
1.0902e-08
1.10429e-08
1.11618e-08
1.12651e-08
1.13518e-08
1.14198e-08
1.14725e-08
1.15079e-08
1.15252e-08
1.15231e-08
1.15037e-08
1.14606e-08
1.13878e-08
1.12822e-08
1.11357e-08
1.09423e-08
1.06975e-08
1.03999e-08
1.0057e-08
9.67607e-09
9.30169e-09
8.80367e-09
8.83788e-09
6.99616e-09
1.01054e-08
1.33201e-08
4.45872e-09
6.67811e-10
6.4161e-09
9.63002e-09
9.295e-09
8.93267e-09
9.10211e-09
9.39735e-09
9.68002e-09
9.93302e-09
1.01556e-08
1.03599e-08
1.05603e-08
1.07438e-08
1.09054e-08
1.10464e-08
1.11645e-08
1.12688e-08
1.1355e-08
1.1424e-08
1.14764e-08
1.15139e-08
1.15348e-08
1.1533e-08
1.15166e-08
1.1479e-08
1.14112e-08
1.13107e-08
1.11702e-08
1.09846e-08
1.07421e-08
1.04418e-08
1.00912e-08
9.69418e-09
9.29961e-09
8.7366e-09
8.78791e-09
6.64704e-09
1.03917e-08
1.37409e-08
3.55894e-09
1.47182e-14
6.44761e-09
9.69754e-09
9.26383e-09
8.91706e-09
9.11425e-09
9.42213e-09
9.70592e-09
9.94726e-09
1.01542e-08
1.03571e-08
1.05618e-08
1.07476e-08
1.09107e-08
1.10467e-08
1.11649e-08
1.12712e-08
1.13577e-08
1.14285e-08
1.14856e-08
1.15282e-08
1.15507e-08
1.15518e-08
1.15347e-08
1.15011e-08
1.14419e-08
1.13449e-08
1.12122e-08
1.10353e-08
1.07956e-08
1.04961e-08
1.01417e-08
9.72858e-09
9.30798e-09
8.66428e-09
8.73785e-09
6.24071e-09
1.07081e-08
1.42245e-08
2.65505e-09
-4.77287e-10
6.80237e-09
9.88773e-09
9.28416e-09
8.94019e-09
9.158e-09
9.47292e-09
9.74481e-09
9.96477e-09
1.01604e-08
1.03661e-08
1.05722e-08
1.07535e-08
1.09098e-08
1.10406e-08
1.11632e-08
1.12746e-08
1.13646e-08
1.1436e-08
1.14999e-08
1.15512e-08
1.15724e-08
1.15727e-08
1.15525e-08
1.15258e-08
1.14768e-08
1.1385e-08
1.12623e-08
1.10915e-08
1.08571e-08
1.05637e-08
1.02104e-08
9.77982e-09
9.32672e-09
8.59073e-09
8.69548e-09
5.78085e-09
1.10244e-08
1.47573e-08
1.85365e-09
-7.25419e-10
7.27358e-09
1.01319e-08
9.35313e-09
9.00397e-09
9.23404e-09
9.54329e-09
9.79256e-09
9.99108e-09
1.0184e-08
1.03952e-08
1.05888e-08
1.07519e-08
1.09008e-08
1.10354e-08
1.11654e-08
1.12799e-08
1.13738e-08
1.1449e-08
1.15184e-08
1.15717e-08
1.15925e-08
1.15892e-08
1.15739e-08
1.15582e-08
1.151e-08
1.14315e-08
1.1318e-08
1.11522e-08
1.09291e-08
1.06467e-08
1.02937e-08
9.83976e-09
9.35502e-09
8.52344e-09
8.67154e-09
5.27131e-09
1.12857e-08
1.5307e-08
1.17674e-09
-9.11963e-10
7.66568e-09
1.0381e-08
9.46353e-09
9.10774e-09
9.33847e-09
9.62989e-09
9.85416e-09
1.00342e-08
1.02276e-08
1.04346e-08
1.05999e-08
1.07435e-08
1.08923e-08
1.10403e-08
1.11762e-08
1.12858e-08
1.13794e-08
1.14644e-08
1.15365e-08
1.15837e-08
1.16043e-08
1.16095e-08
1.16082e-08
1.15907e-08
1.15427e-08
1.14803e-08
1.13744e-08
1.12201e-08
1.10129e-08
1.07405e-08
1.03803e-08
9.90208e-09
9.39461e-09
8.47223e-09
8.68031e-09
4.72579e-09
1.1438e-08
1.58343e-08
6.03169e-10
-1.15745e-09
7.93779e-09
1.06134e-08
9.61634e-09
9.24937e-09
9.47122e-09
9.73626e-09
9.92895e-09
1.00975e-08
1.02863e-08
1.04598e-08
1.05984e-08
1.07416e-08
1.08956e-08
1.10541e-08
1.11862e-08
1.12892e-08
1.13872e-08
1.148e-08
1.15474e-08
1.15902e-08
1.16173e-08
1.16388e-08
1.1647e-08
1.16241e-08
1.15835e-08
1.1529e-08
1.14303e-08
1.12932e-08
1.10979e-08
1.08301e-08
1.04615e-08
9.9666e-09
9.44917e-09
8.44845e-09
8.74154e-09
4.17216e-09
1.14296e-08
1.62821e-08
1.77393e-10
-1.43146e-09
8.07533e-09
1.08118e-08
9.80053e-09
9.43316e-09
9.63778e-09
9.86241e-09
1.0021e-08
1.01741e-08
1.0334e-08
1.04695e-08
1.06e-08
1.07532e-08
1.09137e-08
1.10638e-08
1.11854e-08
1.12964e-08
1.14026e-08
1.14919e-08
1.15563e-08
1.16e-08
1.1638e-08
1.1672e-08
1.1679e-08
1.16601e-08
1.1625e-08
1.15738e-08
1.14827e-08
1.13597e-08
1.11716e-08
1.09093e-08
1.05384e-08
1.0037e-08
9.52326e-09
8.46454e-09
8.87477e-09
3.65418e-09
1.1212e-08
1.66076e-08
-2.04257e-11
-1.72491e-09
8.02824e-09
1.0952e-08
1.00272e-08
9.67596e-09
9.8343e-09
1.00006e-08
1.0121e-08
1.02423e-08
1.03642e-08
1.04832e-08
1.06199e-08
1.07756e-08
1.09274e-08
1.10639e-08
1.11884e-08
1.13092e-08
1.14141e-08
1.14989e-08
1.15634e-08
1.16138e-08
1.16583e-08
1.16943e-08
1.16993e-08
1.16865e-08
1.16552e-08
1.16107e-08
1.15274e-08
1.14167e-08
1.12352e-08
1.09835e-08
1.06143e-08
1.01162e-08
9.61863e-09
8.52674e-09
9.09683e-09
3.2383e-09
1.07572e-08
1.67751e-08
5.6303e-11
-2.03235e-09
7.76416e-09
1.10411e-08
1.03224e-08
9.96962e-09
1.00444e-08
1.01384e-08
1.02116e-08
1.0299e-08
1.03975e-08
1.0507e-08
1.06419e-08
1.07874e-08
1.09265e-08
1.10608e-08
1.1191e-08
1.1311e-08
1.14121e-08
1.14982e-08
1.15645e-08
1.16205e-08
1.16664e-08
1.17017e-08
1.17091e-08
1.17042e-08
1.16777e-08
1.16425e-08
1.15663e-08
1.14684e-08
1.12925e-08
1.10537e-08
1.06886e-08
1.02036e-08
9.72972e-09
8.63612e-09
9.42261e-09
3.00825e-09
1.00657e-08
1.67384e-08
4.02888e-10
-2.32242e-09
7.32792e-09
1.11102e-08
1.06618e-08
1.02798e-08
1.02542e-08
1.02716e-08
1.02948e-08
1.03479e-08
1.04229e-08
1.05182e-08
1.06406e-08
1.07746e-08
1.09094e-08
1.1044e-08
1.11751e-08
1.12949e-08
1.1398e-08
1.1488e-08
1.15587e-08
1.16193e-08
1.16672e-08
1.17058e-08
1.17178e-08
1.17212e-08
1.16995e-08
1.16735e-08
1.16015e-08
1.15153e-08
1.1342e-08
1.11171e-08
1.07576e-08
1.02942e-08
9.85055e-09
8.79674e-09
9.85316e-09
3.04668e-09
9.16902e-09
1.64157e-08
9.78275e-10
-2.51664e-09
6.78723e-09
1.11343e-08
1.09868e-08
1.05755e-08
1.04498e-08
1.03889e-08
1.03564e-08
1.03703e-08
1.04191e-08
1.0499e-08
1.06094e-08
1.07377e-08
1.08721e-08
1.10088e-08
1.11432e-08
1.12679e-08
1.13771e-08
1.14737e-08
1.15512e-08
1.16184e-08
1.167e-08
1.1714e-08
1.17308e-08
1.17421e-08
1.17237e-08
1.17054e-08
1.16331e-08
1.15553e-08
1.13792e-08
1.11679e-08
1.0816e-08
1.03854e-08
9.985e-09
9.00866e-09
1.03622e-08
3.42402e-09
8.15719e-09
1.57401e-08
1.74224e-09
-2.53111e-09
6.1462e-09
1.10522e-08
1.12566e-08
1.08248e-08
1.0604e-08
1.04647e-08
1.03803e-08
1.03597e-08
1.03882e-08
1.04559e-08
1.05587e-08
1.06857e-08
1.08237e-08
1.09663e-08
1.11073e-08
1.12404e-08
1.13582e-08
1.14636e-08
1.15492e-08
1.16244e-08
1.16808e-08
1.17307e-08
1.17516e-08
1.17691e-08
1.17509e-08
1.17363e-08
1.16586e-08
1.15842e-08
1.13963e-08
1.11932e-08
1.0851e-08
1.04685e-08
1.01321e-08
9.25693e-09
1.08906e-08
4.16893e-09
7.18247e-09
1.47182e-08
2.65993e-09
-2.32896e-09
5.38292e-09
1.08217e-08
1.14288e-08
1.09967e-08
1.06944e-08
1.04934e-08
1.03742e-08
1.03349e-08
1.03538e-08
1.04173e-08
1.05194e-08
1.06497e-08
1.07944e-08
1.09451e-08
1.10943e-08
1.12364e-08
1.13632e-08
1.14772e-08
1.15706e-08
1.1653e-08
1.17139e-08
1.17683e-08
1.17912e-08
1.18112e-08
1.17878e-08
1.1767e-08
1.1675e-08
1.15984e-08
1.13872e-08
1.11781e-08
1.08329e-08
1.04935e-08
1.02369e-08
9.47799e-09
1.13204e-08
5.18981e-09
6.39279e-09
1.34531e-08
3.67003e-09
-1.84071e-09
4.56426e-09
1.04004e-08
1.14781e-08
1.10766e-08
1.07164e-08
1.04837e-08
1.03564e-08
1.032e-08
1.03468e-08
1.04208e-08
1.05346e-08
1.06767e-08
1.08327e-08
1.09928e-08
1.11492e-08
1.12974e-08
1.14292e-08
1.15475e-08
1.16446e-08
1.17303e-08
1.17926e-08
1.18477e-08
1.18691e-08
1.18862e-08
1.18539e-08
1.18149e-08
1.16925e-08
1.15972e-08
1.13534e-08
1.11269e-08
1.07517e-08
1.03984e-08
1.01915e-08
9.53461e-09
1.14758e-08
6.20419e-09
5.76223e-09
1.20498e-08
4.50023e-09
-9.66094e-10
3.99215e-09
9.76398e-09
1.14042e-08
1.10796e-08
1.06732e-08
1.04214e-08
1.03052e-08
1.02874e-08
1.0333e-08
1.04268e-08
1.05609e-08
1.07226e-08
1.08949e-08
1.10671e-08
1.12312e-08
1.13842e-08
1.15187e-08
1.16383e-08
1.17363e-08
1.18223e-08
1.18845e-08
1.19381e-08
1.19578e-08
1.19705e-08
1.19325e-08
1.1885e-08
1.17657e-08
1.15663e-08
1.12843e-08
1.10597e-08
1.06866e-08
1.02936e-08
1.00947e-08
9.4669e-09
1.14107e-08
7.03391e-09
5.16797e-09
1.03708e-08
3.37495e-09
-3.43139e-10
4.3118e-09
9.86466e-09
1.14809e-08
1.11227e-08
1.05973e-08
1.02252e-08
1.00467e-08
9.98608e-09
9.97929e-09
1.00107e-08
1.00855e-08
1.02051e-08
1.03623e-08
1.05443e-08
1.07393e-08
1.09358e-08
1.11191e-08
1.12844e-08
1.14218e-08
1.15356e-08
1.16218e-08
1.16904e-08
1.17257e-08
1.17427e-08
1.17037e-08
1.16445e-08
1.14963e-08
1.13411e-08
1.11021e-08
1.08994e-08
1.0742e-08
1.10048e-08
1.15464e-08
1.14739e-08
1.31396e-08
9.57818e-09
6.58009e-09
8.28339e-09
)
;

boundaryField
{
    bottomWall
    {
        type            zeroGradient;
    }
    topWall
    {
        type            zeroGradient;
    }
    sides1_half0
    {
        type            empty;
    }
    sides1_half1
    {
        type            empty;
    }
    sides2_half0
    {
        type            empty;
    }
    sides2_half1
    {
        type            empty;
    }
    inout1_half0
    {
        type            cyclic;
    }
    inout1_half1
    {
        type            cyclic;
    }
    inout2_half0
    {
        type            cyclic;
    }
    inout2_half1
    {
        type            cyclic;
    }
}


// ************************************************************************* //
