/*--------------------------------*- C++ -*----------------------------------*\
  =========                 |
  \\      /  F ield         | OpenFOAM: The Open Source CFD Toolbox
   \\    /   O peration     | Website:  https://openfoam.org
    \\  /    A nd           | Version:  dev
     \\/     M anipulation  |

   OpenFOAM for Windows 20.09 (v1)
   Built by CFD Support, www.cfdsupport.com (based on Symscape).
\*---------------------------------------------------------------------------*/
FoamFile
{
    version     2.0;
    format      ascii;
    class       surfaceScalarField;
    location    "50";
    object      phi;
}
// * * * * * * * * * * * * * * * * * * * * * * * * * * * * * * * * * * * * * //

dimensions      [0 3 -1 0 0 0 0];

internalField   nonuniform List<scalar> 
3120
(
0.00069147
2.90814e-10
0.000691469
5.45024e-10
0.000691469
1.70975e-10
0.000691469
-1.19877e-10
0.000691469
-1.24593e-10
0.000691469
-1.06057e-10
0.000691469
-1.06985e-10
0.00069147
-1.27295e-10
0.00069147
-1.47559e-10
0.00069147
-1.62115e-10
0.00069147
-1.74242e-10
0.00069147
-1.86317e-10
0.00069147
-1.98005e-10
0.000691471
-2.08429e-10
0.000691471
-2.17568e-10
0.000691471
-2.25363e-10
0.000691471
-2.31976e-10
0.000691472
-2.36429e-10
0.000691472
-2.38812e-10
0.000691472
-2.37022e-10
0.000691472
-2.31625e-10
0.000691473
-2.20225e-10
0.000691473
-2.05666e-10
0.000691473
-1.84522e-10
0.000691473
-1.62216e-10
0.000691473
-1.31872e-10
0.000691473
-1.02109e-10
0.000691473
-5.90027e-11
0.000691473
-1.45753e-11
0.000691473
4.51664e-11
0.000691473
1.09204e-10
0.000691473
1.9264e-10
0.000691473
2.80058e-10
0.000691472
3.5348e-10
0.000691472
4.63094e-10
0.000691471
4.75315e-10
0.000691471
5.95725e-10
0.00069147
6.4385e-10
0.00069147
2.6022e-10
-6.51079e-11
0.000783107
8.51804e-10
0.000783107
9.01521e-10
0.000783107
1.07639e-10
0.000783107
-2.22389e-10
0.000783107
-1.92498e-10
0.000783107
-1.66629e-10
0.000783107
-1.74385e-10
0.000783107
-2.0332e-10
0.000783107
-2.32522e-10
0.000783107
-2.55554e-10
0.000783107
-2.75594e-10
0.000783107
-2.95383e-10
0.000783108
-3.14603e-10
0.000783108
-3.32176e-10
0.000783108
-3.47969e-10
0.000783108
-3.61289e-10
0.000783108
-3.71938e-10
0.000783108
-3.78395e-10
0.000783108
-3.80885e-10
0.000783109
-3.7664e-10
0.000783109
-3.66829e-10
0.000783109
-3.48098e-10
0.000783109
-3.24616e-10
0.000783109
-2.91137e-10
0.000783109
-2.55208e-10
0.000783109
-2.05668e-10
0.000783109
-1.5435e-10
0.000783109
-8.1625e-11
0.000783109
-5.5944e-12
0.000783109
1.0449e-10
0.000783109
2.0987e-10
0.000783109
3.47002e-10
0.000783109
4.66675e-10
0.000783109
5.88898e-10
0.000783108
6.95127e-10
0.000783108
7.29423e-10
0.000783108
7.98959e-10
0.000783108
8.33695e-10
0.000783108
2.6325e-10
1.69454e-11
0.000847499
1.26446e-09
0.000847499
9.77759e-10
0.000847499
1.66538e-11
0.000847499
-2.69745e-10
0.000847499
-2.25062e-10
0.000847499
-2.00186e-10
0.000847499
-2.14294e-10
0.000847499
-2.48594e-10
0.000847499
-2.83791e-10
0.0008475
-3.13379e-10
0.0008475
-3.39698e-10
0.0008475
-3.65351e-10
0.0008475
-3.9008e-10
0.0008475
-4.13016e-10
0.0008475
-4.34062e-10
0.0008475
-4.51925e-10
0.0008475
-4.65845e-10
0.0008475
-4.73974e-10
0.0008475
-4.76533e-10
0.0008475
-4.70566e-10
0.0008475
-4.57554e-10
0.000847501
-4.33998e-10
0.000847501
-4.04346e-10
0.000847501
-3.62906e-10
0.000847501
-3.17232e-10
0.000847501
-2.54728e-10
0.000847501
-1.87091e-10
0.000847501
-9.13402e-11
0.000847501
1.17416e-11
0.000847501
1.54568e-10
0.000847501
2.92937e-10
0.000847501
4.64657e-10
0.0008475
6.07041e-10
0.0008475
7.54579e-10
0.0008475
8.43311e-10
0.0008475
8.72319e-10
0.0008475
8.94702e-10
0.0008475
8.79215e-10
0.0008475
2.63122e-10
2.48232e-10
0.000903411
1.46279e-09
0.000903411
9.20804e-10
0.000903411
-3.45595e-11
0.000903411
-2.72759e-10
0.000903411
-2.32977e-10
0.000903411
-2.15119e-10
0.000903411
-2.3541e-10
0.000903411
-2.73563e-10
0.000903411
-3.13078e-10
0.000903411
-3.47714e-10
0.000903411
-3.78849e-10
0.000903411
-4.08754e-10
0.000903411
-4.37283e-10
0.000903411
-4.63956e-10
0.000903412
-4.88733e-10
0.000903412
-5.09826e-10
0.000903412
-5.25965e-10
0.000903412
-5.35245e-10
0.000903412
-5.37808e-10
0.000903412
-5.30751e-10
0.000903412
-5.15565e-10
0.000903412
-4.89064e-10
0.000903412
-4.55283e-10
0.000903412
-4.08959e-10
0.000903412
-3.56372e-10
0.000903412
-2.85353e-10
0.000903412
-2.04916e-10
0.000903412
-9.32554e-11
0.000903412
3.11265e-11
0.000903412
1.96104e-10
0.000903412
3.5944e-10
0.000903412
5.5221e-10
0.000903412
7.09275e-10
0.000903412
8.64736e-10
0.000903412
9.3405e-10
0.000903412
9.47261e-10
0.000903412
9.2725e-10
0.000903412
8.47881e-10
0.000903412
2.93071e-10
5.05119e-10
0.000955962
1.48273e-09
0.000955962
8.16852e-10
0.000955962
-4.30349e-11
0.000955962
-2.46216e-10
0.000955962
-2.23731e-10
0.000955962
-2.17275e-10
0.000955962
-2.43802e-10
0.000955962
-2.85117e-10
0.000955962
-3.27722e-10
0.000955962
-3.66227e-10
0.000955962
-4.00748e-10
0.000955962
-4.33472e-10
0.000955962
-4.64269e-10
0.000955962
-4.93071e-10
0.000955962
-5.19881e-10
0.000955962
-5.42623e-10
0.000955962
-5.59697e-10
0.000955962
-5.6934e-10
0.000955962
-5.71662e-10
0.000955962
-5.63831e-10
0.000955962
-5.47178e-10
0.000955962
-5.19001e-10
0.000955962
-4.82634e-10
0.000955963
-4.33579e-10
0.000955963
-3.76394e-10
0.000955963
-3.00105e-10
0.000955963
-2.10444e-10
0.000955963
-8.84104e-11
0.000955963
5.12179e-11
0.000955962
2.30092e-10
0.000955962
4.10608e-10
0.000955962
6.13905e-10
0.000955962
7.78158e-10
0.000955962
9.29713e-10
0.000955962
9.81959e-10
0.000955962
9.75049e-10
0.000955962
9.1929e-10
0.000955962
7.83303e-10
0.000955962
3.47649e-10
7.08944e-10
0.00100724
1.38645e-09
0.00100724
7.0119e-10
0.00100724
-2.38081e-11
0.00100724
-2.03955e-10
0.00100724
-2.02981e-10
0.00100724
-2.11197e-10
0.00100724
-2.44344e-10
0.00100724
-2.87665e-10
0.00100724
-3.32805e-10
0.00100724
-3.74059e-10
0.00100724
-4.10669e-10
0.00100724
-4.45111e-10
0.00100724
-4.76681e-10
0.00100724
-5.06065e-10
0.00100724
-5.33154e-10
0.00100724
-5.55912e-10
0.00100724
-5.72568e-10
0.00100724
-5.8172e-10
0.00100724
-5.83462e-10
0.00100724
-5.74858e-10
0.00100724
-5.57067e-10
0.00100724
-5.27957e-10
0.00100724
-4.90105e-10
0.00100724
-4.39812e-10
0.00100724
-3.79953e-10
0.00100724
-3.00945e-10
0.00100724
-2.05359e-10
0.00100724
-7.74299e-11
0.00100724
7.17061e-11
0.00100724
2.57466e-10
0.00100724
4.47589e-10
0.00100724
6.5316e-10
0.00100724
8.18274e-10
0.00100724
9.58772e-10
0.00100724
9.96719e-10
0.00100724
9.68445e-10
0.00100724
8.84902e-10
0.00100724
7.06664e-10
0.00100724
4.07757e-10
8.40556e-10
0.0010583
1.22477e-09
0.0010583
5.8835e-10
0.0010583
8.76621e-12
0.0010583
-1.53511e-10
0.0010583
-1.75974e-10
0.0010583
-1.99726e-10
0.0010583
-2.38542e-10
0.0010583
-2.84217e-10
0.0010583
-3.32028e-10
0.0010583
-3.74795e-10
0.0010583
-4.12623e-10
0.0010583
-4.47291e-10
0.0010583
-4.78374e-10
0.0010583
-5.0708e-10
0.0010583
-5.32814e-10
0.0010583
-5.54048e-10
0.0010583
-5.69131e-10
0.0010583
-5.77201e-10
0.0010583
-5.77951e-10
0.0010583
-5.68242e-10
0.0010583
-5.49287e-10
0.0010583
-5.19599e-10
0.0010583
-4.81003e-10
0.0010583
-4.30539e-10
0.0010583
-3.69591e-10
0.0010583
-2.89865e-10
0.0010583
-1.91263e-10
0.0010583
-6.12277e-11
0.0010583
9.21844e-11
0.0010583
2.78938e-10
0.0010583
4.71668e-10
0.0010583
6.73021e-10
0.0010583
8.33977e-10
0.0010583
9.59509e-10
0.0010583
9.85028e-10
0.0010583
9.36704e-10
0.0010583
8.33385e-10
0.0010583
6.28663e-10
0.0010583
4.59091e-10
9.01877e-10
0.00110971
1.03433e-09
0.00110971
4.83952e-10
0.00110971
4.61114e-11
0.00110971
-1.00569e-10
0.00110971
-1.45762e-10
0.00110971
-1.8313e-10
0.00110971
-2.27739e-10
0.00110971
-2.76935e-10
0.00110971
-3.26476e-10
0.00110971
-3.6991e-10
0.00110971
-4.08143e-10
0.00110971
-4.41979e-10
0.00110971
-4.71897e-10
0.00110971
-4.98737e-10
0.00110971
-5.22001e-10
0.00110971
-5.40886e-10
0.00110971
-5.53763e-10
0.00110971
-5.60218e-10
0.00110971
-5.59322e-10
0.00110971
-5.47945e-10
0.00110971
-5.27651e-10
0.00110971
-4.97472e-10
0.00110971
-4.58709e-10
0.00110971
-4.08925e-10
0.00110971
-3.48035e-10
0.00110971
-2.69141e-10
0.00110971
-1.70067e-10
0.00110971
-4.11536e-11
0.00110971
1.11976e-10
0.00110971
2.94773e-10
0.00110971
4.84096e-10
0.00110971
6.76231e-10
0.00110971
8.28976e-10
0.00110971
9.37789e-10
0.00110971
9.52096e-10
0.00110971
8.86906e-10
0.00110971
7.70957e-10
0.00110971
5.5396e-10
0.00110971
4.91214e-10
9.03201e-10
0.00116185
8.39183e-10
0.00116185
3.90898e-10
0.00116185
8.29515e-11
0.00116185
-4.80412e-11
0.00116185
-1.1243e-10
0.00116185
-1.62408e-10
0.00116185
-2.13584e-10
0.00116185
-2.65343e-10
0.00116185
-3.15135e-10
0.00116185
-3.59272e-10
0.00116185
-3.97252e-10
0.00116185
-4.30078e-10
0.00116185
-4.58226e-10
0.00116185
-4.82466e-10
0.00116185
-5.02893e-10
0.00116185
-5.19198e-10
0.00116185
-5.29845e-10
0.00116185
-5.33897e-10
0.00116185
-5.30649e-10
0.00116185
-5.17358e-10
0.00116185
-4.95781e-10
0.00116185
-4.65455e-10
0.00116185
-4.2708e-10
0.00116185
-3.78276e-10
0.00116185
-3.18215e-10
0.00116185
-2.41384e-10
0.00116185
-1.44111e-10
0.00116185
-1.89763e-11
0.00116185
1.29894e-10
0.00116185
3.04711e-10
0.00116185
4.85919e-10
0.00116185
6.65062e-10
0.00116185
8.06306e-10
0.00116185
8.98206e-10
0.00116185
9.02486e-10
0.00116185
8.24334e-10
0.00116185
7.01558e-10
0.00116185
4.82604e-10
0.00116185
4.97029e-10
8.56218e-10
0.00121494
6.53313e-10
0.00121494
3.07947e-10
0.00121494
1.14387e-10
0.00121494
2.27933e-12
0.00121494
-7.66601e-11
0.00121494
-1.39017e-10
0.00121494
-1.95823e-10
0.00121494
-2.48791e-10
0.00121494
-2.983e-10
0.00121494
-3.42254e-10
0.00121494
-3.79741e-10
0.00121494
-4.11548e-10
0.00121494
-4.37565e-10
0.00121494
-4.58883e-10
0.00121494
-4.76623e-10
0.00121494
-4.90559e-10
0.00121494
-4.98462e-10
0.00121494
-4.99799e-10
0.00121494
-4.94076e-10
0.00121494
-4.79223e-10
0.00121494
-4.56752e-10
0.00121494
-4.26829e-10
0.00121494
-3.89224e-10
0.00121494
-3.41428e-10
0.00121494
-2.83076e-10
0.00121494
-2.09364e-10
0.00121494
-1.16195e-10
0.00121494
2.58388e-12
0.00121494
1.44299e-10
0.00121494
3.0818e-10
0.00121494
4.77674e-10
0.00121494
6.41215e-10
0.00121494
7.68737e-10
0.00121494
8.44632e-10
0.00121494
8.3994e-10
0.00121494
7.52568e-10
0.00121494
6.27467e-10
0.00121494
4.13698e-10
0.00121494
4.76761e-10
7.74516e-10
0.00126915
4.83994e-10
0.00126915
2.29585e-10
0.00126915
1.35585e-10
0.00126915
4.66575e-11
0.00126915
-4.10633e-11
0.00126915
-1.1366e-10
0.00126915
-1.74368e-10
0.00126915
-2.27459e-10
0.00126915
-2.76379e-10
0.00126915
-3.19324e-10
0.00126915
-3.55877e-10
0.00126915
-3.86042e-10
0.00126915
-4.09778e-10
0.00126915
-4.28554e-10
0.00126915
-4.43906e-10
0.00126915
-4.55171e-10
0.00126915
-4.60113e-10
0.00126915
-4.59164e-10
0.00126915
-4.51814e-10
0.00126915
-4.35873e-10
0.00126915
-4.13138e-10
0.00126915
-3.83864e-10
0.00126915
-3.47002e-10
0.00126915
-3.01142e-10
0.00126915
-2.45838e-10
0.00126915
-1.76354e-10
0.00126915
-8.82973e-11
0.00126915
2.25287e-11
0.00126915
1.542e-10
0.00126915
3.04683e-10
0.00126915
4.59691e-10
0.00126915
6.06243e-10
0.00126915
7.18797e-10
0.00126915
7.79586e-10
0.00126915
7.67143e-10
0.00126915
6.74383e-10
0.00126915
5.50664e-10
0.00126915
3.4747e-10
0.00126915
4.37555e-10
6.75422e-10
0.0013246
3.35806e-10
0.0013246
1.54737e-10
0.0013246
1.44156e-10
0.0013246
8.19298e-11
0.0013246
-8.77886e-12
0.0013246
-8.73328e-11
0.0013246
-1.49765e-10
0.0013246
-2.02597e-10
0.0013246
-2.50401e-10
0.0013246
-2.91646e-10
0.0013246
-3.26121e-10
0.0013246
-3.53921e-10
0.0013246
-3.7548e-10
0.0013246
-3.92121e-10
0.0013246
-4.04958e-10
0.0013246
-4.13406e-10
0.0013246
-4.16063e-10
0.0013246
-4.13688e-10
0.0013246
-4.05381e-10
0.0013246
-3.89202e-10
0.0013246
-3.66886e-10
0.0013246
-3.38195e-10
0.0013246
-3.02888e-10
0.0013246
-2.60017e-10
0.0013246
-2.08127e-10
0.0013246
-1.4341e-10
0.0013246
-6.18395e-11
0.0013246
3.94907e-11
0.0013246
1.59296e-10
0.0013246
2.94693e-10
0.0013246
4.33272e-10
0.0013246
5.61886e-10
0.0013246
6.58638e-10
0.0013246
7.05511e-10
0.0013246
6.86539e-10
0.0013246
5.92291e-10
0.0013246
4.73225e-10
0.0013246
2.84621e-10
0.0013246
3.85791e-10
5.70348e-10
0.00138136
2.11197e-10
0.00138136
8.70357e-11
0.00138136
1.40732e-10
0.00138136
1.05377e-10
0.00138136
1.76545e-11
0.00138136
-6.21699e-11
0.00138136
-1.24709e-10
0.00138136
-1.76317e-10
0.00138136
-2.21583e-10
0.00138136
-2.60118e-10
0.00138136
-2.91644e-10
0.00138136
-3.1675e-10
0.00138136
-3.35876e-10
0.00138136
-3.50085e-10
0.00138136
-3.60607e-10
0.00138136
-3.6689e-10
0.00138136
-3.68037e-10
0.00138136
-3.64763e-10
0.00138136
-3.56038e-10
0.00138136
-3.40233e-10
0.00138136
-3.18549e-10
0.00138136
-2.91419e-10
0.00138136
-2.5849e-10
0.00138136
-2.18463e-10
0.00138136
-1.70478e-10
0.00138136
-1.11759e-10
0.00138136
-3.82257e-11
0.00138136
5.28453e-11
0.00138136
1.59847e-10
0.00138136
2.78942e-10
0.00138136
3.99821e-10
0.00138136
5.09822e-10
0.00138136
5.90665e-10
0.00138136
6.25146e-10
0.00138136
6.01127e-10
0.00138136
5.09037e-10
0.00138136
3.97295e-10
0.00138136
2.25863e-10
0.00138136
3.25928e-10
4.64877e-10
0.00143949
1.09342e-10
0.00143949
2.68013e-11
0.00143949
1.26093e-10
0.00143949
1.15624e-10
0.00143949
3.58821e-11
0.00143949
-4.12745e-11
0.00143949
-1.01651e-10
0.00143949
-1.50051e-10
0.00143949
-1.91463e-10
0.00143949
-2.26357e-10
0.00143949
-2.54241e-10
0.00143949
-2.7601e-10
0.00143949
-2.92375e-10
0.00143949
-3.04156e-10
0.00143949
-3.12534e-10
0.00143949
-3.17122e-10
0.00143949
-3.1728e-10
0.00143949
-3.13363e-10
0.00143949
-3.04569e-10
0.00143949
-2.894e-10
0.00143949
-2.68864e-10
0.00143949
-2.43937e-10
0.00143949
-2.1365e-10
0.00143949
-1.77239e-10
0.00143949
-1.34516e-10
0.00143949
-8.2358e-11
0.00143949
-1.71748e-11
0.00143949
6.28171e-11
0.00143949
1.55795e-10
0.00143949
2.5779e-10
0.00143949
3.60379e-10
0.00143949
4.52029e-10
0.00143949
5.17576e-10
0.00143949
5.41371e-10
0.00143949
5.14318e-10
0.00143949
4.27533e-10
0.00143949
3.25078e-10
0.00143949
1.72321e-10
0.00143949
2.63878e-10
3.64967e-10
0.00149903
2.8242e-11
0.00149903
-2.56871e-11
0.00149903
1.02071e-10
0.00149903
1.12652e-10
0.00149903
4.39352e-11
0.00149903
-2.69273e-11
0.00149903
-8.2243e-11
0.00149903
-1.25618e-10
0.00149903
-1.61989e-10
0.00149903
-1.92044e-10
0.00149903
-2.15617e-10
0.00149903
-2.33643e-10
0.00149903
-2.46821e-10
0.00149903
-2.55889e-10
0.00149903
-2.62047e-10
0.00149903
-2.64951e-10
0.00149903
-2.6421e-10
0.00149903
-2.60004e-10
0.00149903
-2.51252e-10
0.00149903
-2.3709e-10
0.00149903
-2.1839e-10
0.00149903
-1.95887e-10
0.00149903
-1.69177e-10
0.00149903
-1.37453e-10
0.00149903
-1.00178e-10
0.00149903
-5.47584e-11
0.00149903
1.23024e-12
0.00149903
6.89359e-11
0.00149903
1.47108e-10
0.00149903
2.31928e-10
0.00149903
3.1644e-10
0.00149903
3.90638e-10
0.00149903
4.42001e-10
0.00149903
4.57145e-10
0.00149903
4.29011e-10
0.00149903
3.49855e-10
0.00149903
2.58127e-10
0.00149903
1.24781e-10
0.00149903
2.03775e-10
2.74009e-10
0.00156
-3.37614e-11
0.00156
-6.86662e-11
0.00156
7.132e-11
0.00156
9.73131e-11
0.00156
4.09093e-11
0.00156
-2.06263e-11
0.00156
-6.83536e-11
0.00156
-1.04743e-10
0.00156
-1.34428e-10
0.00156
-1.58516e-10
0.00156
-1.77025e-10
0.00156
-1.90766e-10
0.00156
-2.0018e-10
0.00156
-2.06163e-10
0.00156
-2.09993e-10
0.00156
-2.11176e-10
0.00156
-2.09548e-10
0.00156
-2.05032e-10
0.00156
-1.96615e-10
0.00156
-1.83822e-10
0.00156
-1.67393e-10
0.00156
-1.47964e-10
0.00156
-1.25247e-10
0.00156
-9.83908e-11
0.00156
-6.68473e-11
0.00156
-2.90928e-11
0.00156
1.67969e-11
0.00156
7.1797e-11
0.00156
1.34786e-10
0.00156
2.02537e-10
0.00156
2.69459e-10
0.00156
3.27197e-10
0.00156
3.65761e-10
0.00156
3.74104e-10
0.00156
3.4662e-10
0.00156
2.76904e-10
0.00156
1.97023e-10
0.00156
8.30697e-11
0.00156
1.46729e-10
1.92033e-10
0.00162241
-7.81966e-11
0.00162241
-1.01466e-10
0.00162241
3.55679e-11
0.00162241
6.99711e-11
0.00162241
2.64041e-11
0.00162241
-2.30852e-11
0.00162241
-6.06909e-11
0.00162241
-8.80938e-11
0.00162241
-1.09556e-10
0.00162241
-1.26491e-10
0.00162241
-1.3893e-10
0.00162241
-1.47627e-10
0.00162241
-1.53041e-10
0.00162241
-1.55915e-10
0.00162241
-1.57244e-10
0.00162241
-1.56647e-10
0.00162241
-1.53975e-10
0.00162241
-1.49014e-10
0.00162241
-1.41094e-10
0.00162241
-1.29915e-10
0.00162241
-1.15931e-10
0.00162241
-9.97386e-11
0.00162241
-8.10386e-11
0.00162241
-5.93355e-11
0.00162241
-3.42812e-11
0.00162241
-4.77786e-12
0.00162241
3.0531e-11
0.00162241
7.23517e-11
0.00162241
1.19809e-10
0.00162241
1.7049e-10
0.00162241
2.20153e-10
0.00162241
2.62304e-10
0.00162241
2.8932e-10
0.00162241
2.92481e-10
0.00162241
2.67319e-10
0.00162241
2.08684e-10
0.00162241
1.41574e-10
0.00162241
4.66873e-11
0.00162241
9.33191e-11
1.19126e-10
0.00168622
-1.04676e-10
0.00168622
-1.21731e-10
0.00168622
-4.43774e-12
0.00168622
3.04944e-11
0.00168622
5.87292e-13
0.00168622
-3.3984e-11
0.00168622
-5.89765e-11
0.00168622
-7.56362e-11
0.00168622
-8.75507e-11
0.00168622
-9.61644e-11
0.00168622
-1.01748e-10
0.00168622
-1.04892e-10
0.00168622
-1.06023e-10
0.00168622
-1.05588e-10
0.00168622
-1.04217e-10
0.00168622
-1.01685e-10
0.00168622
-9.7788e-11
0.00168622
-9.23257e-11
0.00168622
-8.48172e-11
0.00168622
-7.50783e-11
0.00168622
-6.34368e-11
0.00168622
-5.0413e-11
0.00168622
-3.59367e-11
0.00168622
-1.97358e-11
0.00168622
-1.6144e-12
0.00168622
1.905e-11
0.00168622
4.31116e-11
0.00168622
7.10977e-11
0.00168622
1.02561e-10
0.00168622
1.35981e-10
0.00168622
1.68552e-10
0.00168622
1.95787e-10
0.00168622
2.12337e-10
0.00168622
2.11821e-10
0.00168622
1.90659e-10
0.00168622
1.4464e-10
0.00168622
9.10835e-11
0.00168622
1.53047e-11
0.00168622
4.23793e-11
5.30176e-11
0.00175139
-1.12888e-10
0.00175139
-1.23551e-10
0.00175139
-4.68735e-11
0.00175139
-2.09068e-11
0.00175139
-3.577e-11
0.00175139
-5.22807e-11
0.00175139
-6.23983e-11
0.00175139
-6.68298e-11
0.00175139
-6.80299e-11
0.00175139
-6.74241e-11
0.00175139
-6.55535e-11
0.00175139
-6.27204e-11
0.00175139
-5.91952e-11
0.00175139
-5.51612e-11
0.00175139
-5.09281e-11
0.00175139
-4.63224e-11
0.00175139
-4.1051e-11
0.00175139
-3.48765e-11
0.00175139
-2.75022e-11
0.00175139
-1.89232e-11
0.00175139
-9.47631e-12
0.00175139
3.64747e-13
0.00175139
1.04814e-11
0.00175139
2.08988e-11
0.00175139
3.15531e-11
0.00175139
4.26402e-11
0.00175139
5.46869e-11
0.00175139
6.81733e-11
0.00175139
8.31225e-11
0.00175139
9.8992e-11
0.00175139
1.14503e-10
0.00175139
1.27283e-10
0.00175139
1.34257e-10
0.00175139
1.31387e-10
0.00175139
1.15781e-10
0.00175139
8.38697e-11
0.00175139
4.45239e-11
0.00175139
-1.09944e-11
0.00175139
-9.1392e-12
-1.37124e-11
0.00181782
-1.0961e-10
0.00181782
-1.04729e-10
0.00181782
-8.85915e-11
0.00181782
-8.22854e-11
0.00181782
-7.99653e-11
0.00181782
-7.56386e-11
0.00181782
-6.92336e-11
0.00181782
-6.02667e-11
0.00181782
-4.98473e-11
0.00181782
-3.94163e-11
0.00181782
-2.96108e-11
0.00181782
-2.04963e-11
0.00181782
-1.2092e-11
0.00181782
-4.29592e-12
0.00181782
2.89557e-12
0.00181782
9.68596e-12
0.00181782
1.6486e-11
0.00181782
2.35683e-11
0.00181782
3.09767e-11
0.00181782
3.85261e-11
0.00181782
4.58655e-11
0.00181782
5.24736e-11
0.00181782
5.80732e-11
0.00181782
6.23908e-11
0.00181782
6.50609e-11
0.00181782
6.59482e-11
0.00181782
6.53527e-11
0.00181782
6.3768e-11
0.00181782
6.17023e-11
0.00181782
5.96598e-11
0.00181782
5.79799e-11
0.00181782
5.64977e-11
0.00181782
5.44729e-11
0.00181782
5.02566e-11
0.00181782
4.15389e-11
0.00181782
2.52146e-11
0.00181782
5.58332e-13
0.00181782
-3.16365e-11
0.00181782
-6.17113e-11
-8.95161e-11
0.00181782
-1.02725e-10
0.00181782
-8.25455e-11
0.00181782
-1.29794e-10
0.00181782
-1.4469e-10
0.00181782
-1.24263e-10
0.00181782
-9.90399e-11
0.00181782
-7.61751e-11
0.00181782
-5.36823e-11
0.00181782
-3.16378e-11
0.00181782
-1.14481e-11
0.00181782
6.21978e-12
0.00181782
2.14669e-11
0.00181782
3.46094e-11
0.00181782
4.60242e-11
0.00181782
5.60099e-11
0.00181782
6.48418e-11
0.00181782
7.30612e-11
0.00181782
8.09355e-11
0.00181782
8.82668e-11
0.00181782
9.47735e-11
0.00181782
1.00033e-10
0.00181782
1.03422e-10
0.00181782
1.04511e-10
0.00181782
1.02768e-10
0.00181782
9.74891e-11
0.00181782
8.82012e-11
0.00181782
7.50511e-11
0.00181782
5.85403e-11
0.00181782
3.96255e-11
0.00181782
1.9864e-11
0.00181782
1.23823e-12
0.00181782
-1.41943e-11
0.00181782
-2.48167e-11
0.00181782
-2.9833e-11
0.00181782
-3.10263e-11
0.00181782
-3.1253e-11
0.00181782
-4.12332e-11
0.00181782
-5.06588e-11
0.00181782
-1.13667e-10
-1.6426e-10
0.00175139
-1.00509e-10
0.00175139
-7.72817e-11
0.00175139
-1.71802e-10
0.00175139
-1.97443e-10
0.00175139
-1.6059e-10
0.00175139
-1.17362e-10
0.00175139
-7.98092e-11
0.00175139
-4.47799e-11
0.00175139
-1.19817e-11
0.00175139
1.721e-11
0.00175139
4.20372e-11
0.00175139
6.29231e-11
0.00175139
8.03343e-11
0.00175139
9.48819e-11
0.00175139
1.07267e-10
0.00175139
1.17741e-10
0.00175139
1.26953e-10
0.00175139
1.35221e-10
0.00175139
1.42185e-10
0.00175139
1.47495e-10
0.00175139
1.50653e-10
0.00175139
1.50927e-10
0.00175139
1.47748e-10
0.00175139
1.40404e-10
0.00175139
1.27741e-10
0.00175139
1.0893e-10
0.00175139
8.40206e-11
0.00175139
5.34184e-11
0.00175139
1.84547e-11
0.00175139
-1.83208e-11
0.00175139
-5.33321e-11
0.00175139
-8.23539e-11
0.00175139
-1.01407e-10
0.00175139
-1.07233e-10
0.00175139
-1.01125e-10
0.00175139
-8.58554e-11
0.00175139
-8.16533e-11
0.00175139
-7.2392e-11
0.00175139
-1.63454e-10
-2.27851e-10
0.00168622
-1.12721e-10
0.00168622
-9.04566e-11
0.00168622
-2.11784e-10
0.00168622
-2.37086e-10
0.00168622
-1.8606e-10
0.00168622
-1.2813e-10
0.00168622
-7.81483e-11
0.00168622
-3.20303e-11
0.00168622
1.03061e-11
0.00168622
4.73655e-11
0.00168622
7.86025e-11
0.00168622
1.04606e-10
0.00168622
1.25648e-10
0.00168622
1.42798e-10
0.00168622
1.57056e-10
0.00168622
1.68639e-10
0.00168622
1.78426e-10
0.00168622
1.86648e-10
0.00168622
1.92982e-10
0.00168622
1.96939e-10
0.00168622
1.97913e-10
0.00168622
1.9515e-10
0.00168622
1.87972e-10
0.00168622
1.75558e-10
0.00168622
1.56184e-10
0.00168622
1.28667e-10
0.00168622
9.29396e-11
0.00168622
4.91512e-11
0.00168622
-1.08886e-12
0.00168622
-5.43291e-11
0.00168622
-1.05448e-10
0.00168622
-1.48063e-10
0.00168622
-1.75802e-10
0.00168622
-1.82941e-10
0.00168622
-1.70228e-10
0.00168622
-1.40325e-10
0.00168622
-1.22669e-10
0.00168622
-9.69411e-11
0.00168622
-2.1118e-10
-2.88111e-10
0.00162241
-1.43941e-10
0.00162241
-1.13762e-10
0.00162241
-2.47689e-10
0.00162241
-2.64169e-10
0.00162241
-2.00137e-10
0.00162241
-1.30317e-10
0.00162241
-7.0217e-11
0.00162241
-1.48445e-11
0.00162241
3.53929e-11
0.00162241
7.91335e-11
0.00162241
1.16104e-10
0.00162241
1.46514e-10
0.00162241
1.70442e-10
0.00162241
1.8969e-10
0.00162241
2.05382e-10
0.00162241
2.17654e-10
0.00162241
2.27625e-10
0.00162241
2.35548e-10
0.00162241
2.41064e-10
0.00162241
2.43482e-10
0.00162241
2.42288e-10
0.00162241
2.36566e-10
0.00162241
2.25684e-10
0.00162241
2.08825e-10
0.00162241
1.83477e-10
0.00162241
1.48129e-10
0.00162241
1.02581e-10
0.00162241
4.64945e-11
0.00162241
-1.83181e-11
0.00162241
-8.76806e-11
0.00162241
-1.54826e-10
0.00162241
-2.1131e-10
0.00162241
-2.48347e-10
0.00162241
-2.57702e-10
0.00162241
-2.39423e-10
0.00162241
-1.95934e-10
0.00162241
-1.65896e-10
0.00162241
-1.24919e-10
0.00162241
-2.598e-10
-3.52833e-10
0.00156001
-1.9508e-10
0.00156001
-1.48425e-10
0.00156001
-2.75658e-10
0.00156001
-2.78943e-10
0.00156001
-2.02513e-10
0.00156001
-1.23483e-10
0.00156001
-5.57325e-11
0.00156001
6.6394e-12
0.00156001
6.29143e-11
0.00156001
1.12169e-10
0.00156001
1.53994e-10
0.00156001
1.87912e-10
0.00156001
2.14188e-10
0.00156001
2.3523e-10
0.00156001
2.52094e-10
0.00156001
2.64785e-10
0.00156001
2.74673e-10
0.00156001
2.82076e-10
0.00156001
2.86547e-10
0.00156001
2.87417e-10
0.00156001
2.84084e-10
0.00156001
2.75632e-10
0.00156001
2.61563e-10
0.00156001
2.40851e-10
0.00156001
2.10404e-10
0.00156001
1.68193e-10
0.00156001
1.13671e-10
0.00156001
4.61329e-11
0.00156001
-3.2633e-11
0.00156001
-1.17831e-10
0.00156001
-2.00993e-10
0.00156001
-2.71866e-10
0.00156001
-3.19085e-10
0.00156001
-3.31865e-10
0.00156001
-3.09217e-10
0.00156001
-2.53475e-10
0.00156001
-2.12528e-10
0.00156001
-1.5715e-10
0.00156001
-3.11113e-10
-4.23572e-10
0.00149903
-2.61969e-10
0.00149903
-1.89478e-10
0.00149903
-2.96785e-10
0.00149903
-2.84027e-10
0.00149903
-1.92531e-10
0.00149903
-1.07668e-10
0.00149903
-3.514e-11
0.00149903
3.16083e-11
0.00149903
9.21218e-11
0.00149903
1.4571e-10
0.00149903
1.91292e-10
0.00149903
2.27804e-10
0.00149903
2.56066e-10
0.00149903
2.78969e-10
0.00149903
2.96882e-10
0.00149903
3.098e-10
0.00149903
3.19463e-10
0.00149903
3.26024e-10
0.00149903
3.29375e-10
0.00149903
3.28956e-10
0.00149903
3.23728e-10
0.00149903
3.12863e-10
0.00149903
2.96197e-10
0.00149903
2.72235e-10
0.00149903
2.37569e-10
0.00149903
1.89308e-10
0.00149903
1.2662e-10
0.00149903
4.84284e-11
0.00149903
-4.37019e-11
0.00149903
-1.4427e-10
0.00149903
-2.43409e-10
0.00149903
-3.29256e-10
0.00149903
-3.87551e-10
0.00149903
-4.05103e-10
0.00149903
-3.79486e-10
0.00149903
-3.1336e-10
0.00149903
-2.63277e-10
0.00149903
-1.94251e-10
0.00149903
-3.66115e-10
-5.03632e-10
0.00143949
-3.47409e-10
0.00143949
-2.39665e-10
0.00143949
-3.09775e-10
0.00143949
-2.73134e-10
0.00143949
-1.73e-10
0.00143949
-8.48445e-11
0.00143949
-1.0303e-11
0.00143949
5.87516e-11
0.00143949
1.22041e-10
0.00143949
1.78651e-10
0.00143949
2.26652e-10
0.00143949
2.64976e-10
0.00143949
2.9544e-10
0.00143949
3.20425e-10
0.00143949
3.3923e-10
0.00143949
3.5229e-10
0.00143949
3.61615e-10
0.00143949
3.67387e-10
0.00143949
3.69749e-10
0.00143949
3.68114e-10
0.00143949
3.61335e-10
0.00143949
3.48698e-10
0.00143949
3.30022e-10
0.00143949
3.03419e-10
0.00143949
2.6495e-10
0.00143949
2.11179e-10
0.00143949
1.41447e-10
0.00143949
5.33472e-11
0.00143949
-5.12277e-11
0.00143949
-1.66607e-10
0.00143949
-2.81647e-10
0.00143949
-3.8284e-10
0.00143949
-4.52882e-10
0.00143949
-4.76582e-10
0.00143949
-4.49684e-10
0.00143949
-3.75629e-10
0.00143949
-3.18261e-10
0.00143949
-2.35928e-10
0.00143949
-4.20977e-10
-5.89314e-10
0.00138136
-4.46869e-10
0.00138136
-2.94511e-10
0.00138136
-3.14277e-10
0.00138136
-2.50222e-10
0.00138136
-1.4541e-10
0.00138136
-5.76504e-11
0.00138136
1.66144e-11
0.00138136
8.63758e-11
0.00138136
1.51055e-10
0.00138136
2.0933e-10
0.00138136
2.5904e-10
0.00138136
2.9932e-10
0.00138136
3.32289e-10
0.00138136
3.59097e-10
0.00138136
3.78635e-10
0.00138136
3.91849e-10
0.00138136
4.00918e-10
0.00138136
4.06169e-10
0.00138136
4.07725e-10
0.00138136
4.0498e-10
0.00138136
3.96944e-10
0.00138136
3.83093e-10
0.00138136
3.62757e-10
0.00138136
3.3356e-10
0.00138136
2.91706e-10
0.00138136
2.33423e-10
0.00138136
1.57582e-10
0.00138136
6.06956e-11
0.00138136
-5.51466e-11
0.00138136
-1.84761e-10
0.00138136
-3.15177e-10
0.00138136
-4.31741e-10
0.00138136
-5.13905e-10
0.00138136
-5.45345e-10
0.00138136
-5.18944e-10
0.00138136
-4.39929e-10
0.00138136
-3.77172e-10
0.00138136
-2.81885e-10
0.00138136
-4.72181e-10
-6.78023e-10
0.0013246
-5.6028e-10
0.0013246
-3.5507e-10
0.0013246
-3.06126e-10
0.0013246
-2.16432e-10
0.0013246
-1.12311e-10
0.0013246
-2.84974e-11
0.0013246
4.33719e-11
0.0013246
1.12248e-10
0.0013246
1.77282e-10
0.0013246
2.36559e-10
0.0013246
2.88164e-10
0.0013246
3.3134e-10
0.0013246
3.66595e-10
0.0013246
3.94498e-10
0.0013246
4.14912e-10
0.0013246
4.28579e-10
0.0013246
4.37603e-10
0.0013246
4.42398e-10
0.0013246
4.43205e-10
0.0013246
4.39466e-10
0.0013246
4.30461e-10
0.0013246
4.15147e-10
0.0013246
3.92959e-10
0.0013246
3.61364e-10
0.0013246
3.16883e-10
0.0013246
2.54986e-10
0.0013246
1.74025e-10
0.0013246
6.96883e-11
0.0013246
-5.60478e-11
0.0013246
-1.98704e-10
0.0013246
-3.4325e-10
0.0013246
-4.74916e-10
0.0013246
-5.6947e-10
0.0013246
-6.10315e-10
0.0013246
-5.86124e-10
0.0013246
-5.05551e-10
0.0013246
-4.39366e-10
0.0013246
-3.31643e-10
0.0013246
-5.151e-10
-7.62526e-10
0.00126916
-6.89337e-10
0.00126916
-4.18059e-10
0.00126916
-2.85184e-10
0.00126916
-1.72734e-10
0.00126916
-7.51492e-11
0.00126916
3.40604e-13
0.00126916
6.73113e-11
0.00126916
1.34479e-10
0.00126916
1.99547e-10
0.00126916
2.60359e-10
0.00126916
3.1472e-10
0.00126916
3.60454e-10
0.00126916
3.97547e-10
0.00126916
4.26805e-10
0.00126916
4.48177e-10
0.00126916
4.62674e-10
0.00126916
4.71943e-10
0.00126916
4.76093e-10
0.00126916
4.75907e-10
0.00126916
4.71084e-10
0.00126916
4.60522e-10
0.00126916
4.43353e-10
0.00126916
4.19378e-10
0.00126916
3.85777e-10
0.00126916
3.39442e-10
0.00126916
2.7454e-10
0.00126916
1.89762e-10
0.00126916
7.92122e-11
0.00126916
-5.45504e-11
0.00126916
-2.08423e-10
0.00126916
-3.65522e-10
0.00126916
-5.11777e-10
0.00126916
-6.1857e-10
0.00126916
-6.70261e-10
0.00126916
-6.4974e-10
0.00126916
-5.7124e-10
0.00126916
-5.03719e-10
0.00126916
-3.84625e-10
0.00126916
-5.44021e-10
-8.3651e-10
0.00121495
-8.34437e-10
0.00121495
-4.82636e-10
0.00121495
-2.50277e-10
0.00121495
-1.19854e-10
0.00121495
-3.65706e-11
0.00121495
2.65017e-11
0.00121495
8.76016e-11
0.00121495
1.52872e-10
0.00121495
2.18309e-10
0.00121495
2.81411e-10
0.00121495
3.38421e-10
0.00121495
3.85899e-10
0.00121494
4.24865e-10
0.00121494
4.56102e-10
0.00121494
4.79011e-10
0.00121494
4.94118e-10
0.00121494
5.03119e-10
0.00121494
5.06525e-10
0.00121494
5.05058e-10
0.00121494
4.9845e-10
0.00121494
4.85809e-10
0.00121494
4.66433e-10
0.00121494
4.40769e-10
0.00121494
4.05423e-10
0.00121494
3.57636e-10
0.00121494
2.9059e-10
0.00121494
2.03274e-10
0.00121494
8.80495e-11
0.00121494
-5.14787e-11
0.00121494
-2.14566e-10
0.00121494
-3.81952e-10
0.00121494
-5.41638e-10
0.00121494
-6.59689e-10
0.00121494
-7.23375e-10
0.00121494
-7.07677e-10
0.00121494
-6.34954e-10
0.00121494
-5.68765e-10
0.00121495
-4.40696e-10
0.00121495
-5.53938e-10
-8.93741e-10
0.00116185
-9.90774e-10
0.00116185
-5.50133e-10
0.00116185
-2.04375e-10
0.00116185
-6.14651e-11
0.00116185
1.35709e-12
0.00116185
5.02505e-11
0.00116185
1.05045e-10
0.00116185
1.68244e-10
0.00116185
2.34387e-10
0.00116185
2.99374e-10
0.00116185
3.58104e-10
0.00116185
4.07813e-10
0.00116185
4.49434e-10
0.00116185
4.82849e-10
0.00116185
5.06997e-10
0.00116185
5.21936e-10
0.00116185
5.30124e-10
0.00116185
5.32155e-10
0.00116185
5.28629e-10
0.00116185
5.1927e-10
0.00116185
5.04148e-10
0.00116185
4.8246e-10
0.00116185
4.54972e-10
0.00116185
4.17848e-10
0.00116185