/*--------------------------------*- C++ -*----------------------------------*\
  =========                 |
  \\      /  F ield         | OpenFOAM: The Open Source CFD Toolbox
   \\    /   O peration     | Website:  https://openfoam.org
    \\  /    A nd           | Version:  dev
     \\/     M anipulation  |

   OpenFOAM for Windows 20.09 (v1)
   Built by CFD Support, www.cfdsupport.com (based on Symscape).
\*---------------------------------------------------------------------------*/
FoamFile
{
    version     2.0;
    format      ascii;
    class       volVectorField;
    location    "50";
    object      U;
}
// * * * * * * * * * * * * * * * * * * * * * * * * * * * * * * * * * * * * * //

dimensions      [0 1 -1 0 0 0 0];

internalField   nonuniform List<vector> 
1600
(
(0.0999667 1.60327e-08 0)
(0.0999666 1.21961e-08 0)
(0.0999665 1.18821e-09 0)
(0.0999665 -4.1236e-09 0)
(0.0999665 -3.41123e-09 0)
(0.0999666 -9.52892e-10 0)
(0.0999666 9.98399e-10 0)
(0.0999666 1.51362e-09 0)
(0.0999666 1.8108e-09 0)
(0.0999666 2.36179e-09 0)
(0.0999667 2.93931e-09 0)
(0.0999667 3.24098e-09 0)
(0.0999667 3.22435e-09 0)
(0.0999667 3.07926e-09 0)
(0.0999668 3.04506e-09 0)
(0.0999668 3.27516e-09 0)
(0.0999668 3.74291e-09 0)
(0.0999669 4.35668e-09 0)
(0.0999669 4.90263e-09 0)
(0.0999669 5.30154e-09 0)
(0.099967 5.42778e-09 0)
(0.099967 5.34319e-09 0)
(0.099967 4.92979e-09 0)
(0.0999671 4.39889e-09 0)
(0.0999671 3.67855e-09 0)
(0.0999671 3.17517e-09 0)
(0.0999671 2.73148e-09 0)
(0.0999672 2.68715e-09 0)
(0.0999672 3.45256e-09 0)
(0.0999672 5.53581e-09 0)
(0.0999671 7.04861e-09 0)
(0.0999671 7.04685e-09 0)
(0.0999671 4.61623e-09 0)
(0.0999671 -4.82615e-09 0)
(0.099967 -1.39529e-08 0)
(0.0999669 -2.54934e-08 0)
(0.0999668 -2.16083e-08 0)
(0.0999667 -2.07706e-08 0)
(0.0999666 -2.42552e-08 0)
(0.0999667 3.30442e-09 0)
(0.109159 2.33611e-08 0)
(0.109159 3.79862e-08 0)
(0.109159 1.01586e-08 0)
(0.109159 -7.53617e-09 0)
(0.109159 -7.88503e-09 0)
(0.109159 -7.73692e-09 0)
(0.109159 -8.76611e-09 0)
(0.109159 -1.05432e-08 0)
(0.109159 -1.2286e-08 0)
(0.109159 -1.37441e-08 0)
(0.109159 -1.50123e-08 0)
(0.109159 -1.61362e-08 0)
(0.109159 -1.70896e-08 0)
(0.109159 -1.78962e-08 0)
(0.109159 -1.8653e-08 0)
(0.109159 -1.94064e-08 0)
(0.109159 -2.01536e-08 0)
(0.109159 -2.0778e-08 0)
(0.109159 -2.11974e-08 0)
(0.109159 -2.12145e-08 0)
(0.109159 -2.0827e-08 0)
(0.109159 -1.98708e-08 0)
(0.109159 -1.8527e-08 0)
(0.109159 -1.66071e-08 0)
(0.109159 -1.45197e-08 0)
(0.109159 -1.18638e-08 0)
(0.109159 -9.25823e-09 0)
(0.109159 -5.83316e-09 0)
(0.109159 -2.57713e-09 0)
(0.109159 2.25651e-09 0)
(0.109159 7.53597e-09 0)
(0.109159 1.41492e-08 0)
(0.109159 2.11774e-08 0)
(0.109159 3.1159e-08 0)
(0.109159 4.25215e-08 0)
(0.109159 4.91445e-08 0)
(0.109159 5.44405e-08 0)
(0.109159 5.71173e-08 0)
(0.109159 2.84314e-08 0)
(0.109159 -1.04229e-09 0)
(0.113903 5.44603e-08 0)
(0.113903 4.97993e-08 0)
(0.113903 3.93375e-09 0)
(0.113903 -1.24717e-08 0)
(0.113903 -1.07417e-08 0)
(0.113903 -9.57838e-09 0)
(0.113903 -1.01996e-08 0)
(0.113903 -1.18618e-08 0)
(0.113903 -1.35588e-08 0)
(0.113903 -1.49423e-08 0)
(0.113903 -1.61494e-08 0)
(0.113903 -1.73223e-08 0)
(0.113903 -1.8457e-08 0)
(0.113903 -1.95099e-08 0)
(0.113903 -2.04773e-08 0)
(0.113903 -2.13041e-08 0)
(0.113903 -2.19593e-08 0)
(0.113903 -2.23481e-08 0)
(0.113903 -2.24778e-08 0)
(0.113903 -2.2201e-08 0)
(0.113903 -2.15892e-08 0)
(0.113903 -2.04657e-08 0)
(0.113903 -1.90584e-08 0)
(0.113903 -1.70838e-08 0)
(0.113903 -1.49399e-08 0)
(0.113903 -1.20031e-08 0)
(0.113903 -8.88514e-09 0)
(0.113903 -4.36853e-09 0)
(0.113903 3.55481e-10 0)
(0.113903 6.46791e-09 0)
(0.113903 1.27709e-08 0)
(0.113903 2.09553e-08 0)
(0.113903 2.81062e-08 0)
(0.113903 3.54901e-08 0)
(0.113903 4.05709e-08 0)
(0.113903 4.20093e-08 0)
(0.113903 4.42156e-08 0)
(0.113903 4.40033e-08 0)
(0.113903 1.27166e-08 0)
(0.113903 4.54119e-09 0)
(0.117067 7.0738e-08 0)
(0.117067 4.91809e-08 0)
(0.117067 -7.07391e-10 0)
(0.117067 -1.40216e-08 0)
(0.117067 -1.17844e-08 0)
(0.117067 -1.05894e-08 0)
(0.117067 -1.13992e-08 0)
(0.117067 -1.3207e-08 0)
(0.117067 -1.50725e-08 0)
(0.117067 -1.66735e-08 0)
(0.117068 -1.81062e-08 0)
(0.117068 -1.94996e-08 0)
(0.117068 -2.0847e-08 0)
(0.117068 -2.21076e-08 0)
(0.117068 -2.32717e-08 0)
(0.117068 -2.42568e-08 0)
(0.117068 -2.50116e-08 0)
(0.117068 -2.5442e-08 0)
(0.117068 -2.55604e-08 0)
(0.117068 -2.52228e-08 0)
(0.117068 -2.45061e-08 0)
(0.117068 -2.32423e-08 0)
(0.117068 -2.16462e-08 0)
(0.117068 -1.94396e-08 0)
(0.117068 -1.69684e-08 0)
(0.117068 -1.36025e-08 0)
(0.117068 -9.85189e-09 0)
(0.117068 -4.61783e-09 0)
(0.117068 1.13037e-09 0)
(0.117068 8.88412e-09 0)
(0.117068 1.65448e-08 0)
(0.117068 2.5819e-08 0)
(0.117068 3.3365e-08 0)
(0.117068 4.08786e-08 0)
(0.117068 4.45635e-08 0)
(0.117068 4.54452e-08 0)
(0.117068 4.53123e-08 0)
(0.117067 4.26217e-08 0)
(0.117068 1.27518e-08 0)
(0.117068 1.86792e-08 0)
(0.119439 7.5588e-08 0)
(0.119439 4.37357e-08 0)
(0.119439 -2.41316e-09 0)
(0.119439 -1.33459e-08 0)
(0.119439 -1.16771e-08 0)
(0.119439 -1.09773e-08 0)
(0.119439 -1.21024e-08 0)
(0.119439 -1.40782e-08 0)
(0.119439 -1.61213e-08 0)
(0.119439 -1.7951e-08 0)
(0.119439 -1.95953e-08 0)
(0.119439 -2.11753e-08 0)
(0.119439 -2.26744e-08 0)
(0.119439 -2.40761e-08 0)
(0.119439 -2.53793e-08 0)
(0.119439 -2.64864e-08 0)
(0.119439 -2.73255e-08 0)
(0.119439 -2.78043e-08 0)
(0.119439 -2.79304e-08 0)
(0.119439 -2.756e-08 0)
(0.119439 -2.67629e-08 0)
(0.119439 -2.53928e-08 0)
(0.11944 -2.36331e-08 0)
(0.11944 -2.12393e-08 0)
(0.11944 -1.84799e-08 0)
(0.11944 -1.4775e-08 0)
(0.11944 -1.04902e-08 0)
(0.11944 -4.61364e-09 0)
(0.11944 2.05308e-09 0)
(0.11944 1.07438e-08 0)
(0.11944 1.94285e-08 0)
(0.119439 2.94078e-08 0)
(0.119439 3.74414e-08 0)
(0.119439 4.51079e-08 0)
(0.119439 4.80691e-08 0)
(0.119439 4.82425e-08 0)
(0.119439 4.61668e-08 0)
(0.119439 4.06024e-08 0)
(0.11944 1.58625e-08 0)
(0.119439 3.16712e-08 0)
(0.121338 7.27084e-08 0)
(0.121338 3.78885e-08 0)
(0.121338 -1.95712e-09 0)
(0.121338 -1.1512e-08 0)
(0.121338 -1.08412e-08 0)
(0.121338 -1.08615e-08 0)
(0.121338 -1.23387e-08 0)
(0.121338 -1.44257e-08 0)
(0.121338 -1.66267e-08 0)
(0.121338 -1.86178e-08 0)
(0.121338 -2.04075e-08 0)
(0.121338 -2.21043e-08 0)
(0.121338 -2.36745e-08 0)
(0.121338 -2.51422e-08 0)
(0.121338 -2.65017e-08 0)
(0.121338 -2.7653e-08 0)
(0.121338 -2.85089e-08 0)
(0.121338 -2.89915e-08 0)
(0.121338 -2.91022e-08 0)
(0.121338 -2.86951e-08 0)
(0.121338 -2.78326e-08 0)
(0.121338 -2.6396e-08 0)
(0.121338 -2.45305e-08 0)
(0.121338 -2.2034e-08 0)
(0.121338 -1.90891e-08 0)
(0.121338 -1.51825e-08 0)
(0.121338 -1.05165e-08 0)
(0.121338 -4.22211e-09 0)
(0.121338 3.06825e-09 0)
(0.121338 1.22591e-08 0)
(0.121338 2.16048e-08 0)
(0.121338 3.1901e-08 0)
(0.121338 4.01921e-08 0)
(0.121338 4.75522e-08 0)
(0.121338 4.9801e-08 0)
(0.121338 4.8931e-08 0)
(0.121338 4.52825e-08 0)
(0.121338 3.72834e-08 0)
(0.121338 1.93107e-08 0)
(0.121338 4.00635e-08 0)
(0.122921 6.56543e-08 0)
(0.122922 3.20437e-08 0)
(0.122922 -5.09484e-10 0)
(0.122921 -9.0185e-09 0)
(0.122921 -9.62171e-09 0)
(0.122921 -1.03836e-08 0)
(0.122921 -1.21483e-08 0)
(0.122921 -1.44015e-08 0)
(0.122921 -1.67275e-08 0)
(0.122921 -1.88243e-08 0)
(0.122921 -2.07015e-08 0)
(0.122921 -2.24223e-08 0)
(0.122921 -2.40029e-08 0)
(0.122921 -2.5467e-08 0)
(0.122921 -2.67957e-08 0)
(0.122921 -2.7904e-08 0)
(0.122921 -2.87095e-08 0)
(0.122921 -2.91559e-08 0)
(0.122921 -2.92237e-08 0)
(0.122921 -2.87661e-08 0)
(0.122921 -2.78457e-08 0)
(0.122921 -2.63715e-08 0)
(0.122921 -2.44512e-08 0)
(0.122921 -2.1924e-08 0)
(0.122921 -1.88878e-08 0)
(0.122921 -1.48981e-08 0)
(0.122921 -1.00093e-08 0)
(0.122921 -3.51779e-09 0)
(0.122921 4.10482e-09 0)
(0.122921 1.34784e-08 0)
(0.122921 2.31224e-08 0)
(0.122921 3.33604e-08 0)
(0.122921 4.1581e-08 0)
(0.122921 4.8266e-08 0)
(0.122921 4.98345e-08 0)
(0.122921 4.79031e-08 0)
(0.122921 4.30966e-08 0)
(0.122921 3.34761e-08 0)
(0.122922 2.22533e-08 0)
(0.122921 4.45287e-08 0)
(0.124276 5.65627e-08 0)
(0.124276 2.67438e-08 0)
(0.124276 1.38959e-09 0)
(0.124276 -6.42733e-09 0)
(0.124276 -8.13523e-09 0)
(0.124276 -9.61768e-09 0)
(0.124276 -1.1758e-08 0)
(0.124276 -1.41237e-08 0)
(0.124276 -1.65268e-08 0)
(0.124276 -1.8702e-08 0)
(0.124276 -2.05994e-08 0)
(0.124276 -2.23257e-08 0)
(0.124276 -2.38607e-08 0)
(0.124276 -2.5248e-08 0)
(0.124276 -2.64829e-08 0)
(0.124276 -2.7501e-08 0)
(0.124276 -2.82135e-08 0)
(0.124276 -2.85767e-08 0)
(0.124276 -2.85699e-08 0)
(0.124276 -2.80416e-08 0)
(0.124276 -2.70595e-08 0)
(0.124276 -2.5557e-08 0)
(0.124276 -2.36188e-08 0)
(0.124276 -2.11093e-08 0)
(0.124276 -1.80479e-08 0)
(0.124276 -1.40652e-08 0)
(0.124276 -9.09429e-09 0)
(0.124276 -2.58355e-09 0)
(0.124276 5.12657e-09 0)
(0.124276 1.44121e-08 0)
(0.124276 2.40262e-08 0)
(0.124276 3.39104e-08 0)
(0.124276 4.17994e-08 0)
(0.124276 4.76657e-08 0)
(0.124276 4.86414e-08 0)
(0.124276 4.57733e-08 0)
(0.124276 4.01971e-08 0)
(0.124276 2.96673e-08 0)
(0.124276 2.42229e-08 0)
(0.124276 4.56847e-08 0)
(0.125453 4.67816e-08 0)
(0.125453 2.18487e-08 0)
(0.125453 3.28494e-09 0)
(0.125453 -3.67765e-09 0)
(0.125453 -6.46043e-09 0)
(0.125453 -8.70965e-09 0)
(0.125453 -1.11142e-08 0)
(0.125453 -1.3595e-08 0)
(0.125453 -1.60852e-08 0)
(0.125453 -1.83037e-08 0)
(0.125453 -2.02104e-08 0)
(0.125453 -2.18911e-08 0)
(0.125453 -2.33302e-08 0)
(0.125453 -2.4614e-08 0)
(0.125453 -2.57175e-08 0)
(0.125453 -2.66029e-08 0)
(0.125453 -2.72001e-08 0)
(0.125453 -2.74489e-08 0)
(0.125453 -2.73391e-08 0)
(0.125453 -2.67276e-08 0)
(0.125453 -2.56793e-08 0)
(0.125453 -2.41704e-08 0)
(0.125453 -2.22403e-08 0)
(0.125453 -1.97603e-08 0)
(0.125453 -1.67243e-08 0)
(0.125453 -1.28154e-08 0)
(0.125453 -7.88714e-09 0)
(0.125453 -1.50618e-09 0)
(0.125453 6.0794e-09 0)
(0.125453 1.50574e-08 0)
(0.125453 2.43733e-08 0)
(0.125453 3.36809e-08 0)
(0.125453 4.10576e-08 0)
(0.125453 4.60732e-08 0)
(0.125453 4.6525e-08 0)
(0.125453 4.28989e-08 0)
(0.125453 3.68755e-08 0)
(0.125453 2.59962e-08 0)
(0.125453 2.5008e-08 0)
(0.125453 4.42496e-08 0)
(0.126486 3.71504e-08 0)
(0.126487 1.7458e-08 0)
(0.126487 5.02817e-09 0)
(0.126487 -1.05723e-09 0)
(0.126487 -4.70362e-09 0)
(0.126487 -7.58296e-09 0)
(0.126487 -1.02665e-08 0)
(0.126487 -1.28982e-08 0)
(0.126487 -1.54123e-08 0)
(0.126487 -1.75887e-08 0)
(0.126487 -1.94955e-08 0)
(0.126487 -2.11162e-08 0)
(0.126486 -2.24701e-08 0)
(0.126486 -2.36071e-08 0)
(0.126486 -2.45679e-08 0)
(0.126486 -2.53324e-08 0)
(0.126486 -2.57689e-08 0)
(0.126486 -2.59049e-08 0)
(0.126486 -2.56794e-08 0)
(0.126486 -2.49755e-08 0)
(0.126486 -2.38707e-08 0)
(0.126486 -2.23612e-08 0)
(0.126486 -2.04549e-08 0)
(0.126486 -1.80315e-08 0)
(0.126486 -1.5066e-08 0)
(0.126486 -1.1289e-08 0)
(0.126486 -6.51835e-09 0)
(0.126486 -4.13304e-10 0)
(0.126486 6.89132e-09 0)
(0.126486 1.53938e-08 0)
(0.126486 2.41926e-08 0)
(0.126486 3.2779e-08 0)
(0.126486 3.95155e-08 0)
(0.126486 4.3704e-08 0)
(0.126486 4.36784e-08 0)
(0.126486 3.94887e-08 0)
(0.126486 3.32637e-08 0)
(0.126486 2.24651e-08 0)
(0.126487 2.45514e-08 0)
(0.126486 4.08574e-08 0)
(0.127397 2.81811e-08 0)
(0.127397 1.32719e-08 0)
(0.127397 6.35572e-09 0)
(0.127397 1.35576e-09 0)
(0.127397 -2.89223e-09 0)
(0.127397 -6.31605e-09 0)
(0.127397 -9.26376e-09 0)
(0.127397 -1.19369e-08 0)
(0.127397 -1.44143e-08 0)
(0.127397 -1.66025e-08 0)
(0.127397 -1.84621e-08 0)
(0.127397 -1.99985e-08 0)
(0.127397 -2.12455e-08 0)
(0.127397 -2.22649e-08 0)
(0.127397 -2.30868e-08 0)
(0.127397 -2.36896e-08 0)
(0.127397 -2.40101e-08 0)
(0.127397 -2.40175e-08 0)
(0.127397 -2.36997e-08 0)
(0.127397 -2.29142e-08 0)
(0.127397 -2.17825e-08 0)
(0.127397 -2.02885e-08 0)
(0.127397 -1.84113e-08 0)
(0.127397 -1.60853e-08 0)
(0.127397 -1.32395e-08 0)
(0.127397 -9.66141e-09 0)
(0.127397 -5.08889e-09 0)
(0.127397 6.79453e-10 0)
(0.127397 7.51297e-09 0)
(0.127397 1.53895e-08 0)
(0.127397 2.35174e-08 0)
(0.127397 3.12875e-08 0)
(0.127397 3.72951e-08 0)
(0.127397 4.06826e-08 0)
(0.127397 4.02483e-08 0)
(0.127397 3.57062e-08 0)
(0.127397 2.94745e-08 0)
(0.127397 1.90526e-08 0)
(0.127397 2.30086e-08 0)
(0.127397 3.63413e-08 0)
(0.128199 2.02381e-08 0)
(0.128199 9.51061e-09 0)
(0.128199 7.12161e-09 0)
(0.128199 3.37897e-09 0)
(0.128199 -1.16591e-09 0)
(0.128199 -4.96956e-09 0)
(0.128199 -8.08356e-09 0)
(0.128199 -1.0789e-08 0)
(0.128199 -1.32152e-08 0)
(0.128199 -1.5322e-08 0)
(0.128199 -1.70903e-08 0)
(0.128199 -1.85493e-08 0)
(0.128199 -1.96996e-08 0)
(0.128199 -2.05789e-08 0)
(0.128199 -2.12614e-08 0)
(0.128199 -2.17531e-08 0)
(0.128199 -2.19398e-08 0)
(0.128199 -2.18575e-08 0)
(0.128199 -2.14507e-08 0)
(0.128199 -2.06484e-08 0)
(0.128199 -1.95141e-08 0)
(0.128199 -1.80484e-08 0)
(0.128199 -1.62586e-08 0)
(0.128199 -1.40314e-08 0)
(0.128199 -1.13225e-08 0)
(0.128199 -7.95482e-09 0)
(0.128199 -3.72798e-09 0)
(0.128199 1.57677e-09 0)
(0.128199 7.89883e-09 0)
(0.128199 1.50593e-08 0)
(0.128199 2.24069e-08 0)
(0.128199 2.92797e-08 0)
(0.128199 3.45027e-08 0)
(0.128199 3.71827e-08 0)
(0.128199 3.63706e-08 0)
(0.128199 3.16625e-08 0)
(0.128199 2.55865e-08 0)
(0.128199 1.57852e-08 0)
(0.128199 2.06023e-08 0)
(0.128199 3.1061e-08 0)
(0.128903 1.34049e-08 0)
(0.128903 5.95046e-09 0)
(0.128903 7.24253e-09 0)
(0.128903 4.83979e-09 0)
(0.128903 3.55965e-10 0)
(0.128903 -3.66208e-09 0)
(0.128903 -6.86189e-09 0)
(0.128903 -9.47522e-09 0)
(0.128903 -1.17972e-08 0)
(0.128903 -1.38146e-08 0)
(0.128903 -1.54778e-08 0)
(0.128903 -1.68129e-08 0)
(0.128903 -1.7825e-08 0)
(0.128903 -1.85824e-08 0)
(0.128903 -1.91707e-08 0)
(0.128903 -1.95412e-08 0)
(0.128903 -1.96328e-08 0)
(0.128903 -1.94768e-08 0)
(0.128903 -1.90551e-08 0)
(0.128903 -1.82396e-08 0)
(0.128903 -1.71149e-08 0)
(0.128903 -1.57469e-08 0)
(0.128903 -1.40196e-08 0)
(0.128903 -1.19141e-08 0)
(0.128903 -9.43491e-09 0)
(0.128903 -6.36645e-09 0)
(0.128903 -2.47079e-09 0)
(0.128903 2.37694e-09 0)
(0.128903 8.04861e-09 0)
(0.128903 1.44012e-08 0)
(0.128903 2.08877e-08 0)
(0.128903 2.68386e-08 0)
(0.128903 3.12743e-08 0)
(0.128903 3.32789e-08 0)
(0.128903 3.21857e-08 0)
(0.128903 2.75033e-08 0)
(0.128903 2.17216e-08 0)
(0.128903 1.27068e-08 0)
(0.128903 1.77387e-08 0)
(0.128903 2.57331e-08 0)
(0.129516 7.72292e-09 0)
(0.129516 2.71846e-09 0)
(0.129516 6.75858e-09 0)
(0.129516 5.68969e-09 0)
(0.129516 1.48476e-09 0)
(0.129516 -2.50461e-09 0)
(0.129516 -5.6015e-09 0)
(0.129516 -8.12131e-09 0)
(0.129516 -1.03209e-08 0)
(0.129516 -1.21659e-08 0)
(0.129516 -1.366e-08 0)
(0.129516 -1.483e-08 0)
(0.129516 -1.57238e-08 0)
(0.129516 -1.638e-08 0)
(0.129516 -1.6845e-08 0)
(0.129516 -1.71165e-08 0)
(0.129516 -1.7145e-08 0)
(0.129516 -1.69646e-08 0)
(0.129516 -1.65115e-08 0)
(0.129516 -1.57295e-08 0)
(0.129516 -1.46816e-08 0)
(0.129516 -1.3357e-08 0)
(0.129516 -1.1766e-08 0)
(0.129516 -9.87479e-09 0)
(0.129516 -7.61487e-09 0)
(0.129516 -4.80407e-09 0)
(0.129516 -1.31914e-09 0)
(0.129516 2.93684e-09 0)
(0.129516 7.93754e-09 0)
(0.129516 1.34659e-08 0)
(0.129516 1.90457e-08 0)
(0.129516 2.40785e-08 0)
(0.129516 2.7718e-08 0)
(0.129516 2.91492e-08 0)
(0.129516 2.78555e-08 0)
(0.129516 2.33603e-08 0)
(0.129516 1.79917e-08 0)
(0.129516 9.87319e-09 0)
(0.129516 1.46756e-08 0)
(0.129516 2.05754e-08 0)
(0.130041 3.17661e-09 0)
(0.130041 -9.1573e-11 0)
(0.130041 5.77215e-09 0)
(0.130041 5.85758e-09 0)
(0.130041 2.14265e-09 0)
(0.130041 -1.59842e-09 0)
(0.130041 -4.52309e-09 0)
(0.130041 -6.84435e-09 0)
(0.130041 -8.80435e-09 0)
(0.130041 -1.04395e-08 0)
(0.130041 -1.17445e-08 0)
(0.130041 -1.27523e-08 0)
(0.130041 -1.3482e-08 0)
(0.130041 -1.39942e-08 0)
(0.130041 -1.43684e-08 0)
(0.130041 -1.45499e-08 0)
(0.130041 -1.45299e-08 0)
(0.130041 -1.43305e-08 0)
(0.130041 -1.38828e-08 0)
(0.130041 -1.31475e-08 0)
(0.130041 -1.21645e-08 0)
(0.130041 -1.09722e-08 0)
(0.130041 -9.56298e-09 0)
(0.130041 -7.85044e-09 0)
(0.130041 -5.81759e-09 0)
(0.130041 -3.38239e-09 0)
(0.130041 -3.63775e-10 0)
(0.130041 3.33176e-09 0)
(0.130041 7.61403e-09 0)
(0.130041 1.22802e-08 0)
(0.130041 1.69517e-08 0)
(0.130041 2.10808e-08 0)
(0.130041 2.39818e-08 0)
(0.130041 2.49326e-08 0)
(0.130041 2.35309e-08 0)
(0.130041 1.93589e-08 0)
(0.130041 1.44935e-08 0)
(0.130041 7.33006e-09 0)
(0.130041 1.15833e-08 0)
(0.130041 1.57825e-08 0)
(0.130482 -3.55481e-10 0)
(0.130482 -2.45593e-09 0)
(0.130482 4.37762e-09 0)
(0.130482 5.39071e-09 0)
(0.130482 2.25921e-09 0)
(0.130482 -1.07694e-09 0)
(0.130482 -3.68183e-09 0)
(0.130482 -5.69854e-09 0)
(0.130482 -7.36463e-09 0)
(0.130482 -8.73796e-09 0)
(0.130482 -9.79309e-09 0)
(0.130482 -1.05873e-08 0)
(0.130482 -1.11557e-08 0)
(0.130482 -1.15401e-08 0)
(0.130482 -1.17909e-08 0)
(0.130482 -1.18918e-08 0)
(0.130482 -1.18372e-08 0)
(0.130482 -1.16096e-08 0)
(0.130482 -1.11827e-08 0)
(0.130482 -1.05118e-08 0)
(0.130482 -9.63229e-09 0)
(0.130482 -8.58867e-09 0)
(0.130482 -7.33809e-09 0)
(0.130482 -5.86431e-09 0)
(0.130482 -4.14708e-09 0)
(0.130482 -2.06985e-09 0)
(0.130482 4.83414e-10 0)
(0.130482 3.55893e-09 0)
(0.130482 7.08538e-09 0)
(0.130482 1.0894e-08 0)
(0.130482 1.46678e-08 0)
(0.130482 1.79469e-08 0)
(0.130482 2.01741e-08 0)
(0.130482 2.07352e-08 0)
(0.130482 1.93222e-08 0)
(0.130482 1.55821e-08 0)
(0.130482 1.12838e-08 0)
(0.130482 5.09343e-09 0)
(0.130482 8.6298e-09 0)
(0.130482 1.1434e-08 0)
(0.130841 -3.01368e-09 0)
(0.130841 -4.40424e-09 0)
(0.130841 2.69489e-09 0)
(0.130841 4.29168e-09 0)
(0.130841 1.81133e-09 0)
(0.130841 -9.79528e-10 0)
(0.130841 -3.1386e-09 0)
(0.130841 -4.75209e-09 0)
(0.130841 -6.0487e-09 0)
(0.130841 -7.08589e-09 0)
(0.130841 -7.86387e-09 0)
(0.130841 -8.43078e-09 0)
(0.130841 -8.8109e-09 0)
(0.130841 -9.03755e-09 0)
(0.130841 -9.16542e-09 0)
(0.130841 -9.17992e-09 0)
(0.130841 -9.06912e-09 0)
(0.130841 -8.83491e-09 0)
(0.130841 -8.43029e-09 0)
(0.130841 -7.83479e-09 0)
(0.130841 -7.07098e-09 0)
(0.130841 -6.17652e-09 0)
(0.130841 -5.14022e-09 0)
(0.130841 -3.92581e-09 0)
(0.130841 -2.51013e-09 0)
(0.130841 -8.18634e-10 0)
(0.130841 1.21789e-09 0)
(0.130841 3.63783e-09 0)
(0.130841 6.39564e-09 0)
(0.130841 9.34873e-09 0)
(0.130841 1.2251e-08 0)
(0.130841 1.47311e-08 0)
(0.130841 1.63499e-08 0)
(0.130841 1.66147e-08 0)
(0.130841 1.52774e-08 0)
(0.130841 1.20528e-08 0)
(0.130841 8.37079e-09 0)
(0.130841 3.14643e-09 0)
(0.130841 5.89807e-09 0)
(0.130841 7.63967e-09 0)
(0.131115 -4.77086e-09 0)
(0.131115 -5.7542e-09 0)
(0.131115 7.69685e-10 0)
(0.131115 2.61829e-09 0)
(0.131115 7.98522e-10 0)
(0.131115 -1.32131e-09 0)
(0.131115 -2.90872e-09 0)
(0.131115 -4.03202e-09 0)
(0.131115 -4.88241e-09 0)
(0.131115 -5.52704e-09 0)
(0.131115 -5.98576e-09 0)
(0.131115 -6.28758e-09 0)
(0.131115 -6.45427e-09 0)
(0.131115 -6.51533e-09 0)
(0.131115 -6.51261e-09 0)
(0.131115 -6.43625e-09 0)
(0.131115 -6.27627e-09 0)
(0.131115 -6.02009e-09 0)
(0.131115 -5.63696e-09 0)
(0.131115 -5.11224e-09 0)
(0.131115 -4.4729e-09 0)
(0.131115 -3.74171e-09 0)
(0.131115 -2.9124e-09 0)
(0.131115 -1.96416e-09 0)
(0.131115 -8.77716e-10 0)
(0.131115 3.80356e-10 0)
(0.131115 1.86646e-09 0)
(0.131115 3.61139e-09 0)
(0.131115 5.58217e-09 0)
(0.131115 7.67863e-09 0)
(0.131115 9.72433e-09 0)
(0.131115 1.14447e-08 0)
(0.131115 1.25164e-08 0)
(0.131115 1.25624e-08 0)
(0.131115 1.13853e-08 0)
(0.131115 8.75267e-09 0)
(0.131115 5.73014e-09 0)
(0.131115 1.46582e-09 0)
(0.131115 3.32513e-09 0)
(0.131115 4.20091e-09 0)
(0.131304 -5.58491e-09 0)
(0.131304 -6.32664e-09 0)
(0.131304 -1.31777e-09 0)
(0.131304 3.25959e-10 0)
(0.131304 -7.77727e-10 0)
(0.131304 -2.07534e-09 0)
(0.131304 -2.97546e-09 0)
(0.131304 -3.51846e-09 0)
(0.131304 -3.85336e-09 0)
(0.131304 -4.05967e-09 0)
(0.131304 -4.15852e-09 0)
(0.131304 -4.16793e-09 0)
(0.131304 -4.10843e-09 0)
(0.131304 -3.99712e-09 0)
(0.131304 -3.85923e-09 0)
(0.131304 -3.68297e-09 0)
(0.131304 -3.45512e-09 0)
(0.131304 -3.16524e-09 0)
(0.131304 -2.79332e-09 0)
(0.131304 -2.33711e-09 0)
(0.131304 -1.81181e-09 0)
(0.131304 -1.24083e-09 0)
(0.131304 -6.25068e-10 0)
(0.131304 4.28115e-11 0)
(0.131304 7.63588e-10 0)
(0.131304 1.55933e-09 0)
(0.131304 2.46391e-09 0)
(0.131304 3.50123e-09 0)
(0.131304 4.65991e-09 0)
(0.131304 5.88765e-09 0)
(0.131304 7.08193e-09 0)
(0.131304 8.07111e-09 0)
(0.131304 8.645e-09 0)
(0.131304 8.54372e-09 0)
(0.131304 7.60704e-09 0)
(0.131304 5.64419e-09 0)
(0.131304 3.31866e-09 0)
(0.131304 3.32794e-11 0)
(0.131304 7.92274e-10 0)
(0.131304 9.65839e-10 0)
(0.131402 -5.60045e-09 0)
(0.131402 -5.80486e-09 0)
(0.131402 -3.4206e-09 0)
(0.131402 -2.53756e-09 0)
(0.131402 -2.84607e-09 0)
(0.131402 -3.16423e-09 0)
(0.131402 -3.26761e-09 0)
(0.131402 -3.15913e-09 0)
(0.131402 -2.93176e-09 0)
(0.131402 -2.65857e-09 0)
(0.131402 -2.36638e-09 0)
(0.131402 -2.06769e-09 0)
(0.131402 -1.76957e-09 0)
(0.131402 -1.47417e-09 0)
(0.131402 -1.18822e-09 0)
(0.131402 -9.02295e-10 0)
(0.131402 -5.99546e-10 0)
(0.131402 -2.67263e-10 0)
(0.131402 1.01961e-10 0)
(0.131402 5.04368e-10 0)
(0.131402 9.23316e-10 0)
(0.131402 1.3347e-09 0)
(0.131402 1.72805e-09 0)
(0.131402 2.09583e-09 0)
(0.131402 2.42888e-09 0)
(0.131402 2.72896e-09 0)
(0.131402 3.01565e-09 0)
(0.131402 3.31258e-09 0)
(0.131402 3.6329e-09 0)
(0.131402 3.97535e-09 0)
(0.131402 4.31612e-09 0)
(0.131402 4.59153e-09 0)
(0.131402 4.70602e-09 0)
(0.131402 4.5173e-09 0)
(0.131402 3.8971e-09 0)
(0.131402 2.68167e-09 0)
(0.131402 1.08016e-09 0)
(0.131402 -1.11475e-09 0)
(0.131402 -1.801e-09 0)
(0.131402 -2.57178e-09 0)
(0.131402 -5.32725e-09 0)
(0.131402 -4.6011e-09 0)
(0.131402 -5.40375e-09 0)
(0.131402 -5.68574e-09 0)
(0.131402 -5.14518e-09 0)
(0.131402 -4.40289e-09 0)
(0.131402 -3.65927e-09 0)
(0.131402 -2.86732e-09 0)
(0.131402 -2.05371e-09 0)
(0.131402 -1.28314e-09 0)
(0.131402 -5.93168e-10 0)
(0.131402 1.88067e-11 0)
(0.131402 5.60455e-10 0)
(0.131402 1.04313e-09 0)
(0.131402 1.47615e-09 0)
(0.131402 1.87096e-09 0)
(0.131402 2.24954e-09 0)
(0.131402 2.62561e-09 0)
(0.131402 2.99618e-09 0)
(0.131402 3.3485e-09 0)
(0.131402 3.66401e-09 0)
(0.131402 3.91438e-09 0)
(0.131402 4.08058e-09 0)
(0.131402 4.14315e-09 0)
(0.131402 4.07585e-09 0)
(0.131402 3.86382e-09 0)
(0.131402 3.51801e-09 0)
(0.131402 3.0633e-09 0)
(0.131402 2.53687e-09 0)
(0.131402 1.99045e-09 0)
(0.131402 1.4818e-09 0)
(0.131402 1.05792e-09 0)
(0.131402 7.4032e-10 0)
(0.131402 5.06873e-10 0)
(0.131402 2.55712e-10 0)
(0.131402 -1.59961e-10 0)
(0.131402 -1.02387e-09 0)
(0.131402 -2.04986e-09 0)
(0.131402 -4.3772e-09 0)
(0.131402 -6.38854e-09 0)
(0.131304 -5.01697e-09 0)
(0.131304 -3.78083e-09 0)
(0.131304 -7.46694e-09 0)
(0.131304 -8.64088e-09 0)
(0.131304 -7.23514e-09 0)
(0.131304 -5.49823e-09 0)
(0.131304 -3.96156e-09 0)
(0.131304 -2.50976e-09 0)
(0.131304 -1.12769e-09 0)
(0.131304 1.13006e-10 0)
(0.131304 1.18135e-09 0)
(0.131304 2.09172e-09 0)
(0.131304 2.86049e-09 0)
(0.131304 3.51442e-09 0)
(0.131304 4.07952e-09 0)
(0.131304 4.56711e-09 0)
(0.131304 5.00704e-09 0)
(0.131304 5.41392e-09 0)
(0.131304 5.77547e-09 0)
(0.131304 6.07368e-09 0)
(0.131304 6.28472e-09 0)
(0.131304 6.3756e-09 0)
(0.131304 6.32133e-09 0)
(0.131304 6.09098e-09 0)
(0.131304 5.63796e-09 0)
(0.131304 4.93149e-09 0)
(0.131304 3.97566e-09 0)
(0.131304 2.79408e-09 0)
(0.131304 1.44528e-09 0)
(0.131304 3.23312e-11 0)
(0.131304 -1.30632e-09 0)
(0.131304 -2.41353e-09 0)
(0.131304 -3.15025e-09 0)
(0.131304 -3.41715e-09 0)
(0.131304 -3.29162e-09 0)
(0.131304 -2.9131e-09 0)
(0.131304 -3.05469e-09 0)
(0.131304 -3.04158e-09 0)
(0.131304 -6.90759e-09 0)
(0.131304 -9.83045e-09 0)
(0.131115 -5.1766e-09 0)
(0.131115 -3.93174e-09 0)
(0.131115 -9.57691e-09 0)
(0.131115 -1.1004e-08 0)
(0.131115 -8.81451e-09 0)
(0.131115 -6.25067e-09 0)
(0.131115 -4.03325e-09 0)
(0.131115 -1.98609e-09 0)
(0.131115 -9.29099e-11 0)
(0.131115 1.57431e-09 0)
(0.131115 2.98988e-09 0)
(0.131115 4.16706e-09 0)
(0.131115 5.13215e-09 0)
(0.131115 5.93362e-09 0)
(0.131115 6.60129e-09 0)
(0.131115 7.1567e-09 0)
(0.131115 7.63981e-09 0)
(0.131115 8.057e-09 0)
(0.131115 8.39388e-09 0)
(0.131115 8.62758e-09 0)
(0.131115 8.73118e-09 0)
(0.131115 8.66699e-09 0)
(0.131115 8.40546e-09 0)
(0.131115 7.90513e-09 0)
(0.131115 7.09868e-09 0)
(0.131115 5.93503e-09 0)
(0.131115 4.413e-09 0)
(0.131115 2.54924e-09 0)
(0.131115 4.17526e-10 0)
(0.131115 -1.83156e-09 0)
(0.131115 -3.97989e-09 0)
(0.131115 -5.76214e-09 0)
(0.131115 -6.92212e-09 0)
(0.131115 -7.23721e-09 0)
(0.131115 -6.75922e-09 0)
(0.131115 -5.62356e-09 0)
(0.131115 -5.07195e-09 0)
(0.131115 -4.18385e-09 0)
(0.131115 -9.33121e-09 0)
(0.131115 -1.28568e-08 0)
(0.130841 -6.29495e-09 0)
(0.130841 -5.41084e-09 0)
(0.130841 -1.15557e-08 0)
(0.130841 -1.27046e-08 0)
(0.130841 -9.81597e-09 0)
(0.130841 -6.5893e-09 0)
(0.130841 -3.80629e-09 0)
(0.130841 -1.24509e-09 0)
(0.130841 1.08741e-09 0)
(0.130841 3.12955e-09 0)
(0.130841 4.84201e-09 0)
(0.130841 6.25576e-09 0)
(0.130841 7.39033e-09 0)
(0.130841 8.29988e-09 0)
(0.130841 9.0587e-09 0)
(0.130841 9.66303e-09 0)
(0.130841 1.01539e-08 0)
(0.130841 1.05676e-08 0)
(0.130841 1.08646e-08 0)
(0.130841 1.10228e-08 0)
(0.130841 1.10187e-08 0)
(0.130841 1.08029e-08 0)
(0.130841 1.03466e-08 0)
(0.130841 9.61168e-09 0)
(0.130841 8.48776e-09 0)
(0.130841 6.9081e-09 0)
(0.130841 4.86914e-09 0)
(0.130841 2.36739e-09 0)
(0.130841 -5.10589e-10 0)
(0.130841 -3.57466e-09 0)
(0.130841 -6.52319e-09 0)
(0.130841 -8.98977e-09 0)
(0.130841 -1.05974e-08 0)
(0.130841 -1.09958e-08 0)
(0.130841 -1.02085e-08 0)
(0.130841 -8.36292e-09 0)
(0.130841 -7.16258e-09 0)
(0.130841 -5.4828e-09 0)
(0.130841 -1.17067e-08 0)
(0.130841 -1.59026e-08 0)
(0.130483 -8.16656e-09 0)
(0.130483 -6.47096e-09 0)
(0.130483 -1.36151e-08 0)
(0.130483 -1.38109e-08 0)
(0.130483 -1.02397e-08 0)
(0.130483 -6.47468e-09 0)
(0.130483 -3.24751e-09 0)
(0.130483 -2.78077e-10 0)
(0.130483 2.41385e-09 0)
(0.130483 4.75602e-09 0)
(0.130483 6.73175e-09 0)
(0.130483 8.34727e-09 0)
(0.130483 9.61134e-09 0)
(0.130483 1.06279e-08 0)
(0.130483 1.14395e-08 0)
(0.130483 1.20633e-08 0)
(0.130483 1.25715e-08 0)
(0.130483 1.29491e-08 0)
(0.130483 1.31981e-08 0)
(0.130483 1.32859e-08 0)
(0.130483 1.31628e-08 0)
(0.130483 1.2809e-08 0)
(0.130483 1.21862e-08 0)
(0.130483 1.1234e-08 0)
(0.130483 9.83717e-09 0)
(0.130483 7.89401e-09 0)
(0.130483 5.37912e-09 0)
(0.130483 2.28497e-09 0)
(0.130483 -1.30832e-09 0)
(0.130483 -5.16527e-09 0)
(0.130483 -8.91647e-09 0)
(0.130483 -1.20904e-08 0)
(0.130483 -1.41827e-08 0)
(0.130483 -1.47201e-08 0)
(0.130483 -1.36788e-08 0)
(0.130483 -1.11867e-08 0)
(0.130483 -9.40125e-09 0)
(0.130483 -6.97884e-09 0)
(0.130483 -1.41794e-08 0)
(0.130483 -1.92265e-08 0)
(0.130041 -1.12249e-08 0)
(0.130041 -8.36318e-09 0)
(0.130041 -1.43851e-08 0)
(0.130041 -1.42272e-08 0)
(0.130041 -1.0022e-08 0)
(0.130041 -5.89033e-09 0)
(0.130041 -2.35639e-09 0)
(0.130041 9.02298e-10 0)
(0.130041 3.84633e-09 0)
(0.130041 6.43185e-09 0)
(0.130041 8.62074e-09 0)
(0.130041 1.03939e-08 0)
(0.130041 1.17622e-08 0)
(0.130041 1.2861e-08 0)
(0.130041 1.37372e-08 0)
(0.130041 1.43797e-08 0)
(0.130041 1.48596e-08 0)
(0.130041 1.52101e-08 0)
(0.130041 1.54092e-08 0)
(0.130041 1.54141e-08 0)
(0.130041 1.52098e-08 0)
(0.130041 1.47195e-08 0)
(0.130041 1.39387e-08 0)
(0.130041 1.28265e-08 0)
(0.130041 1.11865e-08 0)
(0.130041 8.91118e-09 0)
(0.130041 5.9818e-09 0)
(0.130041 2.326e-09 0)
(0.130041 -1.94778e-09 0)
(0.130041 -6.58807e-09 0)
(0.130041 -1.11406e-08 0)
(0.130041 -1.5046e-08 0)
(0.130041 -1.76681e-08 0)
(0.130041 -1.84038e-08 0)
(0.130041 -1.71853e-08 0)
(0.130041 -1.4124e-08 0)
(0.130041 -1.18353e-08 0)
(0.130041 -8.70953e-09 0)
(0.130041 -1.68433e-08 0)
(0.130041 -2.30428e-08 0)
(0.129516 -1.5161e-08 0)
(0.129516 -1.06952e-08 0)
(0.129516 -1.48268e-08 0)
(0.129516 -1.40047e-08 0)
(0.129516 -9.24016e-09 0)
(0.129516 -4.90439e-09 0)
(0.129516 -1.20116e-09 0)
(0.129516 2.23425e-09 0)
(0.129516 5.3495e-09 0)
(0.129516 8.10279e-09 0)
(0.129516 1.04511e-08 0)
(0.129516 1.2327e-08 0)
(0.129516 1.38057e-08 0)
(0.129516 1.50076e-08 0)
(0.129516 1.59144e-08 0)
(0.129516 1.65573e-08 0)
(0.129516 1.70393e-08 0)
(0.129516 1.73519e-08 0)
(0.129516 1.74924e-08 0)
(0.129516 1.74349e-08 0)
(0.129516 1.71248e-08 0)
(0.129516 1.65497e-08 0)
(0.129516 1.56661e-08 0)
(0.129516 1.43915e-08 0)
(0.129516 1.25466e-08 0)
(0.129516 9.99154e-09 0)
(0.129516 6.67661e-09 0)
(0.129516 2.51001e-09 0)
(0.129516 -2.40678e-09 0)
(0.129516 -7.81082e-09 0)
(0.129516 -1.31663e-08 0)
(0.129516 -1.78296e-08 0)
(0.129516 -2.10215e-08 0)
(0.129516 -2.20334e-08 0)
(0.129516 -2.07079e-08 0)
(0.129516 -1.7184e-08 0)
(0.129516 -1.44834e-08 0)
(0.129516 -1.06858e-08 0)
(0.129516 -1.95982e-08 0)
(0.129516 -2.71961e-08 0)
(0.128904 -1.95791e-08 0)
(0.128904 -1.2853e-08 0)
(0.128904 -1.5676e-08 0)
(0.128904 -1.32018e-08 0)
(0.128904 -8.0738e-09 0)
(0.128904 -3.62834e-09 0)
(0.128904 1.44464e-10 0)
(0.128904 3.63065e-09 0)
(0.128904 6.82965e-09 0)
(0.128904 9.70429e-09 0)
(0.128904 1.21653e-08 0)
(0.128904 1.4155e-08 0)
(0.128904 1.572e-08 0)
(0.128904 1.6992e-08 0)
(0.128904 1.79638e-08 0)
(0.128904 1.86205e-08 0)
(0.128904 1.9071e-08 0)
(0.128904 1.93493e-08 0)
(0.128904 1.94466e-08 0)
(0.128904 1.93387e-08 0)
(0.128904 1.89827e-08 0)
(0.128904 1.83073e-08 0)
(0.128904 1.73239e-08 0)
(0.128904 1.59204e-08 0)
(0.128904 1.39136e-08 0)
(0.128904 1.11158e-08 0)
(0.128904 7.45308e-09 0)
(0.128904 2.83317e-09 0)
(0.128904 -2.69438e-09 0)
(0.128904 -8.83252e-09 0)
(0.128904 -1.49625e-08 0)
(0.128904 -2.03982e-08 0)
(0.128904 -2.41915e-08 0)
(0.128904 -2.55555e-08 0)
(0.128904 -2.421e-08 0)
(0.128904 -2.03576e-08 0)
(0.128904 -1.73422e-08 0)
(0.128904 -1.28947e-08 0)
(0.128904 -2.22997e-08 0)
(0.128904 -3.15661e-08 0)
(0.1282 -2.4944e-08 0)
(0.1282 -1.62421e-08 0)
(0.1282 -1.56623e-08 0)
(0.1282 -1.18078e-08 0)
(0.1282 -6.51873e-09 0)
(0.1282 -2.17315e-09 0)
(0.1282 1.5011e-09 0)
(0.1282 4.97945e-09 0)
(0.1282 8.23302e-09 0)
(0.1282 1.11794e-08 0)
(0.1282 1.37205e-08 0)
(0.1282 1.58008e-08 0)
(0.1282 1.74936e-08 0)
(0.1282 1.88602e-08 0)
(0.1282 1.98476e-08 0)
(0.1282 2.05252e-08 0)
(0.1282 2.09903e-08 0)
(0.1282 2.12288e-08 0)
(0.1282 2.1287e-08 0)
(0.1282 2.1136e-08 0)
(0.1282 2.07018e-08 0)
(0.1282 1.99719e-08 0)
(0.1282 1.89087e-08 0)
(0.1282 1.73946e-08 0)
(0.1282 1.524e-08 0)
(0.1282 1.22116e-08 0)
(0.1282 8.28803e-09 0)
(0.1282 3.24239e-09 0)
(0.1282 -2.81316e-09 0)
(0.1282 -9.61969e-09 0)