/*--------------------------------*- C++ -*----------------------------------*\
  =========                 |
  \\      /  F ield         | OpenFOAM: The Open Source CFD Toolbox
   \\    /   O peration     | Website:  https://openfoam.org
    \\  /    A nd           | Version:  dev
     \\/     M anipulation  |

   OpenFOAM for Windows 20.09 (v1)
   Built by CFD Support, www.cfdsupport.com (based on Symscape).
\*---------------------------------------------------------------------------*/
FoamFile
{
    version     2.0;
    format      ascii;
    class       surfaceScalarField;
    location    "10";
    object      alphaPhi0.water;
}
// * * * * * * * * * * * * * * * * * * * * * * * * * * * * * * * * * * * * * //

dimensions      [0 3 -1 0 0 0 0];

internalField   nonuniform List<scalar> 
217
(
5.23945e-08
-5.84282e-10
5.24184e-08
2.18561e-10
5.245e-08
1.03767e-09
1.05121e-09
5.24792e-08
5.34029e-08
-5.75452e-10
5.34279e-08
1.93486e-10
5.34618e-08
1.00374e-09
1.02314e-09
5.34899e-08
5.45359e-08
-5.66923e-10
5.45632e-08
1.66194e-10
5.45986e-08
9.68309e-10
9.97696e-10
5.46241e-08
5.58054e-08
-5.58778e-10
5.58344e-08
1.37193e-10
5.58714e-08
9.31326e-10
9.74605e-10
5.58945e-08
5.7224e-08
-5.51515e-10
5.72547e-08
1.06435e-10
5.72927e-08
8.93371e-10
9.53955e-10
5.73134e-08
5.88044e-08
-5.45237e-10
5.88365e-08
7.43266e-11
5.88754e-08
8.54584e-10
9.35635e-10
5.88937e-08
6.05603e-08
-5.40526e-10
6.0594e-08
4.05745e-11
6.06332e-08
8.15472e-10
9.19448e-10
6.06494e-08
6.25058e-08
-5.3766e-10
6.25411e-08
5.26473e-12
6.25806e-08
7.76019e-10
9.05396e-10
6.25946e-08
6.4655e-08
-5.37432e-10
6.46926e-08
-3.23924e-11
6.47322e-08
7.3645e-10
8.93085e-10
6.47446e-08
6.70228e-08
-5.39569e-10
6.70633e-08
-7.28065e-11
6.71044e-08
6.95296e-10
8.82078e-10
6.71154e-08
6.96238e-08
-5.44691e-10
6.96685e-08
-1.17476e-10
6.97123e-08
6.51521e-10
8.71309e-10
6.9723e-08
7.24736e-08
-5.51521e-10
7.25231e-08
-1.66943e-10
7.25727e-08
6.01912e-10
8.59809e-10
7.25842e-08
7.55871e-08
-5.59883e-10
7.56431e-08
-2.22954e-10
7.57019e-08
5.432e-10
8.4441e-10
7.57173e-08
7.89719e-08
-5.65491e-10
7.90351e-08
-2.84187e-10
7.91113e-08
4.6965e-10
8.20927e-10
7.91351e-08
7.86856e-08
7.92713e-08
7.95354e-08
7.9541e-08
5.2485e-08
1.04427e-09
5.24484e-08
-1.25289e-09
5.24218e-08
-1.16858e-09
-3.52551e-10
5.34959e-08
1.03838e-09
5.3461e-08
-1.21797e-09
5.34308e-08
-1.13842e-09
-3.33444e-10
5.46307e-08
1.03175e-09
5.45971e-08
-1.18426e-09
5.45646e-08
-1.10595e-09
-3.13343e-10
5.5901e-08
1.02523e-09
5.58679e-08
-1.15113e-09
5.58336e-08
-1.07163e-09
-2.93365e-10
5.73196e-08
1.01897e-09
5.72872e-08
-1.11876e-09
5.72514e-08
-1.03577e-09
-2.73235e-10
5.88994e-08
1.0132e-09
5.88676e-08
-1.08697e-09
5.88303e-08
-9.98405e-10
-2.53674e-10
6.06543e-08
1.00826e-09
6.0623e-08
-1.05563e-09
6.05847e-08
-9.60103e-10
-2.33997e-10
6.25988e-08
1.0041e-09
6.25676e-08
-1.0244e-09
6.25277e-08
-9.20196e-10
-2.14967e-10
6.47473e-08
1.00139e-09
6.47161e-08
-9.93139e-10
6.46747e-08
-8.78821e-10
-1.95501e-10
6.71164e-08
1.00044e-09
6.70837e-08
-9.60364e-10
6.70402e-08
-8.35379e-10
-1.75965e-10
6.97204e-08
1.00312e-09
6.96852e-08
-9.25109e-10
6.96398e-08
-7.90028e-10
-1.54844e-10
7.25771e-08
1.01029e-09
7.25373e-08
-8.85275e-10
7.24891e-08
-7.41803e-10
-1.32595e-10
7.57028e-08
1.02475e-09
7.56557e-08
-8.38147e-10
7.56041e-08
-6.90164e-10
-1.07272e-10
7.91126e-08
1.04691e-09
7.90522e-08
-7.78057e-10
7.89933e-08
-6.31124e-10
-7.91759e-11
7.95141e-08
7.87579e-08
7.84712e-08
)
;

boundaryField
{
    topWall
    {
        type            calculated;
        value           nonuniform List<scalar> 0();
    }
    botWall
    {
        type            calculated;
        value           nonuniform List<scalar> 0();
    }
    inlet
    {
        type            cyclic;
        value           nonuniform List<scalar> 
15
(
-7.85626e-08
-7.89661e-08
-7.55788e-08
-7.24668e-08
-6.96187e-08
-6.70207e-08
-6.46552e-08
-6.25086e-08
-6.0565e-08
-5.88107e-08
-5.72312e-08
-5.58136e-08
-5.45445e-08
-5.34118e-08
-5.24037e-08
)
;
    }
    outlet
    {
        type            cyclic;
        value           nonuniform List<scalar> 
15
(
7.85626e-08
7.89661e-08
7.55788e-08
7.24668e-08
6.96187e-08
6.70207e-08
6.46552e-08
6.25086e-08
6.0565e-08
5.88107e-08
5.72312e-08
5.58136e-08
5.45445e-08
5.34118e-08
5.24037e-08
)
;
    }
    fixWall
    {
        type            empty;
        value           nonuniform List<scalar> 0();
    }
    procBoundary3to2
    {
        type            processor;
        value           nonuniform List<scalar> 8(5.9515e-10 -2.41145e-10 -1.07015e-09 -1.08053e-09 -1.05068e-09 1.29116e-09 1.19359e-09 3.72274e-10);
    }
    procBoundary3to4
    {
        type            processor;
        value           nonuniform List<scalar> 8(-5.97942e-11 -3.78966e-11 3.39985e-10 6.99981e-10 9.55693e-10 -9.34266e-11 -6.5758e-11 -4.61121e-12);
    }
}


// ************************************************************************* //
