/*--------------------------------*- C++ -*----------------------------------*\
  =========                 |
  \\      /  F ield         | OpenFOAM: The Open Source CFD Toolbox
   \\    /   O peration     | Website:  https://openfoam.org
    \\  /    A nd           | Version:  dev
     \\/     M anipulation  |

   OpenFOAM for Windows 20.09 (v1)
   Built by CFD Support, www.cfdsupport.com (based on Symscape).
\*---------------------------------------------------------------------------*/
FoamFile
{
    version     2.0;
    format      ascii;
    class       volSymmTensorField;
    location    "10";
    object      devReff;
}
// * * * * * * * * * * * * * * * * * * * * * * * * * * * * * * * * * * * * * //

dimensions      [0 2 -2 0 0 0 0];

internalField   nonuniform List<symmTensor> 
120
(
(1.0105e-07 -0.000263026 -0 -1.02478e-07 -0 1.42854e-09)
(-1.78051e-07 -0.000263333 -0 1.68273e-07 -0 9.77771e-09)
(-3.09885e-07 -0.000264683 -0 3.08091e-07 -0 1.79462e-09)
(-3.18678e-07 -0.00026353 -0 3.22572e-07 -0 -3.89452e-09)
(1.02637e-07 -0.00029545 -0 -1.00526e-07 -0 -2.11119e-09)
(-2.14988e-07 -0.000295422 -0 2.18538e-07 -0 -3.55027e-09)
(-3.20847e-07 -0.000296707 -0 3.19512e-07 -0 1.335e-09)
(-2.95912e-07 -0.000296151 -0 2.93792e-07 -0 2.1197e-09)
(1.10263e-07 -0.000331181 -0 -1.15328e-07 -0 5.06511e-09)
(-2.28492e-07 -0.000331135 -0 2.26954e-07 -0 1.53819e-09)
(-3.33471e-07 -0.000332272 -0 3.29543e-07 -0 3.92844e-09)
(-2.80653e-07 -0.000331862 -0 2.8171e-07 -0 -1.05664e-09)
(1.01154e-07 -0.000370168 -0 -1.00315e-07 -0 -8.38073e-10)
(-2.50245e-07 -0.000370148 -0 2.52445e-07 -0 -2.19925e-09)
(-3.51693e-07 -0.000371141 -0 3.55629e-07 -0 -3.93685e-09)
(-2.59878e-07 -0.000370777 -0 2.60654e-07 -0 -7.76468e-10)
(9.56617e-08 -0.000412561 -0 -9.51416e-08 -0 -5.20157e-10)
(-2.65517e-07 -0.000412651 -0 2.68419e-07 -0 -2.90223e-09)
(-3.59107e-07 -0.000413484 -0 3.58608e-07 -0 4.98806e-10)
(-2.36083e-07 -0.000413169 -0 2.33719e-07 -0 2.3641e-09)
(8.77218e-08 -0.000458531 -0 -9.00857e-08 -0 2.36391e-09)
(-2.73697e-07 -0.000458734 -0 2.68498e-07 -0 5.1988e-09)
(-3.6604e-07 -0.000459453 -0 3.659e-07 -0 1.39739e-10)
(-2.19024e-07 -0.000459152 -0 2.19418e-07 -0 -3.93401e-10)
(7.41655e-08 -0.000508164 -0 -7.44391e-08 -0 2.73575e-10)
(-2.91205e-07 -0.000508578 -0 2.89031e-07 -0 2.17414e-09)
(-3.74001e-07 -0.000509198 -0 3.73406e-07 -0 5.95089e-10)
(-2.00334e-07 -0.000508968 -0 2.01103e-07 -0 -7.69627e-10)
(5.51498e-08 -0.000561658 -0 -5.53412e-08 -0 1.91414e-10)
(-3.12844e-07 -0.000562242 -0 3.1234e-07 -0 5.04607e-10)
(-3.8017e-07 -0.000562914 -0 3.8021e-07 -0 -4.02186e-11)
(-1.82731e-07 -0.000562799 -0 1.82133e-07 -0 5.97156e-10)
(3.65953e-08 -0.00061902 -0 -3.57728e-08 -0 -8.22566e-10)
(-3.35104e-07 -0.000619819 -0 3.3508e-07 -0 2.33882e-11)
(-3.94241e-07 -0.000620628 -0 3.94458e-07 -0 -2.17302e-10)
(-1.69427e-07 -0.000620806 -0 1.69299e-07 -0 1.28278e-10)
(2.0289e-08 -0.000680459 -0 -2.52659e-08 -0 4.97694e-09)
(-3.56261e-07 -0.000681306 -0 3.45788e-07 -0 1.04733e-08)
(-4.09718e-07 -0.000682452 -0 4.05686e-07 -0 4.03164e-09)
(-1.662e-07 -0.000683098 -0 1.68441e-07 -0 -2.24068e-09)
(-1.93157e-09 -0.000745959 -0 4.90149e-09 -0 -2.96991e-09)
(-4.07101e-07 -0.000746835 -0 4.12976e-07 -0 -5.87566e-09)
(-4.56038e-07 -0.000748425 -0 4.57666e-07 -0 -1.62841e-09)
(-1.63198e-07 -0.000749783 -0 1.58429e-07 -0 4.76912e-09)
(-1.78851e-08 -0.000815793 -0 2.30982e-08 -0 -5.21317e-09)
(-4.60301e-07 -0.000816388 -0 4.72107e-07 -0 -1.18055e-08)
(-5.25923e-07 -0.000818513 -0 5.39329e-07 -0 -1.34056e-08)
(-1.9206e-07 -0.000821106 -0 1.95739e-07 -0 -3.67889e-09)
(1.95168e-08 -0.000889701 -0 -4.63072e-08 -0 2.67903e-08)
(-4.73282e-07 -0.000889928 -0 4.55267e-07 -0 1.80148e-08)
(-6.12892e-07 -0.000892385 -0 6.13721e-07 -0 -8.28281e-10)
(-2.50955e-07 -0.000896618 -0 2.59823e-07 -0 -8.86746e-09)
(2.10329e-08 -0.000978834 -0 -3.69992e-08 -0 1.59662e-08)
(-5.16434e-07 -0.000977533 -0 4.95605e-07 -0 2.08287e-08)
(-7.2165e-07 -0.000979184 -0 7.07578e-07 -0 1.40721e-08)
(-3.29177e-07 -0.000985025 -0 3.16532e-07 -0 1.26449e-08)
(7.93723e-08 -0.00147738 -0 -7.97085e-08 -0 3.36132e-10)
(-4.07621e-07 -0.00147079 -0 3.13116e-07 -0 9.45052e-08)
(-7.10591e-07 -0.00146528 -0 5.59357e-07 -0 1.51233e-07)
(-3.84053e-07 -0.00146901 -0 3.04399e-07 -0 7.96541e-08)
(-7.49009e-08 -0.000263363 -0 8.48028e-08 -0 -9.90188e-09)
(2.99236e-07 -0.000264934 -0 -2.80105e-07 -0 -1.91309e-08)
(2.7424e-07 -0.000263894 -0 -2.71423e-07 -0 -2.8175e-09)
(1.76458e-07 -0.000263244 -0 -1.68671e-07 -0 -7.78692e-09)
(-7.807e-08 -0.000295555 -0 7.07973e-08 -0 7.27263e-09)
(3.22719e-07 -0.000296833 -0 -3.40105e-07 -0 1.73861e-08)
(3.0743e-07 -0.000296218 -0 -3.12084e-07 -0 4.65409e-09)
(1.97439e-07 -0.000295556 -0 -1.9074e-07 -0 -6.69824e-09)
(-9.58085e-08 -0.000331011 -0 1.00893e-07 -0 -5.08461e-09)
(3.00548e-07 -0.000332016 -0 -3.00971e-07 -0 4.23169e-10)
(3.25301e-07 -0.000331568 -0 -3.27678e-07 -0 2.37607e-09)
(2.10793e-07 -0.00033102 -0 -2.12083e-07 -0 1.29064e-09)
(-9.79123e-08 -0.000369815 -0 1.02388e-07 -0 -4.47606e-09)
(2.90069e-07 -0.000370667 -0 -2.8963e-07 -0 -4.38295e-10)
(3.41744e-07 -0.000370345 -0 -3.44288e-07 -0 2.5439e-09)
(2.14993e-07 -0.000369846 -0 -2.13346e-07 -0 -1.64734e-09)
(-8.9148e-08 -0.000412181 -0 8.83027e-08 -0 8.45333e-10)
(2.97066e-07 -0.000412827 -0 -3.08005e-07 -0 1.09389e-08)
(3.57109e-07 -0.000412591 -0 -3.608e-07 -0 3.69142e-09)
(2.15152e-07 -0.000412121 -0 -2.1537e-07 -0 2.17768e-10)
(-9.37707e-08 -0.0004582 -0 1.02595e-07 -0 -8.82473e-09)
(2.76687e-07 -0.000458697 -0 -2.72972e-07 -0 -3.71528e-09)
(3.66149e-07 -0.000458521 -0 -3.66531e-07 -0 3.81313e-10)
(2.15519e-07 -0.000458035 -0 -2.13914e-07 -0 -1.60488e-09)
(-8.39902e-08 -0.000508054 -0 9.02719e-08 -0 -6.28164e-09)
(2.7971e-07 -0.000508303 -0 -2.80508e-07 -0 7.97083e-10)
(3.7966e-07 -0.000508172 -0 -3.80908e-07 -0 1.24724e-09)
(2.12887e-07 -0.000507636 -0 -2.11744e-07 -0 -1.14285e-09)
(-6.8866e-08 -0.00056193 -0 7.20976e-08 -0 -3.23163e-09)
(2.82799e-07 -0.000561912 -0 -2.85706e-07 -0 2.90657e-09)
(3.93434e-07 -0.000561743 -0 -3.96062e-07 -0 2.62824e-09)
(2.15554e-07 -0.000561118 -0 -2.14324e-07 -0 -1.22984e-09)
(-5.52549e-08 -0.000619964 -0 5.95346e-08 -0 -4.27978e-09)
(2.90777e-07 -0.000619532 -0 -2.93027e-07 -0 2.25005e-09)
(4.08559e-07 -0.000619338 -0 -4.09537e-07 -0 9.78415e-10)
(2.14604e-07 -0.000618601 -0 -2.13052e-07 -0 -1.55192e-09)
(-3.47383e-08 -0.000682323 -0 4.34833e-08 -0 -8.74505e-09)
(3.00631e-07 -0.000681403 -0 -2.97222e-07 -0 -3.40888e-09)
(4.27046e-07 -0.00068103 -0 -4.29661e-07 -0 2.61524e-09)
(2.25741e-07 -0.000680186 -0 -2.24828e-07 -0 -9.13449e-10)
(3.51661e-09 -0.000749077 -0 -4.27227e-09 -0 7.55658e-10)
(3.43122e-07 -0.000747538 -0 -3.5143e-07 -0 8.30812e-09)
(4.54686e-07 -0.000746922 -0 -4.58763e-07 -0 4.07652e-09)
(2.33087e-07 -0.000745968 -0 -2.31795e-07 -0 -1.29136e-09)
(5.45648e-08 -0.000820657 -0 -6.30659e-08 -0 8.50106e-09)
(3.98018e-07 -0.000818332 -0 -4.17021e-07 -0 1.90033e-08)
(4.84348e-07 -0.000817164 -0 -4.8957e-07 -0 5.22225e-09)
(2.57024e-07 -0.00081611 -0 -2.56186e-07 -0 -8.38321e-10)
(6.49836e-08 -0.000896911 -0 -3.75226e-08 -0 -2.74609e-08)
(4.2906e-07 -0.000893667 -0 -4.0383e-07 -0 -2.52294e-08)
(5.16642e-07 -0.000891666 -0 -5.06391e-07 -0 -1.02508e-08)
(2.84713e-07 -0.000890432 -0 -2.9033e-07 -0 5.6173e-09)
(1.08021e-07 -0.000985757 -0 -7.44386e-08 -0 -3.35827e-08)
(5.10541e-07 -0.000982891 -0 -4.64325e-07 -0 -4.62159e-08)
(5.33151e-07 -0.000981611 -0 -4.77251e-07 -0 -5.59001e-08)
(3.0289e-07 -0.000980096 -0 -2.83453e-07 -0 -1.94371e-08)
(9.89762e-08 -0.00147138 -0 -3.7171e-08 -0 -6.18052e-08)
(4.66503e-07 -0.00147583 -0 -3.37673e-07 -0 -1.2883e-07)
(5.19205e-07 -0.0014808 -0 -4.16403e-07 -0 -1.02802e-07)
(3.2187e-07 -0.00147994 -0 -2.73241e-07 -0 -4.86292e-08)
)
;

boundaryField
{
    topWall
    {
        type            calculated;
        value           nonuniform List<symmTensor> 0();
    }
    botWall
    {
        type            calculated;
        value           nonuniform List<symmTensor> 0();
    }
    inlet
    {
        type            cyclic;
    }
    outlet
    {
        type            cyclic;
    }
    fixWall
    {
        type            empty;
    }
    procBoundary3to2
    {
        type            processor;
        value           nonuniform List<symmTensor> 8((1.03713e-07 -0.000233654 -0 -1.00841e-07 -0 -2.8716e-09) (-1.34632e-07 -0.000234184 -0 1.13364e-07 -0 2.12677e-08) (-3.11871e-07 -0.000235849 -0 3.09651e-07 -0 2.22056e-09) (-3.39971e-07 -0.000234487 -0 3.41239e-07 -0 -1.26856e-09) (-3.46638e-08 -0.000234057 -0 3.37715e-08 -0 8.92292e-10) (3.19748e-07 -0.000235502 -0 -3.20437e-07 -0 6.88683e-10) (2.43021e-07 -0.000234418 -0 -2.42979e-07 -0 -4.22109e-11) (1.76373e-07 -0.000233915 -0 -1.77205e-07 -0 8.31107e-10));
    }
    procBoundary3to4
    {
        type            processor;
        value           nonuniform List<symmTensor> 8((2.79941e-07 -0.00525415 -0 -2.48804e-07 -0 -3.11365e-08) (-3.62607e-08 -0.00522242 -0 -6.04131e-08 -0 9.66737e-08) (-3.91548e-07 -0.0051364 -0 1.06709e-07 -0 2.8484e-07) (-3.88636e-07 -0.00503437 -0 2.29593e-07 -0 1.59043e-07) (-1.97094e-07 -0.005034 -0 3.05487e-07 -0 -1.08393e-07) (8.4522e-08 -0.00513489 -0 7.65674e-08 -0 -1.61089e-07) (4.30285e-07 -0.00521526 -0 -4.06558e-07 -0 -2.37272e-08) (4.31385e-07 -0.00525765 -0 -4.27768e-07 -0 -3.61667e-09));
    }
}


// ************************************************************************* //
