/*--------------------------------*- C++ -*----------------------------------*\
  =========                 |
  \\      /  F ield         | OpenFOAM: The Open Source CFD Toolbox
   \\    /   O peration     | Website:  https://openfoam.org
    \\  /    A nd           | Version:  dev
     \\/     M anipulation  |

   OpenFOAM for Windows 20.09 (v1)
   Built by CFD Support, www.cfdsupport.com (based on Symscape).
\*---------------------------------------------------------------------------*/
FoamFile
{
    version     2.0;
    format      ascii;
    class       volScalarField;
    location    "10";
    object      epsilon;
}
// * * * * * * * * * * * * * * * * * * * * * * * * * * * * * * * * * * * * * //

dimensions      [0 2 -3 0 0 0 0];

internalField   nonuniform List<scalar> 
120
(
8.95717e-13
8.91847e-13
8.86845e-13
8.84569e-13
1.05964e-12
1.05513e-12
1.04924e-12
1.04656e-12
1.26182e-12
1.25652e-12
1.24953e-12
1.24637e-12
1.51243e-12
1.50617e-12
1.49782e-12
1.49404e-12
1.82465e-12
1.81721e-12
1.80716e-12
1.80262e-12
2.21561e-12
2.20672e-12
2.19451e-12
2.18901e-12
2.70771e-12
2.69699e-12
2.68204e-12
2.67534e-12
3.33039e-12
3.31737e-12
3.29893e-12
3.29068e-12
4.1227e-12
4.10677e-12
4.08381e-12
4.07357e-12
5.13677e-12
5.11713e-12
5.08828e-12
5.07545e-12
6.44292e-12
6.4185e-12
6.38191e-12
6.36565e-12
8.13686e-12
8.10628e-12
8.05939e-12
8.03852e-12
1.03505e-11
1.03119e-11
1.02511e-11
1.0224e-11
1.32678e-11
1.32186e-11
1.31391e-11
1.31031e-11
1.7148e-11
1.70849e-11
1.69797e-11
1.69312e-11
8.8636e-13
8.91007e-13
8.95838e-13
8.98718e-13
1.04875e-12
1.0542e-12
1.05991e-12
1.06336e-12
1.24905e-12
1.25548e-12
1.26227e-12
1.26643e-12
1.49736e-12
1.50499e-12
1.51314e-12
1.51818e-12
1.80674e-12
1.81584e-12
1.82569e-12
1.83186e-12
2.19416e-12
2.20507e-12
2.21709e-12
2.2247e-12
2.6818e-12
2.69497e-12
2.70972e-12
2.7192e-12
3.29885e-12
3.31482e-12
3.33307e-12
3.345e-12
4.08394e-12
4.10342e-12
4.12622e-12
4.14136e-12
5.0887e-12
5.11262e-12
5.14134e-12
5.16066e-12
6.38268e-12
6.41225e-12
6.44877e-12
6.47364e-12
8.06056e-12
8.0974e-12
8.14428e-12
8.17659e-12
1.02527e-11
1.0299e-11
1.03598e-11
1.04022e-11
1.31408e-11
1.31997e-11
1.32795e-11
1.33355e-11
1.69814e-11
1.70569e-11
1.71628e-11
1.72375e-11
)
;

boundaryField
{
    topWall
    {
        type            epsilonWallFunction;
        value           nonuniform List<scalar> 0();
    }
    botWall
    {
        type            epsilonWallFunction;
        value           nonuniform List<scalar> 0();
    }
    inlet
    {
        type            cyclic;
    }
    outlet
    {
        type            cyclic;
    }
    fixWall
    {
        type            empty;
    }
    procBoundary3to2
    {
        type            processor;
        value           nonuniform List<scalar> 8(7.63048e-13 7.59708e-13 7.55426e-13 7.53474e-13 7.54952e-13 7.58939e-13 7.63068e-13 7.65492e-13);
    }
    procBoundary3to4
    {
        type            processor;
        value           nonuniform List<scalar> 8(2.24034e-11 2.2322e-11 2.21808e-11 2.21136e-11 2.21803e-11 2.22784e-11 2.24206e-11 2.25219e-11);
    }
}


// ************************************************************************* //
