/*--------------------------------*- C++ -*----------------------------------*\
  =========                 |
  \\      /  F ield         | OpenFOAM: The Open Source CFD Toolbox
   \\    /   O peration     | Website:  https://openfoam.org
    \\  /    A nd           | Version:  dev
     \\/     M anipulation  |

   OpenFOAM for Windows 20.09 (v1)
   Built by CFD Support, www.cfdsupport.com (based on Symscape).
\*---------------------------------------------------------------------------*/
FoamFile
{
    version     2.0;
    format      ascii;
    class       volVectorField;
    location    "10";
    object      gradp_rgh;
}
// * * * * * * * * * * * * * * * * * * * * * * * * * * * * * * * * * * * * * //

dimensions      [1 -2 -2 0 0 0 0];

internalField   nonuniform List<vector> 
120
(
(-1.24299 -0.0952228 0)
(-1.22623 0.251365 0)
(-1.23933 -0.327906 0)
(-1.25538 -0.558046 0)
(-1.24826 -0.417925 0)
(-1.23695 -0.504173 0)
(-1.2316 -1.06865 0)
(-1.23759 -0.0732962 0)
(-1.24811 0.018015 0)
(-1.23707 0.0113334 0)
(-1.23215 0.00442935 0)
(-1.23815 -0.0261289 0)
(-1.24795 0.0191395 0)
(-1.23718 0.0132234 0)
(-1.23223 0.00665441 0)
(-1.23829 0.00301011 0)
(-1.24779 0.0191042 0)
(-1.23728 0.0127923 0)
(-1.23232 0.00679893 0)
(-1.23851 0.00324709 0)
(-1.24763 0.0315215 0)
(-1.23738 0.0245996 0)
(-1.23239 0.00653028 0)
(-1.23871 0.00427142 0)
(-1.24756 0.0228419 0)
(-1.2377 0.022875 0)
(-1.23266 0.00807549 0)
(-1.23891 0.00489561 0)
(-1.24719 0.0112208 0)
(-1.23763 0.011415 0)
(-1.23269 0.00939934 0)
(-1.23914 0.00595104 0)
(-1.24704 0.0208634 0)
(-1.23773 0.014179 0)
(-1.23275 0.00483384 0)
(-1.23936 0.0062772 0)
(-1.24688 0.0211814 0)
(-1.2379 0.0147654 0)
(-1.23282 0.00413786 0)
(-1.23936 0.00680037 0)
(-1.24673 0.0342077 0)
(-1.23801 0.0259431 0)
(-1.23289 0.0100278 0)
(-1.23958 0.007595 0)
(-1.24663 0.0203706 0)
(-1.2383 0.00296087 0)
(-1.23312 0.0109361 0)
(-1.23957 0.0147641 0)
(-1.24675 -0.166588 0)
(-1.23817 -0.178342 0)
(-1.23269 -0.116675 0)
(-1.23959 -0.0737415 0)
(-1.2465 -130.009 0)
(-1.23747 -117.455 0)
(-1.23138 -104.884 0)
(-1.23931 -105.974 0)
(-0.986415 -2543.65 0)
(-0.819433 -2539.22 0)
(-1.04135 -2523.46 0)
(-1.25848 -2500.39 0)
(-1.25651 -0.39691 0)
(-1.26211 -0.412948 0)
(-1.26116 -0.184112 0)
(-1.25628 0.0453682 0)
(-1.25648 -0.0348962 0)
(-1.26905 -0.0816475 0)
(-1.26365 -0.433987 0)
(-1.25641 -0.196783 0)
(-1.25665 -0.0373557 0)
(-1.26877 -0.0530646 0)
(-1.26308 -0.03006 0)
(-1.25601 -0.00731444 0)
(-1.25693 -0.0147014 0)
(-1.26893 -0.0290427 0)
(-1.26289 -0.0290992 0)
(-1.25561 -0.006402 0)
(-1.25719 -0.0184293 0)
(-1.26901 -0.0184592 0)
(-1.2627 -0.0287988 0)
(-1.2552 -0.00640413 0)
(-1.25729 -0.0175115 0)
(-1.2691 -0.0172224 0)
(-1.26269 -0.0274413 0)
(-1.25481 0.0113471 0)
(-1.25755 -0.0177246 0)
(-1.26917 -0.0305276 0)
(-1.26223 -0.0274879 0)
(-1.25422 -0.00355631 0)
(-1.25789 -0.017625 0)
(-1.26926 -0.0212333 0)
(-1.26224 -0.0283444 0)
(-1.25397 -0.0201954 0)
(-1.258 -0.00803546 0)
(-1.26935 -0.0248855 0)
(-1.26221 -0.0271842 0)
(-1.25356 -0.00395177 0)
(-1.2584 -0.00895436 0)
(-1.26958 -0.0344654 0)
(-1.26189 -0.0263842 0)
(-1.25317 -0.00364685 0)
(-1.25869 -0.0028386 0)
(-1.26964 -0.00564411 0)
(-1.2617 -0.00868154 0)
(-1.25277 0.0104693 0)
(-1.25863 0.00987056 0)
(-1.26968 -0.00367947 0)
(-1.26162 -0.0117931 0)
(-1.25245 0.00413996 0)
(-1.25899 -0.101325 0)
(-1.27 -0.0965062 0)
(-1.26157 -0.138765 0)
(-1.25223 -0.185933 0)
(-1.259 -106.018 0)
(-1.2703 -120.192 0)
(-1.26311 -135.835 0)
(-1.25292 -133.075 0)
(-1.49596 -2499.11 0)
(-1.76696 -2520.1 0)
(-1.47628 -2535.47 0)
(-1.15512 -2543.41 0)
)
;

boundaryField
{
    topWall
    {
        type            extrapolatedCalculated;
        value           nonuniform List<vector> 0();
    }
    botWall
    {
        type            extrapolatedCalculated;
        value           nonuniform List<vector> 0();
    }
    inlet
    {
        type            cyclic;
    }
    outlet
    {
        type            cyclic;
    }
    fixWall
    {
        type            empty;
    }
    procBoundary3to2
    {
        type            processor;
        value           nonuniform List<vector> 8((-1.25169 0.346668 0) (-1.23307 0.99232 0) (-1.21811 0.757649 0) (-1.23644 -0.0359949 0) (-1.2589 0.170848 0) (-1.27259 -0.0431146 0) (-1.27129 0.226527 0) (-1.25789 0.238424 0));
    }
    procBoundary3to4
    {
        type            processor;
        value           nonuniform List<vector> 8((-1.17667 -2518 0) (-0.900975 -2530.87 0) (-0.584134 -2544.03 0) (-0.833583 -2543.39 0) (-1.58751 -2543.32 0) (-1.87628 -2528.32 0) (-1.65168 -2512.12 0) (-1.38916 -2514.87 0));
    }
}


// ************************************************************************* //
