/*--------------------------------*- C++ -*----------------------------------*\
  =========                 |
  \\      /  F ield         | OpenFOAM: The Open Source CFD Toolbox
   \\    /   O peration     | Website:  https://openfoam.org
    \\  /    A nd           | Version:  dev
     \\/     M anipulation  |

   OpenFOAM for Windows 20.09 (v1)
   Built by CFD Support, www.cfdsupport.com (based on Symscape).
\*---------------------------------------------------------------------------*/
FoamFile
{
    version     2.0;
    format      ascii;
    class       volTensorField;
    location    "10";
    object      gradU;
}
// * * * * * * * * * * * * * * * * * * * * * * * * * * * * * * * * * * * * * //

dimensions      [0 0 -1 0 0 0 0];

internalField   nonuniform List<tensor> 
120
(
(-0.000263996 0.000144726 0 1.39389 0.000275353 0 0 0 0)
(0.000497745 0.000286168 0 1.39538 -0.000420012 0 0 0 0)
(0.000825951 9.22733e-05 0 1.40273 -0.000811684 0 0 0 0)
(0.000834176 4.33181e-05 0 1.39667 -0.000865137 0 0 0 0)
(-0.000277583 0.000136538 0 1.56575 0.000260799 0 0 0 0)
(0.00056031 0.000277316 0 1.56546 -0.000588535 0 0 0 0)
(0.000853781 9.06679e-05 0 1.57246 -0.000843168 0 0 0 0)
(0.000789784 4.87563e-05 0 1.56955 -0.000772932 0 0 0 0)
(-0.000278775 0.000126788 0 1.75513 0.000319043 0 0 0 0)
(0.00060958 0.000267768 0 1.75475 -0.000597351 0 0 0 0)
(0.000894109 8.92e-05 0 1.76095 -0.000862878 0 0 0 0)
(0.000740931 5.45652e-05 0 1.75882 -0.000749331 0 0 0 0)
(-0.000270278 0.000117158 0 1.96178 0.000263615 0 0 0 0)
(0.000657322 0.000257618 0 1.96153 -0.000674807 0 0 0 0)
(0.000921553 8.81349e-05 0 1.96696 -0.000952851 0 0 0 0)
(0.000686618 5.84569e-05 0 1.96506 -0.000692791 0 0 0 0)
(-0.000254882 0.000106191 0 2.18647 0.000250747 0 0 0 0)
(0.000695928 0.000247494 0 2.1868 -0.000719001 0 0 0 0)
(0.000952956 8.89003e-05 0 2.19137 -0.00094899 0 0 0 0)
(0.000631884 6.57262e-05 0 2.18973 -0.00061309 0 0 0 0)
(-0.000226198 9.56533e-05 0 2.43012 0.000244992 0 0 0 0)
(0.000739074 0.000237622 0 2.43105 -0.000697743 0 0 0 0)
(0.000970377 8.99001e-05 0 2.43501 -0.000969266 0 0 0 0)
(0.000579372 7.04107e-05 0 2.43343 -0.000582499 0 0 0 0)
(-0.000195814 8.51853e-05 0 2.69318 0.000197989 0 0 0 0)
(0.000777454 0.000227256 0 2.69523 -0.000760169 0 0 0 0)
(0.000992681 9.0821e-05 0 2.69866 -0.00098795 0 0 0 0)
(0.000528845 7.69596e-05 0 2.69745 -0.000534963 0 0 0 0)
(-0.00014564 7.36823e-05 0 2.97671 0.000147162 0 0 0 0)
(0.000830375 0.000217856 0 2.97966 -0.000826363 0 0 0 0)
(0.00100734 9.36536e-05 0 2.98335 -0.00100766 0 0 0 0)
(0.000485818 8.26121e-05 0 2.98275 -0.000481071 0 0 0 0)
(-9.91574e-05 6.20009e-05 0 3.28074 9.2618e-05 0 0 0 0)
(0.000888086 0.000208009 0 3.28483 -0.0008879 0 0 0 0)
(0.00104416 9.65759e-05 0 3.28923 -0.00104589 0 0 0 0)
(0.000449321 9.04269e-05 0 3.29018 -0.000448301 0 0 0 0)
(-4.0577e-05 4.95427e-05 0 3.60638 8.01436e-05 0 0 0 0)
(0.000971846 0.000198881 0 3.61072 -0.000888584 0 0 0 0)
(0.00109644 0.00010098 0 3.61689 -0.00106438 0 0 0 0)
(0.000434493 9.72251e-05 0 3.62032 -0.000452307 0 0 0 0)
(-2.7516e-06 3.73016e-05 0 3.95355 -2.08592e-05 0 0 0 0)
(0.00106325 0.000188934 0 3.95804 -0.00110996 0 0 0 0)
(0.00120418 0.000103847 0 3.96655 -0.00121713 0 0 0 0)
(0.000445112 0.00010586 0 3.97374 -0.000407197 0 0 0 0)
(3.35805e-05 2.08628e-05 0 4.32368 -7.50252e-05 0 0 0 0)
(0.00118851 0.000178943 0 4.32668 -0.00128237 0 0 0 0)
(0.00135817 0.000112693 0 4.338 -0.00146475 0 0 0 0)
(0.00049921 0.000117733 0 4.35174 -0.000528457 0 0 0 0)
(1.92748e-05 4.65102e-06 0 4.71541 0.000193708 0 0 0 0)
(0.00130194 0.000165772 0 4.71645 -0.00115872 0 0 0 0)
(0.00162197 0.000116412 0 4.72953 -0.00162855 0 0 0 0)
(0.000641533 0.000133433 0 4.75194 -0.000712029 0 0 0 0)
(-1.34268e-05 -1.15202e-05 0 5.18783 0.000140358 0 0 0 0)
(0.00142375 0.000148572 0 5.18078 -0.00125816 0 0 0 0)
(0.00194966 0.000120138 0 5.18955 -0.00183779 0 0 0 0)
(0.000905827 0.00014532 0 5.22049 -0.0008053 0 0 0 0)
(-0.000209446 -2.7979e-05 0 7.83014 0.000212118 0 0 0 0)
(0.00133063 0.000132803 0 7.79504 -0.000579318 0 0 0 0)
(0.00228383 0.00012396 0 7.76586 -0.00108153 0 0 0 0)
(0.00122882 0.000165868 0 7.7856 -0.000595574 0 0 0 0)
(0.000172247 -0.00043586 0 1.39626 -0.000250967 0 0 0 0)
(-0.000843671 -0.000433994 0 1.40458 0.00069158 0 0 0 0)
(-0.000734203 0.000198861 0 1.39844 0.000711804 0 0 0 0)
(-0.000488249 0.000104508 0 1.39509 0.000426343 0 0 0 0)
(0.000226158 -0.000422373 0 1.56686 -0.00016834 0 0 0 0)
(-0.000809131 -0.00042553 0 1.57364 0.00094735 0 0 0 0)
(-0.000802356 0.000195167 0 1.56976 0.000839356 0 0 0 0)
(-0.000540963 9.94574e-05 0 1.56635 0.000487712 0 0 0 0)
(0.000240418 -0.000407188 0 1.75476 -0.000280841 0 0 0 0)
(-0.000795331 -0.000417199 0 1.7601 0.000798695 0 0 0 0)
(-0.000855752 0.0001912 0 1.75712 0.000874642 0 0 0 0)
(-0.00055518 9.48653e-05 0 1.75431 0.000565441 0 0 0 0)
(0.000247606 -0.000396573 0 1.96041 -0.000283191 0 0 0 0)
(-0.000769843 -0.000406272 0 1.96494 0.000766359 0 0 0 0)
(-0.000898881 0.00019128 0 1.96264 0.000919105 0 0 0 0)
(-0.000574097 9.01974e-05 0 1.96009 0.000561001 0 0 0 0)
(0.000238482 -0.000382869 0 2.18494 -0.000231762 0 0 0 0)
(-0.000758236 -0.000397161 0 2.18838 0.0008452 0 0 0 0)
(-0.000936556 0.000187777 0 2.18655 0.000965903 0 0 0 0)
(-0.000569576 8.39405e-05 0 2.18416 0.000571308 0 0 0 0)
(0.000225107 -0.000372268 0 2.42883 -0.000295263 0 0 0 0)
(-0.000743067 -0.000386311 0 2.43148 0.00071353 0 0 0 0)
(-0.000969285 0.000186715 0 2.42998 0.000972317 0 0 0 0)
(-0.000575379 7.82781e-05 0 2.42751 0.00056262 0 0 0 0)
(0.000205928 -0.000361269 0 2.69305 -0.000255867 0 0 0 0)
(-0.000739121 -0.000376034 0 2.69438 0.000745457 0 0 0 0)
(-0.00100279 0.000185262 0 2.69313 0.00101271 0 0 0 0)
(-0.000567178 7.18184e-05 0 2.6904 0.000558092 0 0 0 0)
(0.000173931 -0.000350928 0 2.97858 -0.000199623 0 0 0 0)
(-0.000741716 -0.000365168 0 2.9785 0.000764823 0 0 0 0)
(-0.00103564 0.000183592 0 2.97705 0.00105653 0 0 0 0)
(-0.000574477 6.46994e-05 0 2.97386 0.0005647 0 0 0 0)
(0.000135084 -0.000340504 0 3.28615 -0.000169108 0 0 0 0)
(-0.000764596 -0.000355098 0 3.28388 0.000782483 0 0 0 0)
(-0.00108009 0.000181927 0 3.28231 0.00108787 0 0 0 0)
(-0.000572812 5.66622e-05 0 3.27853 0.000560474 0 0 0 0)
(6.8882e-05 -0.000330415 0 3.61664 -0.000138405 0 0 0 0)
(-0.000805705 -0.000344218 0 3.61178 0.000778604 0 0 0 0)
(-0.00112474 0.000179892 0 3.60928 0.00114553 0 0 0 0)
(-0.000600635 4.81119e-05 0 3.60494 0.000593373 0 0 0 0)
(-7.31652e-06 -0.000319988 0 3.97043 1.3324e-05 0 0 0 0)
(-0.000887257 -0.0003337 0 3.96229 0.000953306 0 0 0 0)
(-0.00119412 0.00017884 0 3.95851 0.00122652 0 0 0 0)
(-0.000621101 3.89058e-05 0 3.95359 0.000610835 0 0 0 0)
(-0.000122069 -0.00030774 0 4.34979 0.000189652 0 0 0 0)
(-0.00100439 -0.000323998 0 4.33748 0.00115546 0 0 0 0)
(-0.00126968 0.000174184 0 4.33079 0.0013112 0 0 0 0)
(-0.000683335 2.73222e-05 0 4.32536 0.00067667 0 0 0 0)
(-0.000244978 -0.000291923 0 4.75392 2.66635e-05 0 0 0 0)
(-0.00120387 -0.000315007 0 4.73675 0.00100329 0 0 0 0)
(-0.00139627 0.00017086 0 4.72566 0.00131477 0 0 0 0)
(-0.000739603 1.5802e-05 0 4.71927 0.00078426 0 0 0 0)
(-0.000375251 -0.000279151 0 5.22479 0.000108268 0 0 0 0)
(-0.00147541 -0.00030253 0 5.20962 0.00110799 0 0 0 0)
(-0.00156099 0.000170533 0 5.20237 0.00111658 0 0 0 0)
(-0.000854167 8.6378e-06 0 5.1945 0.000699642 0 0 0 0)
(-0.000426071 -0.000260035 0 7.79859 -6.52806e-05 0 0 0 0)
(-0.00157764 -0.000298202 0 7.82222 0.000553433 0 0 0 0)
(-0.00164832 0.000164054 0 7.84806 0.000831042 0 0 0 0)
(-0.000981823 -4.6835e-07 0 7.84369 0.000595221 0 0 0 0)
)
;

boundaryField
{
    topWall
    {
        type            extrapolatedCalculated;
        value           nonuniform List<tensor> 0();
    }
    botWall
    {
        type            extrapolatedCalculated;
        value           nonuniform List<tensor> 0();
    }
    inlet
    {
        type            cyclic;
    }
    outlet
    {
        type            cyclic;
    }
    fixWall
    {
        type            empty;
    }
    procBoundary3to2
    {
        type            processor;
        value           nonuniform List<tensor> 8((-0.000282449 0.000150644 0 1.23822 0.00025962 0 0 0 0) (0.000413134 0.000295434 0 1.24088 -0.000244055 0 0 0 0) (0.000832343 9.80867e-05 0 1.2499 -0.00081469 0 0 0 0) (0.000897561 3.9411e-05 0 1.24274 -0.000907646 0 0 0 0) (9.42237e-05 -0.000448319 0 1.24095 -8.71299e-05 0 0 0 0) (-0.000845508 -0.000441576 0 1.2486 0.000850983 0 0 0 0) (-0.000644117 0.000199588 0 1.24221 0.000643782 0 0 0 0) (-0.000465187 0.000106732 0 1.23964 0.000471794 0 0 0 0));
    }
    procBoundary3to4
    {
        type            processor;
        value           nonuniform List<tensor> 8((-0.000824354 -3.10958e-05 0 27.847 0.000576819 0 0 0 0) (0.000352276 0.000127012 0 27.6787 0.00041628 0 0 0 0) (0.00179243 0.000119867 0 27.2228 0.000472047 0 0 0 0) (0.00145135 0.000162257 0 26.682 -0.000186958 0 0 0 0) (0.00023506 -0.000260001 0 26.6805 -0.00109678 0 0 0 0) (-0.00065087 -0.000287591 0 27.2152 -0.000629791 0 0 0 0) (-0.00120313 0.00017123 0 27.6407 0.0010145 0 0 0 0) (-0.00115275 -1.67759e-06 0 27.8655 0.001124 0 0 0 0));
    }
}


// ************************************************************************* //
