/*--------------------------------*- C++ -*----------------------------------*\
  =========                 |
  \\      /  F ield         | OpenFOAM: The Open Source CFD Toolbox
   \\    /   O peration     | Website:  https://openfoam.org
    \\  /    A nd           | Version:  dev
     \\/     M anipulation  |

   OpenFOAM for Windows 20.09 (v1)
   Built by CFD Support, www.cfdsupport.com (based on Symscape).
\*---------------------------------------------------------------------------*/
FoamFile
{
    version     2.0;
    format      ascii;
    class       volVectorField;
    location    "10";
    object      gradp;
}
// * * * * * * * * * * * * * * * * * * * * * * * * * * * * * * * * * * * * * //

dimensions      [1 -2 -2 0 0 0 0];

internalField   nonuniform List<vector> 
120
(
(3.7568 -98.1908 0)
(-1.22662 -97.8577 0)
(-1.23901 -98.4154 0)
(-1.25455 -98.6771 0)
(3.75174 -98.4988 0)
(-1.23694 -98.5817 0)
(-1.23157 -99.1251 0)
(-1.23757 -98.1702 0)
(3.7519 -98.0785 0)
(-1.23706 -98.0852 0)
(-1.23215 -98.0927 0)
(-1.23816 -98.1248 0)
(3.75206 -98.0789 0)
(-1.23718 -98.0855 0)
(-1.23223 -98.0927 0)
(-1.23831 -98.0971 0)
(3.75222 -98.0794 0)
(-1.23729 -98.0861 0)
(-1.23234 -98.0929 0)
(-1.23852 -98.0968 0)
(3.75237 -98.0671 0)
(-1.2374 -98.0742 0)
(-1.23241 -98.0931 0)
(-1.23872 -98.0955 0)
(3.75243 -98.0768 0)
(-1.23772 -98.0765 0)
(-1.2327 -98.0913 0)
(-1.23892 -98.0948 0)
(3.75282 -98.0899 0)
(-1.23764 -98.0893 0)
(-1.23272 -98.0902 0)
(-1.23916 -98.0934 0)
(3.75297 -98.0806 0)
(-1.23773 -98.0871 0)
(-1.23276 -98.0953 0)
(-1.23937 -98.0928 0)
(3.75312 -98.0805 0)
(-1.23789 -98.0864 0)
(-1.23281 -98.096 0)
(-1.23936 -98.0926 0)
(3.75328 -98.0674 0)
(-1.23799 -98.0751 0)
(-1.23287 -98.09 0)
(-1.23958 -98.0925 0)
(3.75339 -98.0796 0)
(-1.23826 -98.0965 0)
(-1.2331 -98.0891 0)
(-1.23958 -98.0857 0)
(3.75328 -98.0919 0)
(-1.23815 -98.1063 0)
(-1.23269 -98.0903 0)
(-1.23961 -98.0855 0)
(3.75344 -96.977 0)
(-1.23824 -97.0878 0)
(-1.23275 -97.2007 0)
(-1.23983 -97.1945 0)
(3.75137 -74.6025 0)
(-1.24187 -74.8764 0)
(-1.23447 -75.2933 0)
(-1.23992 -75.551 0)
(-1.25651 -98.5198 0)
(-1.26252 -98.5263 0)
(-1.26128 -98.2782 0)
(3.7437 -98.0565 0)
(-1.2565 -98.1414 0)
(-1.26907 -98.1796 0)
(-1.26367 -98.5169 0)
(3.74359 -98.2875 0)
(-1.25667 -98.1366 0)
(-1.26878 -98.1517 0)
(-1.26308 -98.1277 0)
(3.744 -98.1044 0)
(-1.25694 -98.1144 0)
(-1.26892 -98.1281 0)
(-1.26288 -98.1277 0)
(3.74441 -98.1046 0)
(-1.25719 -98.118 0)
(-1.269 -98.1174 0)
(-1.26269 -98.1274 0)
(3.74481 -98.1047 0)
(-1.25729 -98.1174 0)
(-1.26908 -98.1171 0)
(-1.26267 -98.1265 0)
(3.74521 -98.0868 0)
(-1.25755 -98.1172 0)
(-1.26915 -98.1307 0)
(-1.26219 -98.1274 0)
(3.7458 -98.1033 0)
(-1.25789 -98.117 0)
(-1.26925 -98.1205 0)
(-1.26222 -98.1284 0)
(3.74605 -98.1215 0)
(-1.258 -98.1073 0)
(-1.26934 -98.1247 0)
(-1.26221 -98.1279 0)
(3.74644 -98.1053 0)
(-1.25842 -98.1084 0)
(-1.26959 -98.1349 0)
(-1.26189 -98.1277 0)
(3.74684 -98.1054 0)
(-1.2587 -98.1035 0)
(-1.26966 -98.1067 0)
(-1.26171 -98.1101 0)
(3.74723 -98.0912 0)
(-1.25865 -98.0913 0)
(-1.2697 -98.1047 0)
(-1.26163 -98.1125 0)
(3.74755 -98.0963 0)
(-1.25902 -98.1052 0)
(-1.27002 -98.1253 0)
(-1.26157 -98.1296 0)
(3.74778 -98.1093 0)
(-1.25932 -97.2194 0)
(-1.27011 -97.1098 0)
(-1.26137 -96.9733 0)
(3.74818 -96.9736 0)
(-1.2576 -75.5926 0)
(-1.26592 -75.0741 0)
(-1.2593 -74.5874 0)
(3.74771 -74.5594 0)
)
;

boundaryField
{
    topWall
    {
        type            extrapolatedCalculated;
        value           nonuniform List<vector> 0();
    }
    botWall
    {
        type            extrapolatedCalculated;
        value           nonuniform List<vector> 0();
    }
    inlet
    {
        type            cyclic;
    }
    outlet
    {
        type            cyclic;
    }
    fixWall
    {
        type            empty;
    }
    procBoundary3to2
    {
        type            processor;
        value           nonuniform List<vector> 8((3.74843 -97.7694 0) (-1.2332 -97.1273 0) (-1.21792 -97.3836 0) (-1.23583 -98.1376 0) (-1.25901 -97.9213 0) (-1.2731 -98.1437 0) (-1.2715 -97.888 0) (3.74213 -97.8676 0));
    }
    procBoundary3to4
    {
        type            processor;
        value           nonuniform List<vector> 8((3.74815 -32.422 0) (-1.24975 -32.6244 0) (-1.244 -33.066 0) (-1.24482 -33.5304 0) (-1.25137 -33.5774 0) (-1.25336 -32.9964 0) (-1.25279 -32.5103 0) (3.74793 -32.3996 0));
    }
}


// ************************************************************************* //
