/*--------------------------------*- C++ -*----------------------------------*\
  =========                 |
  \\      /  F ield         | OpenFOAM: The Open Source CFD Toolbox
   \\    /   O peration     | Website:  https://openfoam.org
    \\  /    A nd           | Version:  dev
     \\/     M anipulation  |

   OpenFOAM for Windows 20.09 (v1)
   Built by CFD Support, www.cfdsupport.com (based on Symscape).
\*---------------------------------------------------------------------------*/
FoamFile
{
    version     2.0;
    format      ascii;
    class       volScalarField;
    location    "10";
    object      k;
}
// * * * * * * * * * * * * * * * * * * * * * * * * * * * * * * * * * * * * * //

dimensions      [0 2 -2 0 0 0 0];

internalField   nonuniform List<scalar> 
120
(
5.35909e-13
5.33525e-13
5.30547e-13
5.2905e-13
6.13123e-13
6.10431e-13
6.07049e-13
6.05349e-13
7.01609e-13
6.9857e-13
6.94728e-13
6.928e-13
8.03151e-13
7.99722e-13
7.95355e-13
7.9317e-13
9.19853e-13
9.15985e-13
9.11019e-13
9.08543e-13
1.05421e-12
1.04985e-12
1.0442e-12
1.04139e-12
1.20921e-12
1.20428e-12
1.19784e-12
1.19467e-12
1.3884e-12
1.38284e-12
1.3755e-12
1.37191e-12
1.5961e-12
1.58982e-12
1.58144e-12
1.57738e-12
1.83755e-12
1.83045e-12
1.82085e-12
1.81627e-12
2.11915e-12
2.11111e-12
2.1001e-12
2.09491e-12
2.44882e-12
2.4397e-12
2.42702e-12
2.42114e-12
2.8364e-12
2.82605e-12
2.8114e-12
2.80472e-12
3.2943e-12
3.28253e-12
3.26551e-12
3.25788e-12
3.83815e-12
3.82476e-12
3.8049e-12
3.79613e-12
5.29949e-13
5.32587e-13
5.35497e-13
5.37247e-13
6.06391e-13
6.0934e-13
6.12651e-13
6.14678e-13
6.9401e-13
6.97306e-13
7.01072e-13
7.0342e-13
7.94578e-13
7.98258e-13
8.02544e-13
8.05263e-13
9.10187e-13
9.14295e-13
9.19175e-13
9.22322e-13
1.04332e-12
1.0479e-12
1.05346e-12
1.05711e-12
1.19693e-12
1.20205e-12
1.20838e-12
1.2126e-12
1.37457e-12
1.38028e-12
1.38752e-12
1.3924e-12
1.58053e-12
1.5869e-12
1.59517e-12
1.60084e-12
1.81999e-12
1.82711e-12
1.83659e-12
1.84316e-12
2.09934e-12
2.1073e-12
2.11819e-12
2.12582e-12
2.42643e-12
2.43535e-12
2.4479e-12
2.45678e-12
2.81104e-12
2.82106e-12
2.83558e-12
2.84593e-12
3.26548e-12
3.27677e-12
3.29365e-12
3.30576e-12
3.80528e-12
3.81805e-12
3.83778e-12
3.85198e-12
)
;

boundaryField
{
    topWall
    {
        type            kqRWallFunction;
        value           nonuniform List<scalar> 0();
    }
    botWall
    {
        type            kqRWallFunction;
        value           nonuniform List<scalar> 0();
    }
    inlet
    {
        type            cyclic;
    }
    outlet
    {
        type            cyclic;
    }
    fixWall
    {
        type            empty;
    }
    procBoundary3to2
    {
        type            processor;
        value           nonuniform List<scalar> 8(4.68452e-13 4.66343e-13 4.6372e-13 4.62402e-13 4.63179e-13 4.65536e-13 4.68095e-13 4.69604e-13);
    }
    procBoundary3to4
    {
        type            processor;
        value           nonuniform List<scalar> 8(4.4824e-12 4.46725e-12 4.44407e-12 4.43395e-12 4.44498e-12 4.45935e-12 4.48241e-12 4.49913e-12);
    }
}


// ************************************************************************* //
