/*--------------------------------*- C++ -*----------------------------------*\
  =========                 |
  \\      /  F ield         | OpenFOAM: The Open Source CFD Toolbox
   \\    /   O peration     | Website:  https://openfoam.org
    \\  /    A nd           | Version:  dev
     \\/     M anipulation  |

   OpenFOAM for Windows 20.09 (v1)
   Built by CFD Support, www.cfdsupport.com (based on Symscape).
\*---------------------------------------------------------------------------*/
FoamFile
{
    version     2.0;
    format      ascii;
    class       volScalarField;
    location    "10";
    object      nut;
}
// * * * * * * * * * * * * * * * * * * * * * * * * * * * * * * * * * * * * * //

dimensions      [0 2 -1 0 0 0 0];

internalField   nonuniform List<scalar> 
120
(
2.88571e-14
2.87252e-14
2.85655e-14
2.84776e-14
3.19284e-14
3.17841e-14
3.16093e-14
3.15129e-14
3.51105e-14
3.49537e-14
3.47636e-14
3.46588e-14
3.83851e-14
3.82161e-14
3.80106e-14
3.78976e-14
4.1735e-14
4.1554e-14
4.13334e-14
4.12126e-14
4.51446e-14
4.4952e-14
4.47167e-14
4.45886e-14
4.86005e-14
4.83971e-14
4.81478e-14
4.80132e-14
5.20927e-14
5.18791e-14
5.16166e-14
5.14764e-14
5.56139e-14
5.53912e-14
5.51164e-14
5.49719e-14
5.91605e-14
5.89295e-14
5.86435e-14
5.8496e-14
6.27314e-14
6.24932e-14
6.21972e-14
6.20484e-14
6.63282e-14
6.60839e-14
6.57791e-14
6.56307e-14
6.99547e-14
6.97051e-14
6.93927e-14
6.92469e-14
7.36157e-14
7.33629e-14
7.30432e-14
7.29018e-14
7.73167e-14
7.7062e-14
7.67358e-14
7.66017e-14
2.85167e-14
2.86512e-14
2.8809e-14
2.89046e-14
3.15555e-14
3.16985e-14
3.18713e-14
3.19786e-14
3.47052e-14
3.48561e-14
3.5044e-14
3.51634e-14
3.79481e-14
3.81063e-14
3.83092e-14
3.84409e-14
4.12676e-14
4.14322e-14
4.16497e-14
4.17941e-14
4.46487e-14
4.4819e-14
4.50503e-14
4.52072e-14
4.80788e-14
4.82537e-14
4.84986e-14
4.86674e-14
5.15484e-14
5.1727e-14
5.19846e-14
5.21646e-14
5.50511e-14
5.52324e-14
5.55016e-14
5.5692e-14
5.85833e-14
5.87663e-14
5.9046e-14
5.92466e-14
6.21448e-14
6.23283e-14
6.26176e-14
6.28272e-14
6.57373e-14
6.59203e-14
6.6218e-14
6.64357e-14
6.93647e-14
6.95458e-14
6.98511e-14
7.00757e-14
7.30319e-14
7.321e-14
7.35217e-14
7.37523e-14
7.67439e-14
7.69177e-14
7.72351e-14
7.74706e-14
)
;

boundaryField
{
    topWall
    {
        type            nutkWallFunction;
        Cmu             0.09;
        kappa           0.41;
        E               9.8;
        value           nonuniform List<scalar> 0();
    }
    botWall
    {
        type            nutkWallFunction;
        Cmu             0.09;
        kappa           0.41;
        E               9.8;
        value           nonuniform List<scalar> 0();
    }
    inlet
    {
        type            cyclic;
    }
    outlet
    {
        type            cyclic;
    }
    fixWall
    {
        type            empty;
    }
    procBoundary3to2
    {
        type            processor;
        value           nonuniform List<scalar> 8(2.58834e-14 2.57636e-14 2.5619e-14 2.55396e-14 2.55753e-14 2.57006e-14 2.58432e-14 2.59278e-14);
    }
    procBoundary3to4
    {
        type            processor;
        value           nonuniform List<scalar> 8(8.0714e-14 8.04619e-14 8.0136e-14 8.00139e-14 8.01704e-14 8.03345e-14 8.06527e-14 8.08897e-14);
    }
}


// ************************************************************************* //
