/*--------------------------------*- C++ -*----------------------------------*\
  =========                 |
  \\      /  F ield         | OpenFOAM: The Open Source CFD Toolbox
   \\    /   O peration     | Website:  https://openfoam.org
    \\  /    A nd           | Version:  dev
     \\/     M anipulation  |

   OpenFOAM for Windows 20.09 (v1)
   Built by CFD Support, www.cfdsupport.com (based on Symscape).
\*---------------------------------------------------------------------------*/
FoamFile
{
    version     2.0;
    format      ascii;
    class       volScalarField;
    location    "10";
    object      omega;
}
// * * * * * * * * * * * * * * * * * * * * * * * * * * * * * * * * * * * * * //

dimensions      [0 0 -1 0 0 0 0];

internalField   nonuniform List<scalar> 
120
(
18.5711
18.5735
18.573
18.5777
19.203
19.2055
19.2048
19.2096
19.9829
19.9856
19.9844
19.9892
20.9235
20.9263
20.9246
20.9293
22.0403
22.0432
22.0408
22.0453
23.3519
23.3549
23.3514
23.3556
24.8805
24.8833
24.8785
24.8821
26.6525
26.6551
26.6484
26.6512
28.6997
28.7018
28.6927
28.6943
31.0605
31.0617
31.0495
31.0494
33.7814
33.7815
33.7651
33.7625
36.9197
36.9183
36.8966
36.8904
40.5463
40.543
40.5143
40.5031
44.75
44.7438
44.7066
44.6886
49.642
49.6323
49.5844
49.5568
18.5838
18.5887
18.5879
18.5869
19.2166
19.223
19.2226
19.2215
19.9973
20.0053
20.0055
20.0043
20.9386
20.9482
20.9492
20.9481
22.0557
22.0672
22.0692
22.0683
23.3673
23.3808
23.3841
23.3836
24.8952
24.911
24.9159
24.9161
26.6657
26.6839
26.6909
26.6925
28.7102
28.7313
28.741
28.7444
31.0667
31.0911
31.1044
31.11
33.7814
33.8097
33.8274
33.836
36.9109
36.9438
36.9672
36.9798
40.5255
40.564
40.5946
40.6122
44.713
44.7585
44.7983
44.8224
49.5842
49.6382
49.6896
49.7219
)
;

boundaryField
{
    topWall
    {
        beta1           0.075;
        blended         0;
        type            omegaWallFunction;
        value           nonuniform List<scalar> 0();
    }
    botWall
    {
        beta1           0.075;
        blended         0;
        type            omegaWallFunction;
        value           nonuniform List<scalar> 0();
    }
    inlet
    {
        type            cyclic;
    }
    outlet
    {
        type            cyclic;
    }
    fixWall
    {
        type            empty;
    }
    procBoundary3to2
    {
        type            processor;
        value           nonuniform List<scalar> 8(18.0986 18.1009 18.1006 18.1053 18.1104 18.1138 18.1129 18.112);
    }
    procBoundary3to4
    {
        type            processor;
        value           nonuniform List<scalar> 8(55.5343 55.5201 55.4566 55.4148 55.4442 55.5098 55.5767 55.6205);
    }
}


// ************************************************************************* //
