/*--------------------------------*- C++ -*----------------------------------*\
  =========                 |
  \\      /  F ield         | OpenFOAM: The Open Source CFD Toolbox
   \\    /   O peration     | Website:  https://openfoam.org
    \\  /    A nd           | Version:  dev
     \\/     M anipulation  |

   OpenFOAM for Windows 20.09 (v1)
   Built by CFD Support, www.cfdsupport.com (based on Symscape).
\*---------------------------------------------------------------------------*/
FoamFile
{
    version     2.0;
    format      ascii;
    class       volScalarField;
    location    "10";
    object      p;
}
// * * * * * * * * * * * * * * * * * * * * * * * * * * * * * * * * * * * * * //

dimensions      [1 -1 -2 0 0 0 0];

internalField   nonuniform List<scalar> 
120
(
-3.69453
-3.75652
-3.8172
-3.88042
-3.77697
-3.83908
-3.90066
-3.96224
-3.8587
-3.92082
-3.9824
-4.04403
-3.94043
-4.00256
-4.06415
-4.12578
-4.02216
-4.0843
-4.14589
-4.20753
-4.1039
-4.16603
-4.22764
-4.28928
-4.18561
-4.24775
-4.30938
-4.37102
-4.26736
-4.3295
-4.39112
-4.45277
-4.34909
-4.41124
-4.47286
-4.53451
-4.43083
-4.49297
-4.55461
-4.61626
-4.51256
-4.57471
-4.63636
-4.698
-4.59427
-4.65643
-4.7181
-4.77974
-4.67603
-4.73821
-4.79984
-4.86148
-4.75776
-4.81994
-4.88158
-4.94322
-4.83765
-4.90002
-4.96184
-5.02347
-3.94265
-4.00607
-4.0689
-4.1322
-4.02442
-4.08789
-4.15133
-4.21426
-4.10622
-4.1697
-4.2331
-4.29601
-4.18798
-4.25148
-4.31487
-4.37776
-4.26974
-4.33325
-4.39664
-4.45952
-4.35151
-4.415
-4.47842
-4.54127
-4.43327
-4.49678
-4.56019
-4.623
-4.51504
-4.57856
-4.64196
-4.70478
-4.5968
-4.66031
-4.72374
-4.78653
-4.67855
-4.7421
-4.80551
-4.86829
-4.76032
-4.82387
-4.88728
-4.95004
-4.84206
-4.90561
-4.96903
-5.03177
-4.9238
-4.98738
-5.0508
-5.11353
-5.00556
-5.06915
-5.13258
-5.19529
-5.08583
-5.14923
-5.21243
-5.27516
)
;

boundaryField
{
    topWall
    {
        type            calculated;
        value           nonuniform List<scalar> 0();
    }
    botWall
    {
        type            calculated;
        value           nonuniform List<scalar> 0();
    }
    inlet
    {
        type            cyclic;
    }
    outlet
    {
        type            cyclic;
    }
    fixWall
    {
        type            empty;
    }
    procBoundary3to2
    {
        type            processor;
        value           nonuniform List<scalar> 8(-3.61332 -3.67599 -3.73664 -3.79778 -3.86022 -3.92368 -3.98753 -4.05083);
    }
    procBoundary3to4
    {
        type            processor;
        value           nonuniform List<scalar> 8(-4.8821 -4.94474 -5.00707 -5.06914 -5.13155 -5.19427 -5.25689 -5.31955);
    }
}


// ************************************************************************* //
