/*--------------------------------*- C++ -*----------------------------------*\
  =========                 |
  \\      /  F ield         | OpenFOAM: The Open Source CFD Toolbox
   \\    /   O peration     | Website:  https://openfoam.org
    \\  /    A nd           | Version:  dev
     \\/     M anipulation  |

   OpenFOAM for Windows 20.09 (v1)
   Built by CFD Support, www.cfdsupport.com (based on Symscape).
\*---------------------------------------------------------------------------*/
FoamFile
{
    version     2.0;
    format      ascii;
    class       volScalarField;
    location    "10";
    object      p_rgh;
}
// * * * * * * * * * * * * * * * * * * * * * * * * * * * * * * * * * * * * * //

dimensions      [1 -1 -2 0 0 0 0];

internalField   nonuniform List<scalar> 
120
(
0.0251205
-0.0368578
-0.0975024
-0.160791
0.0244098
-0.0377059
-0.0992854
-0.160866
0.0244239
-0.0376981
-0.0992835
-0.160913
0.0244398
-0.037687
-0.099278
-0.16091
0.0244558
-0.0376761
-0.0992724
-0.160908
0.0244716
-0.0376657
-0.0992667
-0.160904
0.0245084
-0.0376351
-0.0992615
-0.160901
0.0245097
-0.0376276
-0.0992532
-0.160896
0.0245271
-0.0376161
-0.0992459
-0.160891
0.0245445
-0.0376039
-0.0992452
-0.160886
0.0245624
-0.0375914
-0.099239
-0.16088
0.0246015
-0.0375607
-0.0992285
-0.160873
0.0245963
-0.0375865
-0.0992207
-0.160855
0.0243238
-0.0378579
-0.0994229
-0.160996
-0.192085
-0.233344
-0.274028
-0.337479
-0.22304
-0.286443
-0.349252
-0.412559
-0.223045
-0.286515
-0.34995
-0.41288
-0.223099
-0.286579
-0.349975
-0.412887
-0.223107
-0.286603
-0.35
-0.412892
-0.223123
-0.286627
-0.350024
-0.412898
-0.223138
-0.286634
-0.350048
-0.412903
-0.223152
-0.286656
-0.350069
-0.412879
-0.223167
-0.286685
-0.350093
-0.412909
-0.223182
-0.286691
-0.350117
-0.412912
-0.223181
-0.286726
-0.350139
-0.412915
-0.223197
-0.286749
-0.350161
-0.412918
-0.223185
-0.286736
-0.350153
-0.412898
-0.22318
-0.286755
-0.35018
-0.412911
-0.223354
-0.286897
-0.350384
-0.413208
-0.399876
-0.487075
-0.576572
-0.634703
)
;

boundaryField
{
    topWall
    {
        type            zeroGradient;
    }
    botWall
    {
        type            zeroGradient;
    }
    inlet
    {
        type            fixedJump;
        patchType       cyclic;
        jump            uniform -0.5;
        value           nonuniform List<scalar> 
15
(
-0.163394
0.055558
0.0558424
0.0558517
0.055822
0.0558145
0.0558074
0.0558004
0.0558149
0.0557843
0.0557792
0.0557737
0.0557685
0.0557648
0.0562808
)
;
    }
    outlet
    {
        type            fixedJump;
        patchType       cyclic;
        value           nonuniform List<scalar> 
15
(
-0.663394
-0.444442
-0.444158
-0.444148
-0.444178
-0.444186
-0.444193
-0.4442
-0.444185
-0.444216
-0.444221
-0.444226
-0.444231
-0.444235
-0.443719
)
;
    }
    fixWall
    {
        type            empty;
    }
    procBoundary3to2
    {
        type            processor;
        value           nonuniform List<scalar> 8(0.0245685 -0.0381248 -0.0987389 -0.159936 -0.222383 -0.285826 -0.349643 -0.412956);
    }
    procBoundary3to4
    {
        type            processor;
        value           nonuniform List<scalar> 8(-4.21509 -4.26989 -4.30519 -4.32831 -4.38854 -4.48706 -4.57617 -4.65223);
    }
}


// ************************************************************************* //
