/*--------------------------------*- C++ -*----------------------------------*\
  =========                 |
  \\      /  F ield         | OpenFOAM: The Open Source CFD Toolbox
   \\    /   O peration     | Website:  https://openfoam.org
    \\  /    A nd           | Version:  dev
     \\/     M anipulation  |

   OpenFOAM for Windows 20.09 (v1)
   Built by CFD Support, www.cfdsupport.com (based on Symscape).
\*---------------------------------------------------------------------------*/
FoamFile
{
    version     2.0;
    format      ascii;
    class       surfaceScalarField;
    location    "10";
    object      phi;
}
// * * * * * * * * * * * * * * * * * * * * * * * * * * * * * * * * * * * * * //

dimensions      [0 3 -1 0 0 0 0];

internalField   nonuniform List<scalar> 
217
(
5.31058e-08
-5.63396e-10
5.31282e-08
4.09427e-10
5.31606e-08
8.46007e-10
8.69488e-10
5.31962e-08
5.4131e-08
-5.51514e-10
5.4154e-08
3.86388e-10
5.41894e-08
8.1058e-10
8.36554e-10
5.42224e-08
5.52811e-08
-5.39624e-10
5.5306e-08
3.61414e-10
5.53433e-08
7.73295e-10
8.05863e-10
5.53741e-08
5.65684e-08
-5.28117e-10
5.65954e-08
3.34473e-10
5.66338e-08
7.34887e-10
7.77431e-10
5.66623e-08
5.80056e-08
-5.17279e-10
5.80341e-08
3.05967e-10
5.80739e-08
6.95133e-10
7.51253e-10
5.81001e-08
5.96055e-08
-5.0767e-10
5.96358e-08
2.7569e-10
5.96763e-08
6.54662e-10
7.27234e-10
5.97003e-08
6.13814e-08
-4.9935e-10
6.14134e-08
2.43794e-10
6.14547e-08
6.13298e-10
7.05258e-10
6.14767e-08
6.33475e-08
-4.93152e-10
6.33816e-08
2.09701e-10
6.34235e-08
5.71417e-10
6.8501e-10
6.34438e-08
6.55179e-08
-4.88926e-10
6.55544e-08
1.73199e-10
6.55978e-08
5.28057e-10
6.66239e-10
6.56166e-08
6.79069e-08
-4.87178e-10
6.79469e-08
1.33215e-10
6.79925e-08
4.8253e-10
6.48107e-10
6.80107e-08
7.05298e-08
-4.87049e-10
7.05736e-08
8.94332e-11
7.06236e-08
4.32539e-10
6.29517e-10
7.06423e-08
7.34011e-08
-4.88478e-10
7.345e-08
4.05529e-11
7.35066e-08
3.75994e-10
6.08702e-10
7.35275e-08
7.6537e-08
-4.89372e-10
7.65907e-08
-1.30841e-11
7.66582e-08
3.0854e-10
5.8189e-10
7.6685e-08
7.99511e-08
-4.88965e-10
8.00098e-08
-7.17993e-11
8.00909e-08
2.27432e-10
5.44028e-10
8.01288e-08
8.37377e-08
8.37924e-08
8.38869e-08
8.39388e-08
5.32046e-08
1.07977e-09
5.31692e-08
-1.27187e-09
5.3137e-08
-1.07176e-09
-2.91478e-10
5.42333e-08
1.06884e-09
5.41989e-08
-1.23741e-09
5.41649e-08
-1.03766e-09
-2.69492e-10
5.53857e-08
1.0572e-09
5.53518e-08
-1.20345e-09
5.53156e-08
-1.00149e-09
-2.46845e-10
5.66743e-08
1.04522e-09
5.66414e-08
-1.17061e-09
5.66034e-08
-9.635e-10
-2.23389e-10
5.81116e-08
1.03365e-09
5.80793e-08
-1.1383e-09
5.80397e-08
-9.23917e-10
-2.001e-10
5.97112e-08
1.02268e-09
5.96796e-08
-1.1067e-09
5.96386e-08
-8.82871e-10
-1.76574e-10
6.14868e-08
1.01257e-09
6.14553e-08
-1.0752e-09
6.1413e-08
-8.40597e-10
-1.53232e-10
6.34525e-08
1.00382e-09
6.34209e-08
-1.04362e-09
6.33771e-08
-7.96793e-10
-1.29696e-10
6.56237e-08
9.96766e-10
6.55912e-08
-1.01115e-09
6.55455e-08
-7.51061e-10
-1.06237e-10
6.8015e-08
9.92447e-10
6.79808e-08
-9.76912e-10
6.79332e-08
-7.03493e-10
-8.15967e-11
7.06434e-08
9.91287e-10
7.06058e-08
-9.39238e-10
7.05553e-08
-6.53038e-10
-5.61009e-11
7.35239e-08
9.94871e-10
7.34814e-08
-8.96676e-10
7.34277e-08
-5.99388e-10
-2.80189e-11
7.66763e-08
1.0036e-09
7.66255e-08
-8.45825e-10
7.65665e-08
-5.40448e-10
2.41095e-12
8.01146e-08
1.01777e-09
8.00525e-08
-7.83664e-10
7.99867e-08
-4.74627e-10
3.7592e-11
8.39225e-08
8.38559e-08
8.37867e-08
)
;

boundaryField
{
    topWall
    {
        type            calculated;
        value           nonuniform List<scalar> 0();
    }
    botWall
    {
        type            calculated;
        value           nonuniform List<scalar> 0();
    }
    inlet
    {
        type            cyclic;
        value           nonuniform List<scalar> 
15
(
-8.37459e-08
-7.99515e-08
-7.65361e-08
-7.33997e-08
-7.05299e-08
-6.79086e-08
-6.55221e-08
-6.33536e-08
-6.13897e-08
-5.96151e-08
-5.80164e-08
-5.65799e-08
-5.5293e-08
-5.41429e-08
-5.31187e-08
)
;
    }
    outlet
    {
        type            cyclic;
        value           nonuniform List<scalar> 
15
(
8.37459e-08
7.99515e-08
7.65361e-08
7.33997e-08
7.05299e-08
6.79086e-08
6.55221e-08
6.33536e-08
6.13897e-08
5.96151e-08
5.80164e-08
5.65799e-08
5.5293e-08
5.41429e-08
5.31187e-08
)
;
    }
    fixWall
    {
        type            empty;
        value           nonuniform List<scalar> 0();
    }
    procBoundary3to2
    {
        type            processor;
        value           nonuniform List<scalar> 8(5.75859e-10 -4.30976e-10 -8.77038e-10 -9.05796e-10 -1.08597e-09 1.30696e-09 1.10372e-09 3.0851e-10);
    }
    procBoundary3to4
    {
        type            processor;
        value           nonuniform List<scalar> 8(-4.82296e-10 -1.27614e-10 1.34481e-10 4.93857e-10 1.03265e-09 -7.17206e-10 -4.06753e-10 7.86225e-11);
    }
}


// ************************************************************************* //
