/*--------------------------------*- C++ -*----------------------------------*\
  =========                 |
  \\      /  F ield         | OpenFOAM: The Open Source CFD Toolbox
   \\    /   O peration     | Website:  https://openfoam.org
    \\  /    A nd           | Version:  dev
     \\/     M anipulation  |

   OpenFOAM for Windows 20.09 (v1)
   Built by CFD Support, www.cfdsupport.com (based on Symscape).
\*---------------------------------------------------------------------------*/
FoamFile
{
    version     2.0;
    format      ascii;
    class       volSymmTensorField;
    location    "10";
    object      R;
}
// * * * * * * * * * * * * * * * * * * * * * * * * * * * * * * * * * * * * * //

dimensions      [0 2 -2 0 0 0 0];

internalField   nonuniform List<symmTensor> 
120
(
(3.57288e-13 -4.0228e-14 -0 3.57257e-13 -0 3.57273e-13)
(3.55657e-13 -4.00908e-14 -0 3.55709e-13 -0 3.55685e-13)
(3.53651e-13 -4.00723e-14 -0 3.53745e-13 -0 3.53698e-13)
(3.52652e-13 -3.9775e-14 -0 3.52748e-13 -0 3.52699e-13)
(4.08766e-13 -4.99961e-14 -0 4.08731e-13 -0 4.08748e-13)
(4.06918e-13 -4.97656e-14 -0 4.06991e-13 -0 4.06953e-13)
(4.04645e-13 -4.97071e-14 -0 4.04753e-13 -0 4.04699e-13)
(4.03517e-13 -4.94626e-14 -0 4.03615e-13 -0 4.03566e-13)
(4.6776e-13 -6.1628e-14 -0 4.67718e-13 -0 4.6774e-13)
(4.65671e-13 -6.13444e-14 -0 4.65756e-13 -0 4.65714e-13)
(4.63091e-13 -6.12201e-14 -0 4.63213e-13 -0 4.63153e-13)
(4.61815e-13 -6.09603e-14 -0 4.61919e-13 -0 4.61867e-13)
(5.35455e-13 -7.53075e-14 -0 5.35414e-13 -0 5.35434e-13)
(5.33097e-13 -7.49718e-14 -0 5.33199e-13 -0 5.33148e-13)
(5.30166e-13 -7.47685e-14 -0 5.30309e-13 -0 5.30236e-13)
(5.28728e-13 -7.44732e-14 -0 5.28832e-13 -0 5.2878e-13)
(6.13257e-13 -9.12568e-14 -0 6.13215e-13 -0 6.13235e-13)
(6.10598e-13 -9.08807e-14 -0 6.10716e-13 -0 6.10656e-13)
(6.07267e-13 -9.05806e-14 -0 6.07425e-13 -0 6.07346e-13)
(6.05644e-13 -9.02471e-14 -0 6.05746e-13 -0 6.05696e-13)
(7.02829e-13 -1.09711e-13 -0 7.02787e-13 -0 7.02809e-13)
(6.99834e-13 -1.09291e-13 -0 6.99963e-13 -0 6.999e-13)
(6.96045e-13 -1.0889e-13 -0 6.96218e-13 -0 6.96131e-13)
(6.94211e-13 -1.08507e-13 -0 6.94314e-13 -0 6.94262e-13)
(8.06156e-13 -1.30894e-13 -0 8.06118e-13 -0 8.06137e-13)
(8.02779e-13 -1.30452e-13 -0 8.02928e-13 -0 8.02854e-13)
(7.98466e-13 -1.29939e-13 -0 7.98657e-13 -0 7.98562e-13)
(7.96396e-13 -1.29517e-13 -0 7.96498e-13 -0 7.96447e-13)
(9.25615e-13 -1.55069e-13 -0 9.25585e-13 -0 9.256e-13)
(9.21808e-13 -1.54594e-13 -0 9.2198e-13 -0 9.21894e-13)
(9.16895e-13 -1.53995e-13 -0 9.17103e-13 -0 9.16999e-13)
(9.14557e-13 -1.53546e-13 -0 9.14657e-13 -0 9.14607e-13)
(1.06408e-12 -1.82458e-13 -0 1.06406e-12 -0 1.06407e-12)
(1.05978e-12 -1.81962e-13 -0 1.05998e-12 -0 1.05988e-12)
(1.05418e-12 -1.81296e-13 -0 1.05441e-12 -0 1.05429e-12)
(1.05154e-12 -1.80872e-13 -0 1.05164e-12 -0 1.05159e-12)
(1.22504e-12 -2.13358e-13 -0 1.22503e-12 -0 1.22504e-12)
(1.22019e-12 -2.1279e-13 -0 1.22041e-12 -0 1.2203e-12)
(1.21377e-12 -2.12113e-13 -0 1.21403e-12 -0 1.2139e-12)
(1.21079e-12 -2.1178e-13 -0 1.2109e-12 -0 1.21084e-12)
(1.41277e-12 -2.48014e-13 -0 1.41277e-12 -0 1.41277e-12)
(1.40727e-12 -2.47362e-13 -0 1.40755e-12 -0 1.40741e-12)
(1.39991e-12 -2.46715e-13 -0 1.40022e-12 -0 1.40006e-12)
(1.39655e-12 -2.46571e-13 -0 1.39666e-12 -0 1.39661e-12)
(1.63254e-12 -2.86784e-13 -0 1.63255e-12 -0 1.63254e-12)
(1.62631e-12 -2.85935e-13 -0 1.62664e-12 -0 1.62647e-12)
(1.61783e-12 -2.85357e-13 -0 1.6182e-12 -0 1.61801e-12)
(1.61403e-12 -2.85616e-13 -0 1.61416e-12 -0 1.61409e-12)
(1.89094e-12 -3.29865e-13 -0 1.89092e-12 -0 1.89094e-12)
(1.88386e-12 -3.28772e-13 -0 1.8842e-12 -0 1.88404e-12)
(1.87404e-12 -3.28203e-13 -0 1.87449e-12 -0 1.87426e-12)
(1.86972e-12 -3.29066e-13 -0 1.86991e-12 -0 1.86981e-12)
(2.19621e-12 -3.81905e-13 -0 2.19618e-12 -0 2.1962e-12)
(2.18816e-12 -3.80088e-13 -0 2.18855e-12 -0 2.18836e-12)
(2.17673e-12 -3.7907e-13 -0 2.17728e-12 -0 2.17701e-12)
(2.17179e-12 -3.80594e-13 -0 2.17204e-12 -0 2.17193e-12)
(2.5588e-12 -6.05399e-13 -0 2.55874e-12 -0 2.55877e-12)
(2.54968e-12 -6.00712e-13 -0 2.54997e-12 -0 2.54988e-12)
(2.53631e-12 -5.95929e-13 -0 2.53683e-12 -0 2.53666e-12)
(2.5306e-12 -5.96403e-13 -0 2.53088e-12 -0 2.53079e-12)
(3.53288e-13 -3.98043e-14 -0 3.53312e-13 -0 3.53298e-13)
(3.55103e-13 -4.02305e-14 -0 3.55015e-13 -0 3.55055e-13)
(3.5704e-13 -4.02934e-14 -0 3.56957e-13 -0 3.56998e-13)
(3.58192e-13 -4.03275e-14 -0 3.58139e-13 -0 3.58164e-13)
(4.04247e-13 -4.94298e-14 -0 4.04272e-13 -0 4.04262e-13)
(4.06281e-13 -4.98685e-14 -0 4.0617e-13 -0 4.0623e-13)
(4.08486e-13 -5.00366e-14 -0 4.08381e-13 -0 4.08435e-13)
(4.09819e-13 -5.00928e-14 -0 4.09753e-13 -0 4.09784e-13)
(4.62656e-13 -6.08852e-14 -0 4.62692e-13 -0 4.62672e-13)
(4.64926e-13 -6.13357e-14 -0 4.64815e-13 -0 4.6487e-13)
(4.67442e-13 -6.15833e-14 -0 4.67321e-13 -0 4.67382e-13)
(4.68986e-13 -6.16909e-14 -0 4.68907e-13 -0 4.68947e-13)
(5.29699e-13 -7.43789e-14 -0 5.29739e-13 -0 5.29718e-13)
(5.32231e-13 -7.48611e-14 -0 5.32114e-13 -0 5.32172e-13)
(5.35099e-13 -7.51944e-14 -0 5.3496e-13 -0 5.3503e-13)
(5.36886e-13 -7.53513e-14 -0 5.36799e-13 -0 5.36842e-13)
(6.06772e-13 -9.01514e-14 -0 6.06811e-13 -0 6.06792e-13)
(6.09595e-13 -9.06531e-14 -0 6.09462e-13 -0 6.09532e-13)
(6.12862e-13 -9.10768e-14 -0 6.12703e-13 -0 6.12784e-13)
(6.14929e-13 -9.12882e-14 -0 6.14834e-13 -0 6.14882e-13)
(6.95523e-13 -1.08427e-13 -0 6.9557e-13 -0 6.95544e-13)
(6.98667e-13 -1.08959e-13 -0 6.98537e-13 -0 6.98601e-13)
(7.02395e-13 -1.09479e-13 -0 7.0222e-13 -0 7.02308e-13)
(7.04789e-13 -1.09744e-13 -0 7.04686e-13 -0 7.04737e-13)
(7.97933e-13 -1.29461e-13 -0 7.97977e-13 -0 7.97952e-13)
(8.01435e-13 -1.29996e-13 -0 8.01292e-13 -0 8.01364e-13)
(8.05687e-13 -1.30622e-13 -0 8.05492e-13 -0 8.0559e-13)
(8.08457e-13 -1.30938e-13 -0 8.08348e-13 -0 8.08402e-13)
(9.16363e-13 -1.53523e-13 -0 9.16401e-13 -0 9.16381e-13)
(9.20265e-13 -1.5405e-13 -0 9.20109e-13 -0 9.20188e-13)
(9.2512e-13 -1.5477e-13 -0 9.24902e-13 -0 9.25012e-13)
(9.28329e-13 -1.55134e-13 -0 9.2821e-13 -0 9.28269e-13)
(1.05367e-12 -1.80887e-13 -0 1.0537e-12 -0 1.05368e-12)
(1.05802e-12 -1.81357e-13 -0 1.05785e-12 -0 1.05793e-12)
(1.06357e-12 -1.82184e-13 -0 1.06333e-12 -0 1.06345e-12)
(1.06729e-12 -1.82591e-13 -0 1.06716e-12 -0 1.06722e-12)
(1.21332e-12 -2.11856e-13 -0 1.21334e-12 -0 1.21332e-12)
(1.21817e-12 -2.12231e-13 -0 1.21798e-12 -0 1.21807e-12)
(1.22453e-12 -2.13124e-13 -0 1.22426e-12 -0 1.22439e-12)
(1.22884e-12 -2.13583e-13 -0 1.2287e-12 -0 1.22877e-12)
(1.39956e-12 -2.46722e-13 -0 1.39956e-12 -0 1.39956e-12)
(1.40498e-12 -2.46942e-13 -0 1.40475e-12 -0 1.40487e-12)
(1.41228e-12 -2.47883e-13 -0 1.41198e-12 -0 1.41213e-12)
(1.41729e-12 -2.48395e-13 -0 1.41714e-12 -0 1.41721e-12)
(1.61764e-12 -2.85923e-13 -0 1.6176e-12 -0 1.61762e-12)
(1.6237e-12 -2.85907e-13 -0 1.62342e-12 -0 1.62357e-12)
(1.6321e-12 -2.86788e-13 -0 1.63176e-12 -0 1.63193e-12)
(1.63794e-12 -2.8736e-13 -0 1.63776e-12 -0 1.63785e-12)
(1.87405e-12 -3.29734e-13 -0 1.87401e-12 -0 1.87402e-12)
(1.88087e-12 -3.29399e-13 -0 1.88056e-12 -0 1.8807e-12)
(1.89058e-12 -3.30104e-13 -0 1.8902e-12 -0 1.89038e-12)
(1.89739e-12 -3.30707e-13 -0 1.89718e-12 -0 1.89729e-12)
(2.17703e-12 -3.81556e-13 -0 2.17696e-12 -0 2.17697e-12)
(2.18471e-12 -3.81374e-13 -0 2.18433e-12 -0 2.1845e-12)
(2.19597e-12 -3.825e-13 -0 2.19558e-12 -0 2.19574e-12)
(2.20396e-12 -3.83107e-13 -0 2.20373e-12 -0 2.20383e-12)
(2.53689e-12 -5.98474e-13 -0 2.53684e-12 -0 2.53683e-12)
(2.54556e-12 -6.01644e-13 -0 2.54523e-12 -0 2.54532e-12)
(2.55873e-12 -6.06158e-13 -0 2.55835e-12 -0 2.55848e-12)
(2.56812e-12 -6.07655e-13 -0 2.56788e-12 -0 2.56797e-12)
)
;

boundaryField
{
    topWall
    {
        type            kqRWallFunction;
        value           nonuniform List<symmTensor> 0();
    }
    botWall
    {
        type            kqRWallFunction;
        value           nonuniform List<symmTensor> 0();
    }
    inlet
    {
        type            cyclic;
    }
    outlet
    {
        type            cyclic;
    }
    fixWall
    {
        type            empty;
    }
    procBoundary3to2
    {
        type            processor;
        value           nonuniform List<symmTensor> 8((3.12316e-13 -3.20531e-14 -0 3.12287e-13 -0 3.12301e-13) (3.10877e-13 -3.19771e-14 -0 3.10911e-13 -0 3.10898e-13) (3.09104e-13 -3.20237e-14 -0 3.09189e-13 -0 3.09147e-13) (3.08222e-13 -3.174e-14 -0 3.08314e-13 -0 3.08268e-13) (3.08782e-13 -3.17263e-14 -0 3.08791e-13 -0 3.08786e-13) (3.10401e-13 -3.20785e-14 -0 3.10314e-13 -0 3.10358e-13) (3.12096e-13 -3.2108e-14 -0 3.1203e-13 -0 3.12063e-13) (3.13094e-13 -3.2144e-14 -0 3.13045e-13 -0 3.1307e-13));
    }
    procBoundary3to4
    {
        type            processor;
        value           nonuniform List<symmTensor> 8((2.98839e-12 -2.24764e-12 -0 2.98816e-12 -0 2.98825e-12) (2.97815e-12 -2.22709e-12 -0 2.97814e-12 -0 2.97821e-12) (2.96255e-12 -2.18154e-12 -0 2.96276e-12 -0 2.96284e-12) (2.9558e-12 -2.13494e-12 -0 2.95607e-12 -0 2.95604e-12) (2.96324e-12 -2.13896e-12 -0 2.96345e-12 -0 2.96327e-12) (2.97293e-12 -2.18629e-12 -0 2.97293e-12 -0 2.97283e-12) (2.98846e-12 -2.22931e-12 -0 2.9881e-12 -0 2.98827e-12) (2.9996e-12 -2.25403e-12 -0 2.99924e-12 -0 2.99942e-12));
    }
}


// ************************************************************************* //
