/*--------------------------------*- C++ -*----------------------------------*\
  =========                 |
  \\      /  F ield         | OpenFOAM: The Open Source CFD Toolbox
   \\    /   O peration     | Website:  https://openfoam.org
    \\  /    A nd           | Version:  dev
     \\/     M anipulation  |

   OpenFOAM for Windows 20.09 (v1)
   Built by CFD Support, www.cfdsupport.com (based on Symscape).
\*---------------------------------------------------------------------------*/
FoamFile
{
    version     2.0;
    format      ascii;
    class       volVectorField;
    location    "10";
    object      U;
}
// * * * * * * * * * * * * * * * * * * * * * * * * * * * * * * * * * * * * * //

dimensions      [0 1 -1 0 0 0 0];

internalField   nonuniform List<vector> 
120
(
(0.0637245 -1.1348e-05 0)
(0.0637314 8.49299e-06 0)
(0.0637743 1.72688e-05 0)
(0.063814 1.77203e-05 0)
(0.0649536 -1.11894e-05 0)
(0.0649608 7.99352e-06 0)
(0.0650097 1.65422e-05 0)
(0.0650462 1.70603e-05 0)
(0.0663341 -1.09134e-05 0)
(0.0663405 7.5121e-06 0)
(0.0663951 1.58635e-05 0)
(0.0664299 1.64321e-05 0)
(0.0678789 -1.06576e-05 0)
(0.0678854 6.99793e-06 0)
(0.0679446 1.51041e-05 0)
(0.0679776 1.58114e-05 0)
(0.0696037 -1.0474e-05 0)
(0.0696097 6.38742e-06 0)
(0.0696733 1.42754e-05 0)
(0.069705 1.52774e-05 0)
(0.071523 -1.02397e-05 0)
(0.0715301 5.7996e-06 0)
(0.0715969 1.35225e-05 0)
(0.0716271 1.47896e-05 0)
(0.0736539 -1.00657e-05 0)
(0.0736615 5.22451e-06 0)
(0.0737317 1.266e-05 0)
(0.0737607 1.43066e-05 0)
(0.0760116 -9.90975e-06 0)
(0.0760221 4.53265e-06 0)
(0.0760946 1.18759e-05 0)
(0.0761229 1.3898e-05 0)
(0.0786151 -9.82041e-06 0)
(0.0786276 3.84724e-06 0)
(0.0787039 1.09805e-05 0)
(0.078732 1.35048e-05 0)
(0.0814795 -9.75539e-06 0)
(0.0814969 3.05281e-06 0)
(0.0815767 1.01327e-05 0)
(0.0816065 1.31508e-05 0)
(0.0846258 -9.68684e-06 0)
(0.0846454 2.36627e-06 0)
(0.0847321 9.20654e-06 0)
(0.0847659 1.2751e-05 0)
(0.0880688 -9.79015e-06 0)
(0.0880936 1.20289e-06 0)
(0.0881876 8.10418e-06 0)
(0.0882294 1.24722e-05 0)
(0.0918319 -9.81188e-06 0)
(0.0918566 2.28989e-07 0)
(0.0919621 6.7653e-06 0)
(0.0920188 1.18702e-05 0)
(0.0959278 -9.46731e-06 0)
(0.0959544 -7.28312e-07 0)
(0.0960701 5.38992e-06 0)
(0.0961493 1.12855e-05 0)
(0.100478 -9.57795e-06 0)
(0.100491 -1.86794e-06 0)
(0.100611 3.70231e-06 0)
(0.10072 1.05281e-05 0)
(0.0638577 2.16006e-05 0)
(0.0638312 -2.58656e-05 0)
(0.0637734 -2.17988e-05 0)
(0.0637578 -5.97957e-06 0)
(0.0650886 2.14179e-05 0)
(0.0650688 -2.5177e-05 0)
(0.0650077 -2.11351e-05 0)
(0.0649886 -5.66031e-06 0)
(0.0664692 2.132e-05 0)
(0.0664539 -2.42867e-05 0)
(0.0663896 -2.03999e-05 0)
(0.0663684 -5.16672e-06 0)
(0.0680132 2.09498e-05 0)
(0.0680023 -2.38459e-05 0)
(0.0679363 -1.96774e-05 0)
(0.0679124 -4.71791e-06 0)
(0.0697365 2.0848e-05 0)
(0.0697288 -2.30095e-05 0)
(0.0696607 -1.8868e-05 0)
(0.0696352 -4.23172e-06 0)
(0.0716548 2.05635e-05 0)
(0.0716496 -2.24372e-05 0)
(0.0715805 -1.80675e-05 0)
(0.0715527 -3.76573e-06 0)
(0.0737846 2.03559e-05 0)
(0.0737813 -2.18202e-05 0)
(0.0737106 -1.72475e-05 0)
(0.073681 -3.29402e-06 0)
(0.0761432 2.01371e-05 0)
(0.0761403 -2.11948e-05 0)
(0.0760691 -1.63797e-05 0)
(0.0760367 -2.83558e-06 0)
(0.0787489 2.00232e-05 0)
(0.0787455 -2.05455e-05 0)
(0.0786724 -1.54866e-05 0)
(0.0786375 -2.35285e-06 0)
(0.0816201 1.98552e-05 0)
(0.0816134 -1.98906e-05 0)
(0.0815396 -1.45666e-05 0)
(0.0815009 -1.90145e-06 0)
(0.0847766 1.97925e-05 0)
(0.0847651 -1.92479e-05 0)
(0.0846879 -1.35774e-05 0)
(0.0846457 -1.3639e-06 0)
(0.0882375 1.98774e-05 0)
(0.0882172 -1.83018e-05 0)
(0.0881371 -1.25224e-05 0)
(0.0880902 -8.83395e-07 0)
(0.0920262 2.01086e-05 0)
(0.0919943 -1.73221e-05 0)
(0.0919059 -1.13921e-05 0)
(0.0918546 -2.36113e-07 0)
(0.0961607 1.99219e-05 0)
(0.0961118 -1.66296e-05 0)
(0.0960132 -1.03311e-05 0)
(0.0959557 4.23705e-07 0)
(0.100734 2.02891e-05 0)
(0.100677 -1.54754e-05 0)
(0.100576 -9.53112e-06 0)
(0.100512 9.29958e-07 0)
)
;

boundaryField
{
    topWall
    {
        type            noSlip;
    }
    botWall
    {
        type            noSlip;
    }
    inlet
    {
        type            cyclic;
    }
    outlet
    {
        type            cyclic;
    }
    fixWall
    {
        type            empty;
    }
    procBoundary3to2
    {
        type            processor;
        value           nonuniform List<vector> 8((0.0626305 -1.16483e-05 0) (0.0626352 8.69354e-06 0) (0.0626718 1.7895e-05 0) (0.0627184 1.85022e-05 0) (0.0627615 2.18361e-05 0) (0.0627279 -2.63297e-05 0) (0.062677 -2.23215e-05 0) (0.0626634 -6.37088e-06 0));
    }
    procBoundary3to4
    {
        type            processor;
        value           nonuniform List<vector> 8((0.108978 -9.11378e-06 0) (0.108946 -1.69384e-06 0) (0.109013 3.58737e-06 0) (0.109125 1.02928e-05 0) (0.109158 1.98131e-05 0) (0.109149 -1.57073e-05 0) (0.109093 -8.94602e-06 0) (0.109029 1.41574e-06 0));
    }
}


// ************************************************************************* //
