/*--------------------------------*- C++ -*----------------------------------*\
  =========                 |
  \\      /  F ield         | OpenFOAM: The Open Source CFD Toolbox
   \\    /   O peration     | Website:  https://openfoam.org
    \\  /    A nd           | Version:  dev
     \\/     M anipulation  |

   OpenFOAM for Windows 20.09 (v1)
   Built by CFD Support, www.cfdsupport.com (based on Symscape).
\*---------------------------------------------------------------------------*/
FoamFile
{
    version     2.0;
    format      ascii;
    class       volVectorField;
    location    "10";
    object      UMean;
}
// * * * * * * * * * * * * * * * * * * * * * * * * * * * * * * * * * * * * * //

dimensions      [0 1 -1 0 0 0 0];

internalField   nonuniform List<vector> 
120
(
(0.0319706 5.6717e-06 0)
(0.0319544 -9.06618e-06 0)
(0.0319429 -3.23682e-07 0)
(0.0319712 -4.91281e-07 0)
(0.0324603 5.9363e-06 0)
(0.0324404 -8.92982e-06 0)
(0.0324282 -3.90044e-07 0)
(0.0324525 -5.92288e-07 0)
(0.0330366 5.81807e-06 0)
(0.0330127 -8.42994e-06 0)
(0.0329999 -5.76441e-07 0)
(0.033022 -9.92079e-07 0)
(0.0337125 5.86212e-06 0)
(0.0336854 -8.29417e-06 0)
(0.033672 -6.42874e-07 0)
(0.0336924 -1.28767e-06 0)
(0.0345031 5.71366e-06 0)
(0.0344732 -7.60521e-06 0)
(0.0344597 -7.21523e-07 0)
(0.0344789 -1.27221e-06 0)
(0.0354247 5.87989e-06 0)
(0.0353934 -7.47661e-06 0)
(0.0353794 -7.75977e-07 0)
(0.0353976 -1.86457e-06 0)
(0.0364965 5.54551e-06 0)
(0.0364638 -6.86077e-06 0)
(0.0364496 -9.40877e-07 0)
(0.036467 -1.7934e-06 0)
(0.0377369 5.90551e-06 0)
(0.0377048 -6.62357e-06 0)
(0.0376902 -8.29127e-07 0)
(0.0377065 -2.25704e-06 0)
(0.0391698 5.29569e-06 0)
(0.0391374 -6.02491e-06 0)
(0.039123 -1.08466e-06 0)
(0.0391383 -2.2681e-06 0)
(0.0408152 5.90213e-06 0)
(0.040785 -5.81596e-06 0)
(0.0407711 -8.76459e-07 0)
(0.0407848 -2.63173e-06 0)
(0.0427016 4.94605e-06 0)
(0.0426714 -4.94497e-06 0)
(0.0426589 -1.01609e-06 0)
(0.0426717 -2.66787e-06 0)
(0.04485 5.91983e-06 0)
(0.0448224 -5.50414e-06 0)
(0.0448124 -1.15155e-06 0)
(0.0448236 -3.01544e-06 0)
(0.0472949 4.77399e-06 0)
(0.0472651 -4.50329e-06 0)
(0.0472579 -1.46728e-06 0)
(0.0472703 -3.28707e-06 0)
(0.050055 5.85744e-06 0)
(0.050026 -3.84746e-06 0)
(0.0500216 -6.27746e-07 0)
(0.0500358 -2.77035e-06 0)
(0.0532028 5.76384e-06 0)
(0.0531658 -4.13971e-06 0)
(0.0531586 -1.94832e-06 0)
(0.0531791 -3.30139e-06 0)
(0.0319859 1.05845e-05 0)
(0.0319856 -8.4641e-06 0)
(0.0319662 -1.07571e-05 0)
(0.0319554 1.2379e-05 0)
(0.0324671 1.06847e-05 0)
(0.032474 -8.19308e-06 0)
(0.0324483 -1.04669e-05 0)
(0.0324385 1.23465e-05 0)
(0.0330361 1.01282e-05 0)
(0.033048 -8.19265e-06 0)
(0.0330172 -1.02646e-05 0)
(0.0330086 1.20757e-05 0)
(0.0337062 1.01258e-05 0)
(0.033722 -7.85119e-06 0)
(0.0336877 -9.73056e-06 0)
(0.0336804 1.18293e-05 0)
(0.0344921 9.67132e-06 0)
(0.0345107 -7.89031e-06 0)
(0.0344734 -9.56013e-06 0)
(0.0344671 1.17482e-05 0)
(0.0354106 9.4509e-06 0)
(0.0354312 -7.5621e-06 0)
(0.0353921 -9.04822e-06 0)
(0.0353869 1.1118e-05 0)
(0.0364795 9.06862e-06 0)
(0.0365016 -7.5205e-06 0)
(0.0364607 -8.6937e-06 0)
(0.0364558 1.1131e-05 0)
(0.037719 8.87054e-06 0)
(0.0377422 -7.29454e-06 0)
(0.0377005 -8.24882e-06 0)
(0.0376958 1.04296e-05 0)
(0.0391506 8.40263e-06 0)
(0.0391743 -7.06796e-06 0)
(0.0391311 -7.8524e-06 0)
(0.0391262 1.04414e-05 0)
(0.0407971 8.2392e-06 0)
(0.0408212 -7.13775e-06 0)
(0.0407781 -7.45894e-06 0)
(0.0407728 9.67293e-06 0)
(0.0426833 7.661e-06 0)
(0.0427069 -6.47064e-06 0)
(0.0426627 -7.00436e-06 0)
(0.0426568 9.40516e-06 0)
(0.0448343 7.76689e-06 0)
(0.0448573 -7.00609e-06 0)
(0.0448143 -6.4357e-06 0)
(0.0448082 9.55133e-06 0)
(0.0472784 7.16352e-06 0)
(0.047299 -6.02114e-06 0)
(0.0472559 -6.03584e-06 0)
(0.0472504 9.02041e-06 0)
(0.0500415 6.91862e-06 0)
(0.0500589 -6.52685e-06 0)
(0.0500196 -5.67587e-06 0)
(0.0500174 7.8873e-06 0)
(0.0531788 7.00015e-06 0)
(0.0531967 -5.94432e-06 0)
(0.0531565 -5.48803e-06 0)
(0.0531554 9.47982e-06 0)
)
;

boundaryField
{
    topWall
    {
        type            calculated;
        value           nonuniform List<vector> 0();
    }
    botWall
    {
        type            calculated;
        value           nonuniform List<vector> 0();
    }
    inlet
    {
        type            cyclic;
    }
    outlet
    {
        type            cyclic;
    }
    fixWall
    {
        type            empty;
    }
    procBoundary3to2
    {
        type            processor;
        value           nonuniform List<vector> 8((0.0315543 5.79859e-06 0) (0.0315402 -9.26846e-06 0) (0.0315274 -3.99668e-09 0) (0.0315638 4.44954e-08 0) (0.0315814 1.0653e-05 0) (0.0315716 -8.76651e-06 0) (0.0315602 -1.1172e-05 0) (0.0315486 1.24114e-05 0));
    }
    procBoundary3to4
    {
        type            processor;
        value           nonuniform List<vector> 8((0.0592125 5.0018e-06 0) (0.0591722 -3.05721e-06 0) (0.0591344 -9.9398e-07 0) (0.0591722 -3.2111e-06 0) (0.0591651 6.41401e-06 0) (0.0591966 -6.18332e-06 0) (0.0591662 -5.12097e-06 0) (0.0591609 7.403e-06 0));
    }
}


// ************************************************************************* //
