/*--------------------------------*- C++ -*----------------------------------*\
  =========                 |
  \\      /  F ield         | OpenFOAM: The Open Source CFD Toolbox
   \\    /   O peration     | Website:  https://openfoam.org
    \\  /    A nd           | Version:  dev
     \\/     M anipulation  |

   OpenFOAM for Windows 20.09 (v1)
   Built by CFD Support, www.cfdsupport.com (based on Symscape).
\*---------------------------------------------------------------------------*/
FoamFile
{
    version     2.0;
    format      ascii;
    class       volSymmTensorField;
    location    "10";
    object      UPrime2Mean;
}
// * * * * * * * * * * * * * * * * * * * * * * * * * * * * * * * * * * * * * //

dimensions      [0 2 -2 0 0 0 0];

internalField   nonuniform List<symmTensor> 
120
(
(0.000221274 -1.28235e-07 0 2.80169e-10 0 0)
(0.000221669 1.7821e-07 0 2.4905e-10 0 0)
(0.000222482 1.09304e-07 0 1.54476e-10 0 0)
(0.000222631 -3.27947e-08 0 3.49833e-10 0 0)
(0.000231685 -1.33718e-07 0 2.86271e-10 0 0)
(0.000232128 1.77849e-07 0 2.37882e-10 0 0)
(0.000233139 1.08138e-07 0 1.44005e-10 0 0)
(0.000233247 -3.21977e-08 0 3.16127e-10 0 0)
(0.000243411 -1.36185e-07 0 2.90318e-10 0 0)
(0.000243876 1.73397e-07 0 2.15266e-10 0 0)
(0.000245072 1.05261e-07 0 1.38213e-10 0 0)
(0.000245132 -3.61069e-08 0 3.30876e-10 0 0)
(0.000256516 -1.40158e-07 0 2.81612e-10 0 0)
(0.000257039 1.72572e-07 0 2.01552e-10 0 0)
(0.000258389 1.03247e-07 0 1.2989e-10 0 0)
(0.000258387 -3.34924e-08 0 2.98014e-10 0 0)
(0.000271136 -1.41953e-07 0 2.84289e-10 0 0)
(0.000271689 1.66107e-07 0 1.80207e-10 0 0)
(0.000273179 1.00202e-07 0 1.19294e-10 0 0)
(0.000273113 -3.68513e-08 0 2.90839e-10 0 0)
(0.000287312 -1.49266e-07 0 2.82623e-10 0 0)
(0.000287928 1.64377e-07 0 1.6527e-10 0 0)
(0.000289533 9.6604e-08 0 1.1351e-10 0 0)
(0.000289404 -3.35543e-08 0 2.77236e-10 0 0)
(0.00030516 -1.49009e-07 0 2.81148e-10 0 0)
(0.000305814 1.57143e-07 0 1.43939e-10 0 0)
(0.000307528 9.39861e-08 0 1.04475e-10 0 0)
(0.000307333 -3.4829e-08 0 2.57941e-10 0 0)
(0.000324681 -1.59626e-07 0 2.83489e-10 0 0)
(0.000325418 1.54282e-07 0 1.32341e-10 0 0)
(0.000327218 8.93661e-08 0 9.6629e-11 0 0)
(0.00032697 -3.12751e-08 0 2.43653e-10 0 0)
(0.000345957 -1.57579e-07 0 2.80706e-10 0 0)
(0.000346753 1.44855e-07 0 1.12376e-10 0 0)
(0.000348649 8.69277e-08 0 8.81555e-11 0 0)
(0.000348352 -3.06703e-08 0 2.25327e-10 0 0)
(0.000368917 -1.7353e-07 0 2.91868e-10 0 0)
(0.000369842 1.41893e-07 0 1.05232e-10 0 0)
(0.000371813 8.13696e-08 0 8.09663e-11 0 0)
(0.000371501 -2.66953e-08 0 2.09791e-10 0 0)
(0.000393594 -1.67181e-07 0 2.82943e-10 0 0)
(0.000394623 1.29353e-07 0 9.10329e-11 0 0)
(0.000396707 7.86057e-08 0 6.77981e-11 0 0)
(0.000396389 -2.43033e-08 0 1.90683e-10 0 0)
(0.000419828 -1.93142e-07 0 3.1694e-10 0 0)
(0.000421053 1.23906e-07 0 7.41923e-11 0 0)
(0.000423241 7.10161e-08 0 7.25291e-11 0 0)
(0.000422983 -2.05184e-08 0 1.80258e-10 0 0)
(0.000447569 -1.81825e-07 0 2.90028e-10 0 0)
(0.000448947 1.05518e-07 0 6.18919e-11 0 0)
(0.000451339 6.58415e-08 0 5.79586e-11 0 0)
(0.000451173 -1.74891e-08 0 1.69332e-10 0 0)
(0.00047657 -2.16951e-07 0 3.72292e-10 0 0)
(0.000478169 9.77807e-08 0 6.89563e-11 0 0)
(0.000480777 5.62287e-08 0 4.57616e-11 0 0)
(0.000480824 -1.26768e-08 0 1.26412e-10 0 0)
(0.000508086 -2.22007e-07 0 4.06532e-10 0 0)
(0.00050961 6.76321e-08 0 4.12855e-11 0 0)
(0.000512492 4.95486e-08 0 5.15207e-11 0 0)
(0.000512791 -1.42806e-08 0 1.36421e-10 0 0)
(0.000222746 9.94157e-09 0 7.93932e-11 0 0)
(0.00022235 -9.21042e-08 0 9.64042e-11 0 0)
(0.000221613 6.08671e-08 0 2.63125e-10 0 0)
(0.000221506 -1.09773e-07 0 1.03297e-10 0 0)
(0.000233263 1.12101e-08 0 7.95407e-11 0 0)
(0.000232841 -8.95098e-08 0 9.90767e-11 0 0)
(0.000232151 6.63035e-08 0 2.7155e-10 0 0)
(0.000232069 -1.09994e-07 0 1.06675e-10 0 0)
(0.000245053 1.34478e-08 0 7.1386e-11 0 0)
(0.000244627 -8.47644e-08 0 9.78048e-11 0 0)
(0.000243947 7.12115e-08 0 2.69987e-10 0 0)
(0.000243892 -1.12345e-07 0 1.0191e-10 0 0)
(0.000258215 1.5801e-08 0 7.09748e-11 0 0)
(0.00025779 -8.49245e-08 0 9.80321e-11 0 0)
(0.000257122 7.49796e-08 0 2.71197e-10 0 0)
(0.000257078 -1.09951e-07 0 1.039e-10 0 0)
(0.000272853 1.95228e-08 0 6.56535e-11 0 0)
(0.000272443 -7.87223e-08 0 1.00735e-10 0 0)
(0.000271763 8.13561e-08 0 2.71995e-10 0 0)
(0.000271734 -1.13238e-07 0 1.04159e-10 0 0)
(0.000289056 2.15853e-08 0 6.16625e-11 0 0)
(0.000288656 -7.97799e-08 0 9.95875e-11 0 0)
(0.000287967 8.56995e-08 0 2.69042e-10 0 0)
(0.000287942 -1.1094e-07 0 9.99193e-11 0 0)
(0.000306901 2.659e-08 0 5.90812e-11 0 0)
(0.000306515 -7.42243e-08 0 1.02845e-10 0 0)
(0.000305805 9.14332e-08 0 2.69936e-10 0 0)
(0.000305788 -1.13145e-07 0 1.04941e-10 0 0)
(0.000326449 2.89486e-08 0 5.53188e-11 0 0)
(0.000326055 -7.44442e-08 0 1.04395e-10 0 0)
(0.000325331 9.7212e-08 0 2.66134e-10 0 0)
(0.000325312 -1.10765e-07 0 1.0094e-10 0 0)
(0.000347742 3.56678e-08 0 5.43294e-11 0 0)
(0.000347331 -6.98599e-08 0 1.04308e-10 0 0)
(0.00034659 1.03363e-07 0 2.66655e-10 0 0)
(0.000346564 -1.14366e-07 0 1.06407e-10 0 0)
(0.000370795 3.87235e-08 0 5.12067e-11 0 0)
(0.000370321 -6.72611e-08 0 1.13003e-10 0 0)
(0.000369565 1.10765e-07 0 2.63187e-10 0 0)
(0.000369512 -1.10929e-07 0 1.03385e-10 0 0)
(0.000395603 4.64583e-08 0 5.10936e-11 0 0)
(0.000395043 -6.65166e-08 0 1.032e-10 0 0)
(0.000394267 1.15194e-07 0 2.53828e-10 0 0)
(0.00039417 -1.16474e-07 0 1.01024e-10 0 0)
(0.000422122 5.27933e-08 0 5.35331e-11 0 0)
(0.000421402 -5.68917e-08 0 1.25512e-10 0 0)
(0.000420592 1.27875e-07 0 2.69877e-10 0 0)
(0.000420406 -1.09899e-07 0 1.24845e-10 0 0)
(0.000450309 6.25609e-08 0 5.68179e-11 0 0)
(0.000449382 -5.62517e-08 0 1.06386e-10 0 0)
(0.000448526 1.34049e-07 0 2.59492e-10 0 0)
(0.000448191 -1.15629e-07 0 1.15353e-10 0 0)
(0.000480015 6.9206e-08 0 5.5183e-11 0 0)
(0.000478812 -4.79171e-08 0 1.30358e-10 0 0)
(0.000477839 1.37347e-07 0 2.32705e-10 0 0)
(0.000477208 -1.13605e-07 0 1.00066e-10 0 0)
(0.000512123 8.36126e-08 0 7.15849e-11 0 0)
(0.000510676 -4.5863e-08 0 1.16965e-10 0 0)
(0.000509822 1.53068e-07 0 2.53604e-10 0 0)
(0.00050895 -1.23616e-07 0 1.35974e-10 0 0)
)
;

boundaryField
{
    topWall
    {
        type            calculated;
        value           nonuniform List<symmTensor> 0();
    }
    botWall
    {
        type            calculated;
        value           nonuniform List<symmTensor> 0();
    }
    inlet
    {
        type            cyclic;
    }
    outlet
    {
        type            cyclic;
    }
    fixWall
    {
        type            empty;
    }
    procBoundary3to2
    {
        type            processor;
        value           nonuniform List<symmTensor> 8((0.000212042 -1.26661e-07 0 2.82266e-10 0 0) (0.000212435 1.79529e-07 0 2.66827e-10 0 0) (0.000213025 1.09929e-07 0 1.56295e-10 0 0) (0.000213197 -3.12389e-08 0 3.51767e-10 0 0) (0.00021337 9.10873e-09 0 8.24714e-11 0 0) (0.000213026 -9.32575e-08 0 9.75093e-11 0 0) (0.000212266 5.80029e-08 0 2.59818e-10 0 0) (0.000212084 -1.10587e-07 0 1.02121e-10 0 0));
    }
    procBoundary3to4
    {
        type            processor;
        value           nonuniform List<symmTensor> 8((0.00056645 -2.23104e-07 0 3.51972e-10 0 0) (0.000566721 8.09793e-08 0 5.6438e-11 0 0) (0.000569577 4.7447e-08 0 3.91116e-11 0 0) (0.000570174 -1.21042e-08 0 1.15327e-10 0 0) (0.000569872 8.33629e-08 0 6.18747e-11 0 0) (0.000569115 -4.54182e-08 0 1.26528e-10 0 0) (0.000568683 1.57536e-07 0 2.29233e-10 0 0) (0.000567549 -1.1792e-07 0 1.038e-10 0 0));
    }
}


// ************************************************************************* //
