/*--------------------------------*- C++ -*----------------------------------*\
  =========                 |
  \\      /  F ield         | OpenFOAM: The Open Source CFD Toolbox
   \\    /   O peration     | Website:  https://openfoam.org
    \\  /    A nd           | Version:  dev
     \\/     M anipulation  |

   OpenFOAM for Windows 20.09 (v1)
   Built by CFD Support, www.cfdsupport.com (based on Symscape).
\*---------------------------------------------------------------------------*/
FoamFile
{
    version     2.0;
    format      ascii;
    class       surfaceScalarField;
    location    "2";
    object      alphaPhi0.water;
}
// * * * * * * * * * * * * * * * * * * * * * * * * * * * * * * * * * * * * * //

dimensions      [0 3 -1 0 0 0 0];

internalField   nonuniform List<scalar> 
217
(
1.26214e-09
2.43013e-12
1.27585e-09
-1.38212e-11
1.2737e-09
2.1575e-12
6.28124e-12
1.26743e-09
3.44634e-09
-2.75373e-12
3.46711e-09
-3.46056e-11
3.46266e-09
6.62279e-12
2.24717e-11
3.44648e-09
5.30003e-09
-8.43905e-12
5.328e-09
-6.25746e-11
5.3209e-09
1.37392e-11
4.60521e-11
5.29732e-09
6.86232e-09
-1.58497e-11
6.89433e-09
-9.45684e-11
6.88465e-09
2.34289e-11
7.45846e-11
6.85611e-09
8.16607e-09
-2.46362e-11
8.20037e-09
-1.28855e-10
8.18878e-09
3.50281e-11
1.06485e-10
8.15687e-09
9.24389e-09
-3.40713e-11
9.2791e-09
-1.64059e-10
9.2662e-09
4.79283e-11
1.40392e-10
9.23229e-09
1.01261e-08
-4.39277e-11
1.01616e-08
-1.99601e-10
1.01478e-08
6.17438e-11
1.75439e-10
1.01128e-08
1.0841e-08
-5.40007e-11
1.08765e-08
-2.3512e-10
1.08621e-08
7.613e-11
2.11016e-10
1.08265e-08
1.14143e-08
-6.42277e-11
1.14497e-08
-2.70523e-10
1.1435e-08
9.07733e-11
2.4681e-10
1.13993e-08
1.18693e-08
-7.49232e-11
1.19047e-08
-3.05883e-10
1.18899e-08
1.05514e-10
2.82363e-10
1.18544e-08
1.22264e-08
-8.56551e-11
1.22616e-08
-3.41136e-10
1.22472e-08
1.19916e-10
3.17445e-10
1.22121e-08
1.25035e-08
-9.71264e-11
1.25385e-08
-3.7617e-10
1.25249e-08
1.33512e-10
3.51173e-10
1.24912e-08
1.27162e-08
-1.08649e-10
1.27505e-08
-4.10397e-10
1.27383e-08
1.45692e-10
3.82845e-10
1.27066e-08
1.28772e-08
-1.20993e-10
1.2911e-08
-4.44173e-10
1.29009e-08
1.55778e-10
4.12195e-10
1.28715e-08
1.29992e-08
1.30295e-08
1.30226e-08
1.29969e-08
1.26584e-09
1.59183e-12
1.26447e-09
1.34854e-12
1.27562e-09
-1.11514e-11
1.2247e-11
3.44306e-09
5.01351e-12
3.44473e-09
-3.27311e-13
3.46389e-09
-3.03152e-11
3.49719e-11
5.29326e-09
9.0767e-12
5.29921e-09
-6.25682e-12
5.32024e-09
-5.13547e-11
6.08971e-11
6.8518e-09
1.33902e-11
6.86064e-09
-1.50747e-11
6.88274e-09
-7.34651e-11
8.87848e-11
8.1525e-09
1.77607e-11
8.16335e-09
-2.59018e-11
8.18583e-09
-9.59543e-11
1.17375e-10
9.2278e-09
2.22462e-11
9.23992e-09
-3.8008e-11
9.26301e-09
-1.19048e-10
1.45958e-10
1.01082e-08
2.68266e-11
1.0121e-08
-5.07843e-11
1.01445e-08
-1.42534e-10
1.7417e-10
1.08219e-08
3.14715e-11
1.08348e-08
-6.369e-11
1.08586e-08
-1.66308e-10
2.0178e-10
1.13948e-08
3.59262e-11
1.14074e-08
-7.63453e-11
1.14312e-08
-1.90055e-10
2.28844e-10
1.18499e-08
4.04247e-11
1.18616e-08
-8.81194e-11
1.1885e-08
-2.13416e-10
2.55142e-10
1.22078e-08
4.4725e-11
1.2219e-08
-9.93126e-11
1.22412e-08
-2.35654e-10
2.80679e-10
1.24867e-08
4.92317e-11
1.24958e-08
-1.08427e-10
1.25167e-08
-2.56573e-10
3.05298e-10
1.27022e-08
5.36611e-11
1.27093e-08
-1.15529e-10
1.27285e-08
-2.75807e-10
3.29036e-10
1.2867e-08
5.82447e-11
1.28706e-08
-1.19206e-10
1.28868e-08
-2.91916e-10
3.50901e-10
1.29931e-08
1.29932e-08
1.30058e-08
)
;

boundaryField
{
    topWall
    {
        type            calculated;
        value           nonuniform List<scalar> 0();
    }
    botWall
    {
        type            calculated;
        value           uniform 0;
    }
    inlet
    {
        type            cyclic;
        value           nonuniform List<scalar> 
15
(
-1.29858e-08
-1.28649e-08
-1.27047e-08
-1.2492e-08
-1.22156e-08
-1.18586e-08
-1.14041e-08
-1.08309e-08
-1.01162e-08
-9.23445e-09
-8.15729e-09
-6.85491e-09
-5.29436e-09
-3.44117e-09
-1.26334e-09
)
;
    }
    outlet
    {
        type            cyclic;
        value           nonuniform List<scalar> 
15
(
1.29858e-08
1.28649e-08
1.27047e-08
1.2492e-08
1.22156e-08
1.18586e-08
1.14041e-08
1.08309e-08
1.01162e-08
9.23445e-09
8.15729e-09
6.85491e-09
5.29436e-09
3.44117e-09
1.26334e-09
)
;
    }
    fixWall
    {
        type            empty;
        value           nonuniform List<scalar> 0();
    }
    procBoundary0to1
    {
        type            processor;
        value           nonuniform List<scalar> 8(-1.34826e-10 -4.75301e-10 1.62265e-10 4.39086e-10 5.98587e-11 -1.20811e-10 -3.04896e-10 3.70834e-10);
    }
}


// ************************************************************************* //
