/*--------------------------------*- C++ -*----------------------------------*\
  =========                 |
  \\      /  F ield         | OpenFOAM: The Open Source CFD Toolbox
   \\    /   O peration     | Website:  https://openfoam.org
    \\  /    A nd           | Version:  dev
     \\/     M anipulation  |

   OpenFOAM for Windows 20.09 (v1)
   Built by CFD Support, www.cfdsupport.com (based on Symscape).
\*---------------------------------------------------------------------------*/
FoamFile
{
    version     2.0;
    format      ascii;
    class       volSymmTensorField;
    location    "2";
    object      devReff;
}
// * * * * * * * * * * * * * * * * * * * * * * * * * * * * * * * * * * * * * //

dimensions      [0 2 -2 0 0 0 0];

internalField   nonuniform List<symmTensor> 
120
(
(1.0131e-07 -0.000652662 -0 -1.81062e-07 -0 7.97516e-08)
(-7.98181e-08 -0.000657049 -0 9.22035e-08 -0 -1.23854e-08)
(-2.20715e-09 -0.000659608 -0 -2.29297e-09 -0 4.50012e-09)
(3.85288e-08 -0.000656585 -0 -3.71996e-08 -0 -1.32913e-09)
(-3.91524e-08 -0.000560776 -0 7.77851e-08 -0 -3.86327e-08)
(-1.66982e-07 -0.000564518 -0 1.69883e-07 -0 -2.90069e-09)
(2.26091e-08 -0.00056583 -0 -2.29823e-08 -0 3.73276e-10)
(1.14844e-07 -0.000562881 -0 -1.10733e-07 -0 -4.11122e-09)
(-3.31974e-08 -0.000476591 -0 4.82499e-08 -0 -1.50525e-08)
(-2.35397e-07 -0.00047915 -0 2.34971e-07 -0 4.25843e-10)
(4.81259e-08 -0.000480231 -0 -4.84081e-08 -0 2.82179e-10)
(1.834e-07 -0.000477765 -0 -1.79798e-07 -0 -3.60144e-09)
(-6.43967e-08 -0.00040164 -0 9.73091e-08 -0 -3.29124e-08)
(-2.83061e-07 -0.000403263 -0 2.80884e-07 -0 2.17709e-09)
(6.85381e-08 -0.000403963 -0 -6.86211e-08 -0 8.29785e-11)
(2.35214e-07 -0.00040215 -0 -2.31175e-07 -0 -4.0394e-09)
(-6.71778e-08 -0.000335503 -0 9.3141e-08 -0 -2.59632e-08)
(-3.14368e-07 -0.00033647 -0 3.15782e-07 -0 -1.41448e-09)
(8.51522e-08 -0.00033681 -0 -8.53749e-08 -0 2.22678e-10)
(2.72684e-07 -0.000335593 -0 -2.70747e-07 -0 -1.93708e-09)
(-4.68549e-08 -0.000277634 -0 4.35012e-08 -0 3.35366e-09)
(-3.26272e-07 -0.000278192 -0 3.2418e-07 -0 2.09167e-09)
(9.7934e-08 -0.000278311 -0 -9.81493e-08 -0 2.15273e-10)
(2.93376e-07 -0.000277544 -0 -2.8868e-07 -0 -4.69637e-09)
(-6.24814e-08 -0.000227561 -0 6.84329e-08 -0 -5.95153e-09)
(-3.36042e-07 -0.000227841 -0 3.37176e-07 -0 -1.13452e-09)
(1.06888e-07 -0.000227847 -0 -1.07304e-07 -0 4.15919e-10)
(3.09975e-07 -0.000227409 -0 -3.08201e-07 -0 -1.77453e-09)
(-8.13531e-08 -0.00018468 -0 1.01164e-07 -0 -1.9811e-08)
(-3.34525e-07 -0.000184805 -0 3.31925e-07 -0 2.6001e-09)
(1.12024e-07 -0.000184774 -0 -1.11911e-07 -0 -1.13097e-10)
(3.1376e-07 -0.000184563 -0 -3.08668e-07 -0 -5.09255e-09)
(-5.91981e-08 -0.000148409 -0 5.24053e-08 -0 6.79275e-09)
(-3.3684e-07 -0.000148406 -0 3.366e-07 -0 2.4005e-10)
(1.14903e-07 -0.000148378 -0 -1.15378e-07 -0 4.7542e-10)
(3.18844e-07 -0.000148351 -0 -3.17027e-07 -0 -1.81684e-09)
(-9.69551e-08 -0.000118029 -0 1.24822e-07 -0 -2.78674e-08)
(-3.33125e-07 -0.000117959 -0 3.31256e-07 -0 1.869e-09)
(1.14056e-07 -0.000117971 -0 -1.14191e-07 -0 1.35312e-10)
(3.1507e-07 -0.000118116 -0 -3.11506e-07 -0 -3.56431e-09)
(-6.78738e-08 -9.29569e-05 -0 6.10904e-08 -0 6.78343e-09)
(-3.30172e-07 -9.27309e-05 -0 3.26525e-07 -0 3.6471e-09)
(1.08688e-07 -9.27621e-05 -0 -1.08315e-07 -0 -3.72724e-10)
(3.08178e-07 -9.3157e-05 -0 -3.03816e-07 -0 -4.36155e-09)
(-9.94044e-08 -7.2406e-05 -0 1.21971e-07 -0 -2.25666e-08)
(-3.27061e-07 -7.21024e-05 -0 3.2707e-07 -0 -9.07231e-12)
(1.01188e-07 -7.22317e-05 -0 -1.02786e-07 -0 1.59773e-09)
(2.9744e-07 -7.28074e-05 -0 -2.95298e-07 -0 -2.14151e-09)
(-8.51969e-08 -5.58328e-05 -0 8.48278e-08 -0 3.69065e-10)
(-3.1637e-07 -5.53532e-05 -0 3.0637e-07 -0 1.00005e-08)
(8.52513e-08 -5.56125e-05 -0 -8.5103e-08 -0 -1.48369e-10)
(2.8175e-07 -5.63466e-05 -0 -2.75639e-07 -0 -6.11116e-09)
(-1.00489e-07 -4.24816e-05 -0 1.14145e-07 -0 -1.36564e-08)
(-3.32051e-07 -4.19732e-05 -0 3.46163e-07 -0 -1.41125e-08)
(6.68829e-08 -4.25454e-05 -0 -6.74768e-08 -0 5.93843e-10)
(2.69288e-07 -4.32083e-05 -0 -2.67627e-07 -0 -1.66095e-09)
(-1.04856e-07 -3.18998e-05 -0 1.1053e-07 -0 -5.67377e-09)
(-3.19065e-07 -3.10216e-05 -0 3.11575e-07 -0 7.48985e-09)
(4.53956e-08 -3.18142e-05 -0 -4.6756e-08 -0 1.36037e-09)
(2.60521e-07 -3.27019e-05 -0 -2.50974e-07 -0 -9.54759e-09)
(5.04035e-08 -0.000654843 -0 -5.18454e-08 -0 1.44193e-09)
(1.03815e-08 -0.000651955 -0 -2.94418e-08 -0 1.90604e-08)
(-9.48225e-08 -0.000656142 -0 1.25832e-07 -0 -3.10099e-08)
(4.98709e-08 -0.000657685 -0 -6.34881e-08 -0 1.36172e-08)
(1.00018e-07 -0.000561414 -0 -9.46512e-08 -0 -5.36638e-09)
(-1.25578e-08 -0.000560374 -0 -9.49781e-09 -0 2.20556e-08)
(-1.62937e-07 -0.000563082 -0 1.98775e-07 -0 -3.58373e-08)
(1.04443e-07 -0.000563327 -0 -1.29147e-07 -0 2.47039e-08)
(1.31096e-07 -0.000476619 -0 -1.29716e-07 -0 -1.38009e-09)
(-3.77206e-08 -0.000476629 -0 1.11915e-08 -0 2.6529e-08)
(-2.01264e-07 -0.000478338 -0 2.40353e-07 -0 -3.9089e-08)
(1.40003e-07 -0.000478226 -0 -1.66934e-07 -0 2.69315e-08)
(1.37465e-07 -0.000401329 -0 -1.31789e-07 -0 -5.67573e-09)
(-6.65052e-08 -0.000401704 -0 4.11432e-08 -0 2.5362e-08)
(-2.22569e-07 -0.000402765 -0 2.65027e-07 -0 -4.2458e-08)
(1.67948e-07 -0.000402572 -0 -1.98046e-07 -0 3.00973e-08)
(1.48222e-07 -0.000335037 -0 -1.4927e-07 -0 1.0478e-09)
(-8.6251e-08 -0.000335419 -0 6.04835e-08 -0 2.57675e-08)
(-2.31014e-07 -0.000336051 -0 2.71138e-07 -0 -4.01241e-08)
(1.77791e-07 -0.000335914 -0 -2.05233e-07 -0 2.74413e-08)
(1.41562e-07 -0.000277184 -0 -1.34428e-07 -0 -7.13324e-09)
(-1.00188e-07 -0.000277455 -0 7.48765e-08 -0 2.53119e-08)
(-2.38138e-07 -0.0002778 -0 2.80071e-07 -0 -4.19328e-08)
(1.85672e-07 -0.000277734 -0 -2.15553e-07 -0 2.98806e-08)
(1.52619e-07 -0.000227207 -0 -1.55426e-07 -0 2.80676e-09)
(-1.06953e-07 -0.00022736 -0 8.16145e-08 -0 2.53387e-08)
(-2.3973e-07 -0.000227506 -0 2.79706e-07 -0 -3.99752e-08)
(1.83708e-07 -0.000227507 -0 -2.11967e-07 -0 2.82589e-08)
(1.41888e-07 -0.000184485 -0 -1.33855e-07 -0 -8.03319e-09)
(-1.09182e-07 -0.000184527 -0 8.32638e-08 -0 2.59181e-08)
(-2.42732e-07 -0.000184481 -0 2.84949e-07 -0 -4.22162e-08)
(1.82982e-07 -0.000184522 -0 -2.12592e-07 -0 2.96096e-08)
(1.52699e-07 -0.00014836 -0 -1.54849e-07 -0 2.14979e-09)
(-1.06427e-07 -0.00014835 -0 8.11428e-08 -0 2.52841e-08)
(-2.39552e-07 -0.000148148 -0 2.80118e-07 -0 -4.05662e-08)
(1.7849e-07 -0.000148186 -0 -2.0885e-07 -0 3.03601e-08)
(1.45181e-07 -0.000118184 -0 -1.40947e-07 -0 -4.23371e-09)
(-1.00164e-07 -0.000118102 -0 7.2821e-08 -0 2.73429e-08)
(-2.35799e-07 -0.000117695 -0 2.77351e-07 -0 -4.15517e-08)
(1.70621e-07 -0.000117701 -0 -1.97376e-07 -0 2.67549e-08)
(1.45985e-07 -9.33002e-05 -0 -1.41574e-07 -0 -4.41143e-09)
(-9.07803e-08 -9.31361e-05 -0 6.68012e-08 -0 2.39792e-08)
(-2.27667e-07 -9.25101e-05 -0 2.70534e-07 -0 -4.28671e-08)
(1.707e-07 -9.25038e-05 -0 -2.05362e-07 -0 3.46613e-08)
(1.46455e-07 -7.29338e-05 -0 -1.43451e-07 -0 -3.0048e-09)
(-7.78432e-08 -7.27541e-05 -0 5.52328e-08 -0 2.26104e-08)
(-2.08378e-07 -7.18717e-05 -0 2.44543e-07 -0 -3.61647e-08)
(1.53947e-07 -7.17782e-05 -0 -1.79971e-07 -0 2.60233e-08)
(1.46468e-07 -5.64301e-05 -0 -1.41529e-07 -0 -4.93885e-09)
(-4.89548e-08 -5.63692e-05 -0 1.93578e-08 -0 2.9597e-08)
(-1.98537e-07 -5.52516e-05 -0 2.45833e-07 -0 -4.72963e-08)
(1.53223e-07 -5.50578e-05 -0 -1.89385e-07 -0 3.61621e-08)
(1.60812e-07 -4.3034e-05 -0 -1.73695e-07 -0 1.28831e-08)
(-3.9166e-08 -4.3382e-05 -0 1.8037e-08 -0 2.1129e-08)
(-1.62549e-07 -4.20699e-05 -0 1.97713e-07 -0 -3.51641e-08)
(1.3596e-07 -4.1568e-05 -0 -1.64635e-07 -0 2.86753e-08)
(1.35056e-07 -3.26505e-05 -0 -1.25397e-07 -0 -9.65892e-09)
(-2.43567e-08 -3.32369e-05 -0 3.23551e-09 -0 2.11212e-08)
(-1.23854e-07 -3.14023e-05 -0 1.58141e-07 -0 -3.42867e-08)
(1.24819e-07 -3.08078e-05 -0 -1.47674e-07 -0 2.28548e-08)
)
;

boundaryField
{
    topWall
    {
        type            calculated;
        value           nonuniform List<symmTensor> 0();
    }
    botWall
    {
        type            calculated;
        value           nonuniform List<symmTensor> 8((4.4375e-07 -0.000700146 -0 -8.65941e-07 -0 4.22192e-07) (-5.69228e-08 -0.000704509 -0 4.6413e-08 -0 1.05099e-08) (-4.81254e-09 -0.000708239 -0 2.91781e-09 -0 1.89473e-09) (2.44809e-08 -0.000705317 -0 -9.10392e-09 -0 -1.5377e-08) (4.02446e-08 -0.000703456 -0 -3.15276e-08 -0 -8.71698e-09) (1.35227e-08 -0.000699441 -0 -3.57242e-08 -0 2.22016e-08) (-8.46947e-08 -0.000704497 -0 1.05577e-07 -0 -2.0882e-08) (4.29153e-08 -0.000707102 -0 -4.95769e-08 -0 6.66159e-09));
    }
    inlet
    {
        type            cyclic;
    }
    outlet
    {
        type            cyclic;
    }
    fixWall
    {
        type            empty;
    }
    procBoundary0to1
    {
        type            processor;
        value           nonuniform List<symmTensor> 8((-1.03568e-07 -2.36325e-05 -0 1.13054e-07 -0 -9.48627e-09) (-3.17564e-07 -2.26021e-05 -0 3.22143e-07 -0 -4.5791e-09) (7.19227e-09 -2.34122e-05 -0 -4.31442e-09 -0 -2.87785e-09) (2.47283e-07 -2.45185e-05 -0 -2.5312e-07 -0 5.83677e-09) (1.47904e-07 -2.46044e-05 -0 -1.66642e-07 -0 1.87373e-08) (5.81882e-09 -2.51322e-05 -0 -2.93268e-08 -0 2.3508e-08) (-7.62499e-08 -2.34004e-05 -0 1.07344e-07 -0 -3.1094e-08) (1.08169e-07 -2.27978e-05 -0 -1.27111e-07 -0 1.89414e-08));
    }
}


// ************************************************************************* //
