/*--------------------------------*- C++ -*----------------------------------*\
  =========                 |
  \\      /  F ield         | OpenFOAM: The Open Source CFD Toolbox
   \\    /   O peration     | Website:  https://openfoam.org
    \\  /    A nd           | Version:  dev
     \\/     M anipulation  |

   OpenFOAM for Windows 20.09 (v1)
   Built by CFD Support, www.cfdsupport.com (based on Symscape).
\*---------------------------------------------------------------------------*/
FoamFile
{
    version     2.0;
    format      ascii;
    class       volScalarField;
    location    "2";
    object      epsilon;
}
// * * * * * * * * * * * * * * * * * * * * * * * * * * * * * * * * * * * * * //

dimensions      [0 2 -3 0 0 0 0];

internalField   nonuniform List<scalar> 
120
(
1.73748e-12
1.73748e-12
1.73748e-12
1.73748e-12
2.997e-13
2.99699e-13
2.99699e-13
2.99699e-13
1.02038e-13
1.02037e-13
1.02037e-13
1.02037e-13
4.79752e-14
4.79739e-14
4.79743e-14
4.79744e-14
2.70651e-14
2.70643e-14
2.70646e-14
2.70647e-14
1.72085e-14
1.7208e-14
1.72083e-14
1.72084e-14
1.18546e-14
1.18543e-14
1.18545e-14
1.18546e-14
8.64373e-15
8.64355e-15
8.64377e-15
8.64386e-15
6.5742e-15
6.57407e-15
6.57429e-15
6.57438e-15
5.16538e-15
5.16527e-15
5.16548e-15
5.16558e-15
4.16438e-15
4.16429e-15
4.16449e-15
4.16458e-15
3.42828e-15
3.4282e-15
3.42839e-15
3.42849e-15
2.87157e-15
2.8715e-15
2.87168e-15
2.87177e-15
2.44062e-15
2.44056e-15
2.44073e-15
2.44082e-15
2.10047e-15
2.10043e-15
2.10058e-15
2.10067e-15
1.73748e-12
1.73748e-12
1.73748e-12
1.73748e-12
2.99699e-13
2.99699e-13
2.99699e-13
2.99699e-13
1.02037e-13
1.02037e-13
1.02037e-13
1.02037e-13
4.79744e-14
4.79745e-14
4.7974e-14
4.7974e-14
2.70647e-14
2.70647e-14
2.70643e-14
2.70644e-14
1.72083e-14
1.72083e-14
1.7208e-14
1.72082e-14
1.18546e-14
1.18545e-14
1.18543e-14
1.18545e-14
8.6438e-15
8.64372e-15
8.64354e-15
8.64382e-15
6.5743e-15
6.57422e-15
6.57407e-15
6.57436e-15
5.16548e-15
5.16541e-15
5.16528e-15
5.16556e-15
4.16448e-15
4.16441e-15
4.1643e-15
4.16457e-15
3.42838e-15
3.42831e-15
3.42822e-15
3.42847e-15
2.87166e-15
2.87159e-15
2.87152e-15
2.87175e-15
2.4407e-15
2.44064e-15
2.44059e-15
2.44079e-15
2.10055e-15
2.10049e-15
2.10046e-15
2.10064e-15
)
;

boundaryField
{
    topWall
    {
        type            epsilonWallFunction;
        value           nonuniform List<scalar> 0();
    }
    botWall
    {
        type            epsilonWallFunction;
        value           nonuniform List<scalar> 8(1.73748e-12 1.73748e-12 1.73748e-12 1.73748e-12 1.73748e-12 1.73748e-12 1.73748e-12 1.73748e-12);
    }
    inlet
    {
        type            cyclic;
    }
    outlet
    {
        type            cyclic;
    }
    fixWall
    {
        type            empty;
    }
    procBoundary0to1
    {
        type            processor;
        value           nonuniform List<scalar> 8(1.82737e-15 1.82734e-15 1.82748e-15 1.82756e-15 1.82745e-15 1.8274e-15 1.82737e-15 1.82753e-15);
    }
}


// ************************************************************************* //
