/*--------------------------------*- C++ -*----------------------------------*\
  =========                 |
  \\      /  F ield         | OpenFOAM: The Open Source CFD Toolbox
   \\    /   O peration     | Website:  https://openfoam.org
    \\  /    A nd           | Version:  dev
     \\/     M anipulation  |

   OpenFOAM for Windows 20.09 (v1)
   Built by CFD Support, www.cfdsupport.com (based on Symscape).
\*---------------------------------------------------------------------------*/
FoamFile
{
    version     2.0;
    format      ascii;
    class       volVectorField;
    location    "2";
    object      gradp_rgh;
}
// * * * * * * * * * * * * * * * * * * * * * * * * * * * * * * * * * * * * * //

dimensions      [1 -2 -2 0 0 0 0];

internalField   nonuniform List<vector> 
120
(
(-1.24183 -1.65325 0)
(-1.27281 -0.0958668 0)
(-1.25125 -0.00643068 0)
(-1.25849 -0.0203996 0)
(-1.24342 -1.65791 0)
(-1.24537 -0.0955613 0)
(-1.24999 -0.00627276 0)
(-1.25846 -0.0180444 0)
(-1.24333 0.0069266 0)
(-1.24529 0.00148142 0)
(-1.24995 0.000248407 0)
(-1.25846 -0.00190064 0)
(-1.24333 0.0329274 0)
(-1.24548 0.00227065 0)
(-1.25004 0.000108612 0)
(-1.25846 -0.0104128 0)
(-1.24336 0.0415685 0)
(-1.24583 -0.000904745 0)
(-1.25017 -4.48339e-05 0)
(-1.25847 -0.00586804 0)
(-1.24334 0.0398929 0)
(-1.24617 -0.000521074 0)
(-1.25013 -0.000157902 0)
(-1.25848 0.000568854 0)
(-1.24334 0.0391475 0)
(-1.2465 0.00347871 0)
(-1.25015 -0.000181509 0)
(-1.25849 0.00062051 0)
(-1.24332 0.0377124 0)
(-1.24683 0.00286288 0)
(-1.25017 -0.000175172 0)
(-1.25851 0.000684643 0)
(-1.24333 0.0365236 0)
(-1.24713 0.00370951 0)
(-1.25018 -0.000171315 0)
(-1.25852 0.000804557 0)
(-1.24331 0.035676 0)
(-1.24744 0.0052093 0)
(-1.25022 0.00179733 0)
(-1.25855 0.00536913 0)
(-1.24334 0.0359147 0)
(-1.2477 0.00513119 0)
(-1.25018 0.00640419 0)
(-1.2586 0.00683859 0)
(-1.24337 0.0346302 0)
(-1.24793 0.00547156 0)
(-1.25019 0.0164223 0)
(-1.2587 0.0336383 0)
(-1.2435 0.0321931 0)
(-1.248 0.00559117 0)
(-1.24971 0.0287044 0)
(-1.25893 0.0624491 0)
(-1.24365 0.384073 0)
(-1.24799 0.132503 0)
(-1.24925 0.774103 0)
(-1.25925 0.930612 0)
(-1.24157 -0.109302 0)
(-1.2415 0.10823 0)
(-1.23641 0.366851 0)
(-1.2557 0.174651 0)
(-1.25766 -0.00484765 0)
(-1.22105 -0.0108909 0)
(-1.24927 -0.0157587 0)
(-1.24765 -0.000402726 0)
(-1.2575 -0.00475451 0)
(-1.22123 -0.0108728 0)
(-1.24909 -0.00350338 0)
(-1.27495 -0.00519704 0)
(-1.25754 7.25223e-05 0)
(-1.22102 5.27107e-05 0)
(-1.24917 0.00471832 0)
(-1.27523 -0.00400648 0)
(-1.25747 -0.000274453 0)
(-1.22115 4.92147e-05 0)
(-1.24916 -0.00717144 0)
(-1.27491 0.00401183 0)
(-1.25736 -0.000746852 0)
(-1.22114 2.26908e-05 0)
(-1.24911 0.00103228 0)
(-1.27456 -2.67808e-05 0)
(-1.25737 -0.00142993 0)
(-1.22112 6.23957e-05 0)
(-1.24916 0.00150778 0)
(-1.27423 -0.00212009 0)
(-1.25737 -0.00192771 0)
(-1.22109 0.000141662 0)
(-1.24914 0.00189473 0)
(-1.27392 0.00244339 0)
(-1.25738 -0.00175994 0)
(-1.22106 0.00151391 0)
(-1.24912 0.00227056 0)
(-1.27361 0.00280305 0)
(-1.25736 -0.00256976 0)
(-1.22102 0.000705339 0)
(-1.24912 0.00266521 0)
(-1.27333 0.00313645 0)
(-1.25738 -0.00320785 0)
(-1.22097 -0.00089995 0)
(-1.24908 0.00351434 0)
(-1.27305 0.00572044 0)
(-1.25746 -0.00312653 0)
(-1.22091 -0.000288877 0)
(-1.24901 0.00425194 0)
(-1.27279 0.00856923 0)
(-1.2575 -0.00365989 0)
(-1.22085 -0.000360607 0)
(-1.24894 0.0096432 0)
(-1.27252 0.0150135 0)
(-1.25803 -0.00391229 0)
(-1.22069 -0.00047942 0)
(-1.24876 0.0058063 0)
(-1.27238 0.022224 0)
(-1.25855 0.96833 0)
(-1.22068 0.488902 0)
(-1.24856 0.00741614 0)
(-1.27208 0.0164115 0)
(-1.26539 0.597204 0)
(-1.2367 0.448071 0)
(-1.25663 0.328239 0)
(-1.2661 0.254751 0)
)
;

boundaryField
{
    topWall
    {
        type            extrapolatedCalculated;
        value           nonuniform List<vector> 0();
    }
    botWall
    {
        type            extrapolatedCalculated;
        value           nonuniform List<vector> 8((-1.24183 0 0) (-1.27281 0 0) (-1.25125 0 0) (-1.25849 0 0) (-1.25766 0 0) (-1.22105 0 0) (-1.24927 0 0) (-1.24765 0 0));
    }
    inlet
    {
        type            cyclic;
    }
    outlet
    {
        type            cyclic;
    }
    fixWall
    {
        type            empty;
    }
    procBoundary0to1
    {
        type            processor;
        value           nonuniform List<vector> 8((-1.24609 -0.604952 0) (-1.24005 -0.021199 0) (-1.24814 -0.386283 0) (-1.25541 -0.722972 0) (-1.25399 -0.386054 0) (-1.22517 -0.050187 0) (-1.25178 -0.536683 0) (-1.27937 -0.164183 0));
    }
}


// ************************************************************************* //
