/*--------------------------------*- C++ -*----------------------------------*\
  =========                 |
  \\      /  F ield         | OpenFOAM: The Open Source CFD Toolbox
   \\    /   O peration     | Website:  https://openfoam.org
    \\  /    A nd           | Version:  dev
     \\/     M anipulation  |

   OpenFOAM for Windows 20.09 (v1)
   Built by CFD Support, www.cfdsupport.com (based on Symscape).
\*---------------------------------------------------------------------------*/
FoamFile
{
    version     2.0;
    format      ascii;
    class       volTensorField;
    location    "2";
    object      gradU;
}
// * * * * * * * * * * * * * * * * * * * * * * * * * * * * * * * * * * * * * //

dimensions      [0 0 -1 0 0 0 0];

internalField   nonuniform List<tensor> 
120
(
(-5.71296e-05 -1.0174e-06 0 3.45911 0.000691155 0 0 0 0)
(0.000178697 -1.42344e-05 0 3.48237 -0.000277161 0 0 0 0)
(1.77743e-05 3.27165e-07 0 3.49592 1.80017e-05 0 0 0 0)
(-0.000105623 2.63164e-07 0 3.4799 9.50568e-05 0 0 0 0)
(1.37704e-06 -7.00743e-06 0 2.97212 -0.000308507 0 0 0 0)
(0.000434815 3.01521e-06 0 2.99194 -0.000457876 0 0 0 0)
(-5.89248e-05 5.87646e-06 0 2.99889 6.18923e-05 0 0 0 0)
(-0.000315231 1.79033e-06 0 2.98327 0.000282547 0 0 0 0)
(4.8084e-05 -1.54438e-05 0 2.52595 -0.000167751 0 0 0 0)
(0.000624931 -8.0611e-06 0 2.5395 -0.000621546 0 0 0 0)
(-0.000126786 1.26675e-05 0 2.54521 0.000129029 0 0 0 0)
(-0.000495553 3.17504e-06 0 2.53215 0.000466922 0 0 0 0)
(8.34334e-05 -2.59289e-05 0 2.12872 -0.000345087 0 0 0 0)
(0.00075588 7.96155e-06 0 2.13729 -0.000738572 0 0 0 0)
(-0.000181406 2.40176e-05 0 2.14098 0.000182066 0 0 0 0)
(-0.000634022 5.30802e-06 0 2.13139 0.000601909 0 0 0 0)
(0.000109218 -3.78296e-05 0 1.7782 -0.000315626 0 0 0 0)
(0.000829326 7.24778e-07 0 1.78329 -0.000840571 0 0 0 0)
(-0.000225063 3.50089e-05 0 1.78506 0.000226834 0 0 0 0)
(-0.000727747 5.71061e-06 0 1.77864 0.000712347 0 0 0 0)
(0.000133053 -5.02149e-05 0 1.47151 -0.000106391 0 0 0 0)
(0.000870164 1.70025e-05 0 1.4744 -0.000853535 0 0 0 0)
(-0.000258955 4.98996e-05 0 1.475 0.000260666 0 0 0 0)
(-0.000789892 8.1665e-06 0 1.47098 0.000752556 0 0 0 0)
(0.000149804 -6.28952e-05 0 1.20614 -0.000197119 0 0 0 0)
(0.000887504 6.8424e-06 0 1.20755 -0.000896523 0 0 0 0)
(-0.000282152 6.17771e-05 0 1.20753 0.000285458 0 0 0 0)
(-0.000826137 6.98838e-06 0 1.20526 0.000812029 0 0 0 0)
(0.000163087 -7.57669e-05 0 0.97888 -0.000320584 0 0 0 0)
(0.000893382 2.50455e-05 0 0.979441 -0.000872711 0 0 0 0)
(-0.000297163 7.83754e-05 0 0.979225 0.000296264 0 0 0 0)
(-0.00084496 1.03975e-05 0 0.978176 0.000804474 0 0 0 0)
(0.000174876 -8.81376e-05 0 0.786655 -0.000120873 0 0 0 0)
(0.000893263 1.71232e-05 0 0.786534 -0.000891354 0 0 0 0)
(-0.000303232 8.97302e-05 0 0.786316 0.000307012 0 0 0 0)
(-0.000849752 7.60776e-06 0 0.786251 0.000835308 0 0 0 0)
(0.000183082 -0.000101188 0 0.625657 -0.000404628 0 0 0 0)
(0.000887734 3.21769e-05 0 0.625149 -0.000872876 0 0 0 0)
(-0.00030189 0.000107153 0 0.625139 0.000302966 0 0 0 0)
(-0.000844381 1.22147e-05 0 0.626002 0.000816045 0 0 0 0)
(0.000197842 -0.000112585 0 0.492784 -0.000143913 0 0 0 0)
(0.00088462 2.89164e-05 0 0.491445 -0.000855626 0 0 0 0)
(-0.000289011 0.000117879 0 0.491521 0.000286047 0 0 0 0)
(-0.000828229 8.5965e-06 0 0.493724 0.000793555 0 0 0 0)
(0.00020362 -0.000126049 0 0.383878 -0.000383025 0 0 0 0)
(0.000866687 3.93429e-05 0 0.382104 -0.000866759 0 0 0 0)
(-0.000263915 0.000134639 0 0.382694 0.000276617 0 0 0 0)
(-0.00079389 1.35053e-05 0 0.385866 0.000776865 0 0 0 0)
(0.00022675 -0.000136129 0 0.29605 -0.000223816 0 0 0 0)
(0.000864883 3.99105e-05 0 0.293332 -0.000785378 0 0 0 0)
(-0.000226309 0.000145273 0 0.294601 0.00022513 0 0 0 0)
(-0.000762833 1.01892e-05 0 0.298627 0.000714249 0 0 0 0)
(0.000230106 -0.000149101 0 0.225302 -0.000338675 0 0 0 0)
(0.000842537 4.68254e-05 0 0.222411 -0.000954731 0 0 0 0)
(-0.000175666 0.000159633 0 0.225331 0.000180387 0 0 0 0)
(-0.000718015 1.57858e-05 0 0.228988 0.000704811 0 0 0 0)
(0.000262834 -0.000160579 0 0.16923 -0.00030794 0 0 0 0)
(0.000865371 4.85615e-05 0 0.164366 -0.000805827 0 0 0 0)
(-0.000116693 0.000172932 0 0.168442 0.000127508 0 0 0 0)
(-0.000715683 1.54233e-05 0 0.173305 0.000639779 0 0 0 0)
(-0.000129748 7.08863e-07 0 3.47067 0.000141212 0 0 0 0)
(2.29991e-05 -1.64818e-06 0 3.45536 0.000128531 0 0 0 0)
(0.000169103 -1.86312e-08 0 3.47755 -0.000415632 0 0 0 0)
(-9.60723e-05 1.56194e-05 0 3.48572 0.000204329 0 0 0 0)
(-0.000279267 -1.50962e-07 0 2.9755 0.000236605 0 0 0 0)
(9.17254e-05 -7.63254e-06 0 2.96999 8.36165e-05 0 0 0 0)
(0.000336815 1.28193e-06 0 2.98433 -0.000621722 0 0 0 0)
(-0.00021131 2.827e-06 0 2.98563 0.000407706 0 0 0 0)
(-0.000351062 -2.60665e-06 0 2.52608 0.00034009 0 0 0 0)
(0.000170261 -1.59536e-05 0 2.52615 4.06443e-05 0 0 0 0)
(0.000429764 5.38286e-06 0 2.53519 -0.000740521 0 0 0 0)
(-0.000299639 2.08397e-05 0 2.53458 0.000513745 0 0 0 0)
(-0.000379322 -7.25559e-06 0 2.12705 0.0003342 0 0 0 0)
(0.000243448 -2.56427e-05 0 2.12905 -4.18201e-05 0 0 0 0)
(0.000477295 9.16694e-06 0 2.13464 -0.000814836 0 0 0 0)
(-0.000365306 1.23732e-05 0 2.13362 0.000604579 0 0 0 0)
(-0.000390013 -1.33355e-05 0 1.77571 0.000398343 0 0 0 0)
(0.000296849 -3.51042e-05 0 1.77775 -9.19973e-05 0 0 0 0)
(0.000505857 1.61562e-05 0 1.78106 -0.000824844 0 0 0 0)
(-0.000398428 2.86688e-05 0 1.78031 0.000616586 0 0 0 0)
(-0.000394041 -2.06613e-05 0 1.4691 0.000337332 0 0 0 0)
(0.000332576 -4.60292e-05 0 1.47056 -0.000131346 0 0 0 0)
(0.000519943 2.09767e-05 0 1.47232 -0.000853309 0 0 0 0)
(-0.000412848 2.08601e-05 0 1.47197 0.000650398 0 0 0 0)
(-0.000397003 -2.80672e-05 0 1.20422 0.000419317 0 0 0 0)
(0.000350574 -5.49483e-05 0 1.20506 -0.000149131 0 0 0 0)
(0.000529351 2.91852e-05 0 1.20575 -0.000847154 0 0 0 0)
(-0.00041194 4.11175e-05 0 1.20575 0.000636598 0 0 0 0)
(-0.000397291 -3.66807e-05 0 0.977808 0.000333427 0 0 0 0)
(0.000358015 -6.7137e-05 0 0.978059 -0.000151966 0 0 0 0)
(0.000531368 3.40721e-05 0 0.977716 -0.000866987 0 0 0 0)
(-0.000406437 3.16941e-05 0 0.977937 0.000641834 0 0 0 0)
(-0.000398957 -4.40078e-05 0 0.786351 0.000416048 0 0 0 0)
(0.000349034 -7.49552e-05 0 0.786331 -0.000148025 0 0 0 0)
(0.000527313 4.24152e-05 0 0.785143 -0.000849814 0 0 0 0)
(-0.000392545 5.02242e-05 0 0.785335 0.000633907 0 0 0 0)
(-0.000395948 -5.30696e-05 0 0.62643 0.00036229 0 0 0 0)
(0.000337893 -8.82347e-05 0 0.626027 -0.000120517 0 0 0 0)
(0.000514756 4.71044e-05 0 0.623735 -0.000845091 0 0 0 0)
(-0.000381246 4.38431e-05 0 0.623771 0.000593948 0 0 0 0)
(-0.00039855 -5.96172e-05 0 0.494551 0.00036348 0 0 0 0)
(0.000304113 -9.50782e-05 0 0.493716 -0.000113478 0 0 0 0)
(0.000489719 5.4323e-05 0 0.490249 -0.000830513 0 0 0 0)
(-0.000360504 5.75653e-05 0 0.490213 0.000636061 0 0 0 0)
(-0.00039607 -6.81868e-05 0 0.386617 0.000372182 0 0 0 0)
(0.000266202 -0.000108135 0 0.385705 -8.64494e-05 0 0 0 0)
(0.000456365 5.95967e-05 0 0.38086 -0.000743874 0 0 0 0)
(-0.000338999 5.52864e-05 0 0.380369 0.000545885 0 0 0 0)
(-0.000401227 -7.40058e-05 0 0.299154 0.000361964 0 0 0 0)
(0.000208162 -0.000113679 0 0.29887 2.71341e-05 0 0 0 0)
(0.000400787 6.48619e-05 0 0.292768 -0.000776792 0 0 0 0)
(-0.000310212 6.35794e-05 0 0.291743 0.000597701 0 0 0 0)
(-0.000392011 -7.96387e-05 0 0.22816 0.000494432 0 0 0 0)
(0.000159782 -0.000127114 0 0.230052 8.19358e-06 0 0 0 0)
(0.000337571 6.91061e-05 0 0.222901 -0.000617125 0 0 0 0)
(-0.000284304 6.45027e-05 0 0.220246 0.000512272 0 0 0 0)
(-0.000383495 -8.56161e-05 0 0.173133 0.000306706 0 0 0 0)
(0.000120516 -0.000132205 0 0.176288 4.7397e-05 0 0 0 0)
(0.000237354 7.32632e-05 0 0.166359 -0.000509934 0 0 0 0)
(-0.000270205 6.82203e-05 0 0.163213 0.000451901 0 0 0 0)
)
;

boundaryField
{
    topWall
    {
        type            extrapolatedCalculated;
        value           nonuniform List<tensor> 0();
    }
    botWall
    {
        type            extrapolatedCalculated;
        value           nonuniform List<tensor> 8((-5.71296e-05 -1.0174e-06 0 3.71078 0.00341355 0 0 0 0) (0.000178697 -1.42344e-05 0 3.73391 -9.51433e-05 0 0 0 0) (1.77743e-05 3.27165e-07 0 3.75366 -2.71116e-06 0 0 0 0) (-0.000105623 2.63164e-07 0 3.73818 -1.66237e-05 0 0 0 0) (-0.000129748 7.08863e-07 0 3.72831 6.04482e-05 0 0 0 0) (2.29991e-05 -1.64818e-06 0 3.70704 0.000153503 0 0 0 0) (0.000169103 -1.86312e-08 0 3.73383 -0.000335116 0 0 0 0) (-9.60723e-05 1.56194e-05 0 3.74762 0.000149032 0 0 0 0));
    }
    inlet
    {
        type            cyclic;
    }
    outlet
    {
        type            cyclic;
    }
    fixWall
    {
        type            empty;
    }
    procBoundary0to1
    {
        type            processor;
        value           nonuniform List<tensor> 8((0.000249316 -0.000170063 0 0.125423 -0.000324732 0 0 0 0) (0.00082941 5.40828e-05 0 0.119737 -0.000865814 0 0 0 0) (-2.66858e-05 0.000183727 0 0.123901 3.80693e-06 0 0 0 0) (-0.000639833 1.87725e-05 0 0.129929 0.000686236 0 0 0 0) (-0.000342293 -8.95117e-05 0 0.130493 0.000491254 0 0 0 0) (4.68763e-05 -0.000140725 0 0.133342 0.000140012 0 0 0 0) (0.000119663 7.58479e-05 0 0.123946 -0.000366861 0 0 0 0) (-0.000236453 6.78692e-05 0 0.12076 0.000387038 0 0 0 0));
    }
}


// ************************************************************************* //
