/*--------------------------------*- C++ -*----------------------------------*\
  =========                 |
  \\      /  F ield         | OpenFOAM: The Open Source CFD Toolbox
   \\    /   O peration     | Website:  https://openfoam.org
    \\  /    A nd           | Version:  dev
     \\/     M anipulation  |

   OpenFOAM for Windows 20.09 (v1)
   Built by CFD Support, www.cfdsupport.com (based on Symscape).
\*---------------------------------------------------------------------------*/
FoamFile
{
    version     2.0;
    format      ascii;
    class       volVectorField;
    location    "2";
    object      gradp;
}
// * * * * * * * * * * * * * * * * * * * * * * * * * * * * * * * * * * * * * //

dimensions      [1 -2 -2 0 0 0 0];

internalField   nonuniform List<vector> 
120
(
(3.75817 -99.7546 0)
(-1.27279 -98.196 0)
(-1.25124 -98.1065 0)
(-1.25849 -98.1204 0)
(3.75658 -99.7564 0)
(-1.24537 -98.1955 0)
(-1.24999 -98.1063 0)
(-1.25846 -98.1181 0)
(3.75667 -98.0931 0)
(-1.24529 -98.0985 0)
(-1.24996 -98.0997 0)
(-1.25846 -98.102 0)
(3.75667 -98.0671 0)
(-1.24548 -98.0977 0)
(-1.25005 -98.0999 0)
(-1.25846 -98.1104 0)
(3.75664 -98.0585 0)
(-1.24583 -98.1009 0)
(-1.25017 -98.1 0)
(-1.25847 -98.1059 0)
(3.75666 -98.0602 0)
(-1.24617 -98.1005 0)
(-1.25013 -98.1001 0)
(-1.25848 -98.0994 0)
(3.75666 -98.0609 0)
(-1.2465 -98.0965 0)
(-1.25015 -98.1001 0)
(-1.25849 -98.0993 0)
(3.75668 -98.0623 0)
(-1.24682 -98.0972 0)
(-1.25017 -98.1001 0)
(-1.25851 -98.0991 0)
(3.75667 -98.0635 0)
(-1.24713 -98.0963 0)
(-1.25018 -98.1001 0)
(-1.25852 -98.099 0)
(3.75669 -98.0644 0)
(-1.24743 -98.0947 0)
(-1.25022 -98.0981 0)
(-1.25855 -98.0945 0)
(3.75666 -98.0641 0)
(-1.24769 -98.0948 0)
(-1.25018 -98.0935 0)
(-1.2586 -98.093 0)
(3.75663 -98.0653 0)
(-1.24792 -98.0944 0)
(-1.25019 -98.0836 0)
(-1.25871 -98.0666 0)
(3.7565 -98.0676 0)
(-1.248 -98.0942 0)
(-1.24971 -98.0716 0)
(-1.25894 -98.0382 0)
(3.75635 -97.7113 0)
(-1.24799 -97.9657 0)
(-1.24926 -97.3163 0)
(-1.25925 -97.1582 0)
(3.7585 -98.2112 0)
(-1.24141 -97.9903 0)
(-1.23625 -97.7281 0)
(-1.25606 -97.923 0)
(-1.25766 -98.1048 0)
(-1.22105 -98.1109 0)
(-1.24927 -98.1158 0)
(3.75232 -98.1004 0)
(-1.2575 -98.1048 0)
(-1.22123 -98.1109 0)
(-1.24909 -98.1034 0)
(3.72506 -98.1052 0)
(-1.25754 -98.0999 0)
(-1.22102 -98.0999 0)
(-1.24917 -98.0952 0)
(3.72477 -98.104 0)
(-1.25747 -98.1003 0)
(-1.22115 -98.0999 0)
(-1.24916 -98.1072 0)
(3.72509 -98.0959 0)
(-1.25736 -98.1008 0)
(-1.22114 -98.0999 0)
(-1.24911 -98.099 0)
(3.72544 -98.1 0)
(-1.25737 -98.1014 0)
(-1.22112 -98.0999 0)
(-1.24916 -98.0985 0)
(3.72577 -98.1022 0)
(-1.25737 -98.1019 0)
(-1.22109 -98.0998 0)
(-1.24915 -98.0981 0)
(3.72608 -98.0976 0)
(-1.25738 -98.1017 0)
(-1.22106 -98.0984 0)
(-1.24913 -98.0978 0)
(3.72639 -98.0973 0)
(-1.25736 -98.1026 0)
(-1.22102 -98.0993 0)
(-1.24913 -98.0974 0)
(3.72667 -98.097 0)
(-1.25738 -98.1032 0)
(-1.22097 -98.1009 0)
(-1.24909 -98.0965 0)
(3.72695 -98.0944 0)
(-1.25747 -98.1032 0)
(-1.22091 -98.1004 0)
(-1.24902 -98.0958 0)
(3.72721 -98.0915 0)
(-1.2575 -98.1037 0)
(-1.22085 -98.1005 0)
(-1.24894 -98.0903 0)
(3.72748 -98.0849 0)
(-1.25803 -98.1039 0)
(-1.22069 -98.1006 0)
(-1.24876 -98.0942 0)
(3.72762 -98.0776 0)
(-1.25854 -97.1439 0)
(-1.22068 -97.6173 0)
(-1.24856 -98.0994 0)
(3.72792 -98.0856 0)
(-1.26568 -97.5109 0)
(-1.23661 -97.658 0)
(-1.25656 -97.7832 0)
(3.73409 -97.8509 0)
)
;

boundaryField
{
    topWall
    {
        type            extrapolatedCalculated;
        value           nonuniform List<vector> 0();
    }
    botWall
    {
        type            extrapolatedCalculated;
        value           nonuniform List<vector> 8((3.75817 -98.1057 0) (-1.27279 -98.1004 0) (-1.25124 -98.1001 0) (-1.25849 -98.1 0) (-1.25766 -98.1 0) (-1.22105 -98.1001 0) (-1.24927 -98.1 0) (3.75232 -98.1 0));
    }
    inlet
    {
        type            cyclic;
    }
    outlet
    {
        type            cyclic;
    }
    fixWall
    {
        type            empty;
    }
    procBoundary0to1
    {
        type            processor;
        value           nonuniform List<vector> 8((3.75403 -98.7095 0) (-1.23994 -98.1232 0) (-1.24813 -98.4959 0) (-1.25563 -98.8342 0) (-1.25413 -98.4738 0) (-1.22522 -98.1439 0) (-1.25177 -98.6299 0) (3.72079 -98.2621 0));
    }
}


// ************************************************************************* //
