/*--------------------------------*- C++ -*----------------------------------*\
  =========                 |
  \\      /  F ield         | OpenFOAM: The Open Source CFD Toolbox
   \\    /   O peration     | Website:  https://openfoam.org
    \\  /    A nd           | Version:  dev
     \\/     M anipulation  |

   OpenFOAM for Windows 20.09 (v1)
   Built by CFD Support, www.cfdsupport.com (based on Symscape).
\*---------------------------------------------------------------------------*/
FoamFile
{
    version     2.0;
    format      ascii;
    class       volScalarField;
    location    "2";
    object      nut;
}
// * * * * * * * * * * * * * * * * * * * * * * * * * * * * * * * * * * * * * //

dimensions      [0 2 -1 0 0 0 0];

internalField   nonuniform List<scalar> 
120
(
2.5539e-21
2.5539e-21
2.5539e-21
2.5539e-21
1.48059e-20
1.4806e-20
1.4806e-20
1.4806e-20
4.34871e-20
4.34878e-20
4.34876e-20
4.34875e-20
9.24925e-20
9.24948e-20
9.24942e-20
9.24939e-20
1.63951e-19
1.63956e-19
1.63954e-19
1.63953e-19
2.57858e-19
2.57865e-19
2.57861e-19
2.57859e-19
3.74314e-19
3.74324e-19
3.74316e-19
3.74313e-19
5.1336e-19
5.1337e-19
5.13357e-19
5.13352e-19
6.74963e-19
6.74976e-19
6.74954e-19
6.74945e-19
8.59055e-19
8.59072e-19
8.59038e-19
8.59022e-19
1.06555e-18
1.06557e-18
1.06552e-18
1.06549e-18
1.29433e-18
1.29437e-18
1.29429e-18
1.29426e-18
1.54527e-18
1.54531e-18
1.54521e-18
1.54516e-18
1.81812e-18
1.81816e-18
1.81804e-18
1.81797e-18
2.11255e-18
2.11259e-18
2.11243e-18
2.11235e-18
2.5539e-21
2.5539e-21
2.5539e-21
2.5539e-21
1.4806e-20
1.4806e-20
1.4806e-20
1.4806e-20
4.34875e-20
4.34875e-20
4.34878e-20
4.34878e-20
9.24939e-20
9.24938e-20
9.24948e-20
9.24948e-20
1.63953e-19
1.63953e-19
1.63955e-19
1.63955e-19
2.5786e-19
2.57861e-19
2.57865e-19
2.57862e-19
3.74315e-19
3.74317e-19
3.74324e-19
3.74316e-19
5.13356e-19
5.1336e-19
5.13371e-19
5.13354e-19
6.74953e-19
6.74961e-19
6.74976e-19
6.74947e-19
8.59037e-19
8.5905e-19
8.59071e-19
8.59024e-19
1.06552e-18
1.06554e-18
1.06557e-18
1.0655e-18
1.2943e-18
1.29432e-18
1.29436e-18
1.29426e-18
1.54522e-18
1.54526e-18
1.54529e-18
1.54517e-18
1.81806e-18
1.8181e-18
1.81814e-18
1.81799e-18
2.11247e-18
2.11252e-18
2.11256e-18
2.11238e-18
)
;

boundaryField
{
    topWall
    {
        type            nutkWallFunction;
        Cmu             0.09;
        kappa           0.41;
        E               9.8;
        value           nonuniform List<scalar> 0();
    }
    botWall
    {
        type            nutkWallFunction;
        Cmu             0.09;
        kappa           0.41;
        E               9.8;
        value           uniform 0;
    }
    inlet
    {
        type            cyclic;
    }
    outlet
    {
        type            cyclic;
    }
    fixWall
    {
        type            empty;
    }
    procBoundary0to1
    {
        type            processor;
        value           nonuniform List<scalar> 8(2.42826e-18 2.42831e-18 2.42812e-18 2.42801e-18 2.42816e-18 2.42823e-18 2.42827e-18 2.42805e-18);
    }
}


// ************************************************************************* //
