/*--------------------------------*- C++ -*----------------------------------*\
  =========                 |
  \\      /  F ield         | OpenFOAM: The Open Source CFD Toolbox
   \\    /   O peration     | Website:  https://openfoam.org
    \\  /    A nd           | Version:  dev
     \\/     M anipulation  |

   OpenFOAM for Windows 20.09 (v1)
   Built by CFD Support, www.cfdsupport.com (based on Symscape).
\*---------------------------------------------------------------------------*/
FoamFile
{
    version     2.0;
    format      ascii;
    class       volScalarField;
    location    "2";
    object      omega;
}
// * * * * * * * * * * * * * * * * * * * * * * * * * * * * * * * * * * * * * //

dimensions      [0 0 -1 0 0 0 0];

internalField   nonuniform List<scalar> 
120
(
86943.4
86943.4
86943.4
86943.4
14997
14996.9
14996.9
14996.9
5105.99
5105.91
5105.93
5105.94
2400.68
2400.62
2400.63
2400.64
1354.34
1354.3
1354.31
1354.32
861.113
861.088
861.101
861.107
593.203
593.189
593.201
593.205
432.532
432.523
432.534
432.539
328.973
328.967
328.977
328.982
258.475
258.47
258.481
258.485
208.385
208.381
208.391
208.396
171.551
171.547
171.557
171.561
143.693
143.69
143.699
143.703
122.129
122.126
122.134
122.139
105.107
105.105
105.113
105.117
86943.4
86943.4
86943.4
86943.4
14997
14997
14996.9
14996.9
5105.94
5105.94
5105.91
5105.91
2400.64
2400.64
2400.62
2400.62
1354.32
1354.32
1354.3
1354.3
861.105
861.103
861.088
861.098
593.203
593.2
593.188
593.201
432.536
432.532
432.523
432.537
328.978
328.974
328.967
328.981
258.481
258.477
258.471
258.485
208.391
208.387
208.382
208.395
171.556
171.552
171.548
171.561
143.698
143.694
143.691
143.702
122.133
122.13
122.127
122.137
105.111
105.109
105.107
105.116
)
;

boundaryField
{
    topWall
    {
        beta1           0.075;
        blended         0;
        type            omegaWallFunction;
        value           nonuniform List<scalar> 0();
    }
    botWall
    {
        beta1           0.075;
        blended         0;
        type            omegaWallFunction;
        value           nonuniform List<scalar> 8(86943.4 86943.4 86943.4 86943.4 86943.4 86943.4 86943.4 86943.4);
    }
    inlet
    {
        type            cyclic;
    }
    outlet
    {
        type            cyclic;
    }
    fixWall
    {
        type            empty;
    }
    procBoundary0to1
    {
        type            processor;
        value           nonuniform List<scalar> 8(91.4418 91.44 91.4472 91.4513 91.4454 91.4428 91.4416 91.4497);
    }
}


// ************************************************************************* //
