/*--------------------------------*- C++ -*----------------------------------*\
  =========                 |
  \\      /  F ield         | OpenFOAM: The Open Source CFD Toolbox
   \\    /   O peration     | Website:  https://openfoam.org
    \\  /    A nd           | Version:  dev
     \\/     M anipulation  |

   OpenFOAM for Windows 20.09 (v1)
   Built by CFD Support, www.cfdsupport.com (based on Symscape).
\*---------------------------------------------------------------------------*/
FoamFile
{
    version     2.0;
    format      ascii;
    class       volScalarField;
    location    "2";
    object      p;
}
// * * * * * * * * * * * * * * * * * * * * * * * * * * * * * * * * * * * * * //

dimensions      [1 -1 -2 0 0 0 0];

internalField   nonuniform List<scalar> 
120
(
0
-0.0647656
-0.127279
-0.18989
-0.0845029
-0.146675
-0.20904
-0.271674
-0.166261
-0.228425
-0.290789
-0.35342
-0.247991
-0.310173
-0.372539
-0.435177
-0.329706
-0.391921
-0.454289
-0.516938
-0.411422
-0.473674
-0.536039
-0.598687
-0.493139
-0.555422
-0.617789
-0.680437
-0.574857
-0.637168
-0.699539
-0.762186
-0.656577
-0.718917
-0.78129
-0.843935
-0.738296
-0.800662
-0.86304
-0.925684
-0.820017
-0.882408
-0.944786
-1.00743
-0.901736
-0.964154
-1.02653
-1.08917
-0.983459
-1.0459
-1.10826
-1.17087
-1.06518
-1.12764
-1.18998
-1.25257
-1.14631
-1.20918
-1.27045
-1.3328
-0.253128
-0.315656
-0.375232
-0.440583
-0.334886
-0.397424
-0.457008
-0.522333
-0.416636
-0.479174
-0.538738
-0.604091
-0.498386
-0.560924
-0.620501
-0.68584
-0.580136
-0.642674
-0.70225
-0.767585
-0.661887
-0.724424
-0.783999
-0.84934
-0.743638
-0.806174
-0.865747
-0.931088
-0.82539
-0.887923
-0.947496
-1.01284
-0.907141
-0.969671
-1.02924
-1.09458
-0.988894
-1.05142
-1.11099
-1.17633
-1.07065
-1.13317
-1.19274
-1.25807
-1.1524
-1.21492
-1.27448
-1.33982
-1.23415
-1.29667
-1.35622
-1.42155
-1.31591
-1.37842
-1.43797
-1.50328
-1.39606
-1.45937
-1.51972
-1.58503
)
;

boundaryField
{
    topWall
    {
        type            calculated;
        value           nonuniform List<scalar> 0();
    }
    botWall
    {
        type            calculated;
        value           nonuniform List<scalar> 8(0.0408774 -0.0238905 -0.0864039 -0.149015 -0.212253 -0.274781 -0.334357 -0.399708);
    }
    inlet
    {
        type            cyclic;
    }
    outlet
    {
        type            cyclic;
    }
    fixWall
    {
        type            empty;
    }
    procBoundary0to1
    {
        type            processor;
        value           nonuniform List<scalar> 8(-1.22887 -1.29096 -1.35286 -1.41577 -1.47842 -1.54119 -1.60095 -1.66636);
    }
}


// ************************************************************************* //
