/*--------------------------------*- C++ -*----------------------------------*\
  =========                 |
  \\      /  F ield         | OpenFOAM: The Open Source CFD Toolbox
   \\    /   O peration     | Website:  https://openfoam.org
    \\  /    A nd           | Version:  dev
     \\/     M anipulation  |

   OpenFOAM for Windows 20.09 (v1)
   Built by CFD Support, www.cfdsupport.com (based on Symscape).
\*---------------------------------------------------------------------------*/
FoamFile
{
    version     2.0;
    format      ascii;
    class       volScalarField;
    location    "2";
    object      p_rgh;
}
// * * * * * * * * * * * * * * * * * * * * * * * * * * * * * * * * * * * * * //

dimensions      [1 -1 -2 0 0 0 0];

internalField   nonuniform List<scalar> 
120
(
0.0408774
-0.0238905
-0.0864039
-0.149015
0.038122
-0.0240502
-0.0864146
-0.149049
0.0381142
-0.0240497
-0.0864143
-0.149045
0.0381335
-0.0240478
-0.0864142
-0.149052
0.0381691
-0.0240459
-0.0864141
-0.149062
0.0382028
-0.0240493
-0.0864142
-0.149062
0.0382356
-0.0240468
-0.0864144
-0.149061
0.0382681
-0.0240435
-0.0864145
-0.149061
0.0382984
-0.024042
-0.0864147
-0.14906
0.0383289
-0.0240373
-0.0864148
-0.14906
0.0383579
-0.0240334
-0.0864117
-0.149051
0.0383888
-0.0240287
-0.0864042
-0.149048
0.0384156
-0.0240242
-0.0863843
-0.148995
0.0384424
-0.0240194
-0.0863563
-0.148944
0.0390557
-0.0238034
-0.0850942
-0.147444
-0.212253
-0.274781
-0.334357
-0.399708
-0.212261
-0.274799
-0.334383
-0.399708
-0.212261
-0.274799
-0.334363
-0.399716
-0.212261
-0.274799
-0.334376
-0.399715
-0.212261
-0.274799
-0.334375
-0.39971
-0.212262
-0.274799
-0.334374
-0.399715
-0.212263
-0.274799
-0.334372
-0.399713
-0.212265
-0.274799
-0.334371
-0.399711
-0.212266
-0.274796
-0.334369
-0.399709
-0.212269
-0.274797
-0.334366
-0.399706
-0.212272
-0.274798
-0.334363
-0.399699
-0.212275
-0.274798
-0.334359
-0.399692
-0.212278
-0.274798
-0.334347
-0.399674
-0.212281
-0.274799
-0.33435
-0.399655
-0.210664
-0.273984
-0.334334
-0.399647
)
;

boundaryField
{
    topWall
    {
        type            zeroGradient;
    }
    botWall
    {
        type            zeroGradient;
    }
    inlet
    {
        type            fixedJump;
        patchType       cyclic;
        jump            uniform -0.5;
        value           nonuniform List<scalar> 
15
(
0.0697045
0.069394
0.0693708
0.0693486
0.0693294
0.0693115
0.0692949
0.0692785
0.0692612
0.0692438
0.0692297
0.0692092
0.0691989
0.0692068
0.0705848
)
;
    }
    outlet
    {
        type            fixedJump;
        patchType       cyclic;
        value           nonuniform List<scalar> 
15
(
-0.430295
-0.430606
-0.430629
-0.430651
-0.430671
-0.430688
-0.430705
-0.430722
-0.430739
-0.430756
-0.43077
-0.430791
-0.430801
-0.430793
-0.429415
)
;
    }
    fixWall
    {
        type            empty;
    }
    procBoundary0to1
    {
        type            processor;
        value           nonuniform List<scalar> 8(0.0382603 -0.023839 -0.0857449 -0.148653 -0.211286 -0.274052 -0.333802 -0.39923);
    }
}


// ************************************************************************* //
