/*--------------------------------*- C++ -*----------------------------------*\
  =========                 |
  \\      /  F ield         | OpenFOAM: The Open Source CFD Toolbox
   \\    /   O peration     | Website:  https://openfoam.org
    \\  /    A nd           | Version:  dev
     \\/     M anipulation  |

   OpenFOAM for Windows 20.09 (v1)
   Built by CFD Support, www.cfdsupport.com (based on Symscape).
\*---------------------------------------------------------------------------*/
FoamFile
{
    version     2.0;
    format      ascii;
    class       surfaceScalarField;
    location    "2";
    object      phi;
}
// * * * * * * * * * * * * * * * * * * * * * * * * * * * * * * * * * * * * * //

dimensions      [0 3 -1 0 0 0 0];

internalField   nonuniform List<scalar> 
217
(
1.2894e-09
4.5782e-12
1.30105e-09
-1.16488e-11
1.30054e-09
5.30305e-13
3.58612e-12
1.29695e-09
3.52788e-09
2.07029e-12
3.54607e-09
-2.98333e-11
3.54342e-09
3.18893e-12
1.55372e-11
3.53146e-09
5.43396e-09
-2.10181e-12
5.46022e-09
-5.61012e-11
5.45472e-09
8.6952e-12
3.5021e-11
5.43523e-09
7.04555e-09
-7.98125e-12
7.07707e-09
-8.76274e-11
7.06949e-09
1.62863e-11
6.0511e-11
7.044e-09
8.39667e-09
-1.51078e-11
8.43115e-09
-1.22116e-10
8.42168e-09
2.57602e-11
8.97484e-11
8.39244e-09
9.51897e-09
-2.33473e-11
9.55507e-09
-1.58219e-10
9.54419e-09
3.66395e-11
1.21558e-10
9.51238e-09
1.04426e-08
-3.24097e-11
1.04793e-08
-1.94961e-10
1.04675e-08
4.84795e-11
1.54847e-10
1.04342e-08
1.11953e-08
-4.21462e-11
1.12322e-08
-2.31869e-10
1.12197e-08
6.09318e-11
1.88911e-10
1.11857e-08
1.18026e-08
-5.24783e-11
1.18394e-08
-2.68676e-10
1.18268e-08
7.35816e-11
2.23221e-10
1.17925e-08
1.22879e-08
-6.32883e-11
1.23244e-08
-3.05194e-10
1.23118e-08
8.61823e-11
2.57325e-10
1.22777e-08
1.26713e-08
-7.47647e-11
1.27077e-08
-3.41587e-10
1.26957e-08
9.82069e-11
2.90829e-10
1.26622e-08
1.29715e-08
-8.66411e-11
1.3007e-08
-3.77079e-10
1.2996e-08
1.0922e-10
3.227e-10
1.29641e-08
1.32034e-08
-9.95336e-11
1.32388e-08
-4.12432e-10
1.32293e-08
1.18706e-10
3.53098e-10
1.31989e-08
1.33809e-08
-1.12662e-10
1.34152e-08
-4.46756e-10
1.34078e-08
1.26121e-10
3.81447e-10
1.33794e-08
1.35131e-08
1.35512e-08
1.35443e-08
1.35168e-08
1.29202e-09
4.90426e-12
1.28733e-09
4.69658e-12
1.30297e-09
-1.56163e-11
7.50183e-12
3.52063e-09
1.57275e-11
3.51605e-09
9.27423e-12
3.54359e-09
-4.31634e-11
2.56729e-11
5.4214e-09
2.95558e-11
5.42015e-09
1.0527e-11
5.45144e-09
-7.44707e-11
4.72858e-11
7.02917e-09
4.43775e-11
7.03086e-09
8.8468e-12
7.06426e-09
-1.07889e-10
7.18491e-11
8.37706e-09
5.97632e-11
8.381e-09
4.91151e-12
8.41564e-09
-1.42536e-10
9.79276e-11
9.49681e-09
7.53343e-11
9.50226e-09
-5.30503e-13
9.53749e-09
-1.7777e-10
1.24682e-10
1.04185e-08
9.10497e-11
1.04247e-08
-6.71814e-12
1.04603e-08
-2.13418e-10
1.51485e-10
1.11699e-08
1.06779e-10
1.11764e-08
-1.32095e-11
1.12122e-08
-2.49175e-10
1.78145e-10
1.17768e-08
1.22472e-10
1.17828e-08
-1.91684e-11
1.18185e-08
-2.8489e-10
2.04327e-10
1.22621e-08
1.38053e-10
1.22677e-08
-2.47557e-11
1.23028e-08
-3.20016e-10
2.30104e-10
1.26465e-08
1.53769e-10
1.26508e-08
-2.9044e-11
1.26848e-08
-3.54061e-10
2.55088e-10
1.29483e-08
1.69529e-10
1.2951e-08
-3.17335e-11
1.29837e-08
-3.86772e-10
2.79237e-10
1.31827e-08
1.8566e-10
1.31831e-08
-3.20451e-11
1.32134e-08
-4.17162e-10
3.02181e-10
1.33636e-08
2.01545e-10
1.33619e-08
-3.04008e-11
1.33896e-08
-4.44898e-10
3.24069e-10
1.34991e-08
1.34996e-08
1.35203e-08
)
;

boundaryField
{
    topWall
    {
        type            calculated;
        value           nonuniform List<scalar> 0();
    }
    botWall
    {
        type            calculated;
        value           uniform 0;
    }
    inlet
    {
        type            cyclic;
        value           nonuniform List<scalar> 
15
(
-1.35005e-08
-1.33677e-08
-1.31905e-08
-1.29596e-08
-1.26598e-08
-1.22771e-08
-1.17923e-08
-1.11855e-08
-1.04335e-08
-9.51074e-09
-8.38956e-09
-7.0397e-09
-5.42983e-09
-3.52543e-09
-1.29547e-09
)
;
    }
    outlet
    {
        type            cyclic;
        value           nonuniform List<scalar> 
15
(
1.35005e-08
1.33677e-08
1.31905e-08
1.29596e-08
1.26598e-08
1.22771e-08
1.17923e-08
1.11855e-08
1.04335e-08
9.51074e-09
8.38956e-09
7.0397e-09
5.42983e-09
3.52543e-09
1.29547e-09
)
;
    }
    fixWall
    {
        type            empty;
        value           nonuniform List<scalar> 0();
    }
    procBoundary0to1
    {
        type            processor;
        value           nonuniform List<scalar> 8(-1.2529e-10 -4.84138e-10 1.3332e-10 4.08732e-10 2.20909e-10 -2.9472e-11 -4.65279e-10 3.44539e-10);
    }
}


// ************************************************************************* //
