/*--------------------------------*- C++ -*----------------------------------*\
  =========                 |
  \\      /  F ield         | OpenFOAM: The Open Source CFD Toolbox
   \\    /   O peration     | Website:  https://openfoam.org
    \\  /    A nd           | Version:  dev
     \\/     M anipulation  |

   OpenFOAM for Windows 20.09 (v1)
   Built by CFD Support, www.cfdsupport.com (based on Symscape).
\*---------------------------------------------------------------------------*/
FoamFile
{
    version     2.0;
    format      ascii;
    class       volSymmTensorField;
    location    "2";
    object      R;
}
// * * * * * * * * * * * * * * * * * * * * * * * * * * * * * * * * * * * * * //

dimensions      [0 2 -2 0 0 0 0];

internalField   nonuniform List<symmTensor> 
120
(
(1.4803e-16 -8.83421e-21 -0 1.4803e-16 -0 1.4803e-16)
(1.4803e-16 -8.89359e-21 -0 1.4803e-16 -0 1.4803e-16)
(1.4803e-16 -8.92823e-21 -0 1.4803e-16 -0 1.4803e-16)
(1.4803e-16 -8.88732e-21 -0 1.4803e-16 -0 1.4803e-16)
(1.4803e-16 -4.40049e-20 -0 1.4803e-16 -0 1.4803e-16)
(1.4803e-16 -4.42988e-20 -0 1.4803e-16 -0 1.4803e-16)
(1.4803e-16 -4.44017e-20 -0 1.4803e-16 -0 1.4803e-16)
(1.4803e-16 -4.41703e-20 -0 1.4803e-16 -0 1.4803e-16)
(1.4803e-16 -1.09845e-19 -0 1.4803e-16 -0 1.4803e-16)
(1.4803e-16 -1.10437e-19 -0 1.4803e-16 -0 1.4803e-16)
(1.4803e-16 -1.10686e-19 -0 1.4803e-16 -0 1.4803e-16)
(1.4803e-16 -1.10117e-19 -0 1.4803e-16 -0 1.4803e-16)
(1.4803e-16 -1.96888e-19 -0 1.4803e-16 -0 1.4803e-16)
(1.4803e-16 -1.97689e-19 -0 1.4803e-16 -0 1.4803e-16)
(1.4803e-16 -1.9803e-19 -0 1.4803e-16 -0 1.4803e-16)
(1.4803e-16 -1.97141e-19 -0 1.4803e-16 -0 1.4803e-16)
(1.4803e-16 -2.91531e-19 -0 1.4803e-16 -0 1.4803e-16)
(1.48029e-16 -2.9238e-19 -0 1.4803e-16 -0 1.4803e-16)
(1.4803e-16 -2.92673e-19 -0 1.4803e-16 -0 1.4803e-16)
(1.4803e-16 -2.91614e-19 -0 1.4803e-16 -0 1.4803e-16)
(1.4803e-16 -3.79427e-19 -0 1.4803e-16 -0 1.4803e-16)
(1.48029e-16 -3.80201e-19 -0 1.4803e-16 -0 1.4803e-16)
(1.4803e-16 -3.80358e-19 -0 1.4803e-16 -0 1.4803e-16)
(1.4803e-16 -3.79308e-19 -0 1.48029e-16 -0 1.4803e-16)
(1.4803e-16 -4.51451e-19 -0 1.4803e-16 -0 1.4803e-16)
(1.48029e-16 -4.52017e-19 -0 1.4803e-16 -0 1.4803e-16)
(1.4803e-16 -4.52021e-19 -0 1.4803e-16 -0 1.4803e-16)
(1.4803e-16 -4.51147e-19 -0 1.48029e-16 -0 1.4803e-16)
(1.4803e-16 -5.02479e-19 -0 1.4803e-16 -0 1.4803e-16)
(1.48029e-16 -5.02829e-19 -0 1.48031e-16 -0 1.4803e-16)
(1.4803e-16 -5.02733e-19 -0 1.48029e-16 -0 1.4803e-16)
(1.48031e-16 -5.02154e-19 -0 1.48029e-16 -0 1.4803e-16)
(1.4803e-16 -5.30904e-19 -0 1.4803e-16 -0 1.4803e-16)
(1.48029e-16 -5.30903e-19 -0 1.48031e-16 -0 1.4803e-16)
(1.4803e-16 -5.30788e-19 -0 1.48029e-16 -0 1.4803e-16)
(1.48031e-16 -5.30681e-19 -0 1.48029e-16 -0 1.4803e-16)
(1.48029e-16 -5.37387e-19 -0 1.4803e-16 -0 1.4803e-16)
(1.48028e-16 -5.37076e-19 -0 1.48031e-16 -0 1.4803e-16)
(1.4803e-16 -5.3711e-19 -0 1.48029e-16 -0 1.4803e-16)
(1.48031e-16 -5.3776e-19 -0 1.48028e-16 -0 1.4803e-16)
(1.48029e-16 -5.24965e-19 -0 1.4803e-16 -0 1.4803e-16)
(1.48028e-16 -5.237e-19 -0 1.48032e-16 -0 1.4803e-16)
(1.4803e-16 -5.23851e-19 -0 1.48029e-16 -0 1.4803e-16)
(1.48031e-16 -5.26069e-19 -0 1.48028e-16 -0 1.4803e-16)
(1.48029e-16 -4.96703e-19 -0 1.48031e-16 -0 1.4803e-16)
(1.48027e-16 -4.94633e-19 -0 1.48032e-16 -0 1.4803e-16)
(1.4803e-16 -4.95492e-19 -0 1.48029e-16 -0 1.4803e-16)
(1.48032e-16 -4.99427e-19 -0 1.48028e-16 -0 1.4803e-16)
(1.48029e-16 -4.57267e-19 -0 1.4803e-16 -0 1.4803e-16)
(1.48027e-16 -4.53349e-19 -0 1.48032e-16 -0 1.4803e-16)
(1.4803e-16 -4.55445e-19 -0 1.48029e-16 -0 1.4803e-16)
(1.48032e-16 -4.61442e-19 -0 1.48027e-16 -0 1.4803e-16)
(1.48029e-16 -4.09355e-19 -0 1.48031e-16 -0 1.4803e-16)
(1.48027e-16 -4.04465e-19 -0 1.48033e-16 -0 1.4803e-16)
(1.4803e-16 -4.09951e-19 -0 1.48029e-16 -0 1.4803e-16)
(1.48032e-16 -4.16322e-19 -0 1.48027e-16 -0 1.4803e-16)
(1.48029e-16 -3.57167e-19 -0 1.48031e-16 -0 1.4803e-16)
(1.48026e-16 -3.4734e-19 -0 1.48033e-16 -0 1.4803e-16)
(1.4803e-16 -3.56188e-19 -0 1.48029e-16 -0 1.4803e-16)
(1.48033e-16 -3.66113e-19 -0 1.48027e-16 -0 1.4803e-16)
(1.4803e-16 -8.86374e-21 -0 1.4803e-16 -0 1.4803e-16)
(1.4803e-16 -8.82464e-21 -0 1.4803e-16 -0 1.4803e-16)
(1.4803e-16 -8.88132e-21 -0 1.4803e-16 -0 1.4803e-16)
(1.4803e-16 -8.90221e-21 -0 1.4803e-16 -0 1.4803e-16)
(1.4803e-16 -4.40551e-20 -0 1.4803e-16 -0 1.4803e-16)
(1.4803e-16 -4.39735e-20 -0 1.4803e-16 -0 1.4803e-16)
(1.4803e-16 -4.41861e-20 -0 1.4803e-16 -0 1.4803e-16)
(1.4803e-16 -4.42053e-20 -0 1.4803e-16 -0 1.4803e-16)
(1.4803e-16 -1.09853e-19 -0 1.4803e-16 -0 1.4803e-16)
(1.4803e-16 -1.09855e-19 -0 1.4803e-16 -0 1.4803e-16)
(1.4803e-16 -1.1025e-19 -0 1.4803e-16 -0 1.4803e-16)
(1.4803e-16 -1.10224e-19 -0 1.4803e-16 -0 1.4803e-16)
(1.4803e-16 -1.96738e-19 -0 1.4803e-16 -0 1.4803e-16)
(1.4803e-16 -1.96922e-19 -0 1.4803e-16 -0 1.4803e-16)
(1.4803e-16 -1.97444e-19 -0 1.4803e-16 -0 1.4803e-16)
(1.4803e-16 -1.9735e-19 -0 1.4803e-16 -0 1.4803e-16)
(1.4803e-16 -2.9113e-19 -0 1.4803e-16 -0 1.4803e-16)
(1.4803e-16 -2.91462e-19 -0 1.4803e-16 -0 1.4803e-16)
(1.4803e-16 -2.92016e-19 -0 1.4803e-16 -0 1.4803e-16)
(1.4803e-16 -2.91896e-19 -0 1.4803e-16 -0 1.4803e-16)
(1.4803e-16 -3.78816e-19 -0 1.4803e-16 -0 1.4803e-16)
(1.4803e-16 -3.79187e-19 -0 1.4803e-16 -0 1.4803e-16)
(1.48029e-16 -3.79666e-19 -0 1.4803e-16 -0 1.4803e-16)
(1.4803e-16 -3.7957e-19 -0 1.48029e-16 -0 1.4803e-16)
(1.4803e-16 -4.50749e-19 -0 1.48029e-16 -0 1.4803e-16)
(1.4803e-16 -4.51055e-19 -0 1.4803e-16 -0 1.4803e-16)
(1.48029e-16 -4.51352e-19 -0 1.4803e-16 -0 1.4803e-16)
(1.4803e-16 -4.51346e-19 -0 1.48029e-16 -0 1.4803e-16)
(1.4803e-16 -5.01945e-19 -0 1.48029e-16 -0 1.4803e-16)
(1.48029e-16 -5.02062e-19 -0 1.4803e-16 -0 1.4803e-16)
(1.48029e-16 -5.01948e-19 -0 1.48031e-16 -0 1.4803e-16)
(1.4803e-16 -5.02044e-19 -0 1.48029e-16 -0 1.4803e-16)
(1.4803e-16 -5.3072e-19 -0 1.48029e-16 -0 1.4803e-16)
(1.48029e-16 -5.30692e-19 -0 1.4803e-16 -0 1.4803e-16)
(1.48029e-16 -5.29982e-19 -0 1.48031e-16 -0 1.4803e-16)
(1.4803e-16 -5.30093e-19 -0 1.48029e-16 -0 1.4803e-16)
(1.4803e-16 -5.38081e-19 -0 1.48029e-16 -0 1.4803e-16)
(1.48029e-16 -5.37712e-19 -0 1.4803e-16 -0 1.4803e-16)
(1.48029e-16 -5.35873e-19 -0 1.48031e-16 -0 1.4803e-16)
(1.48031e-16 -5.35872e-19 -0 1.48029e-16 -0 1.4803e-16)
(1.48031e-16 -5.26891e-19 -0 1.48029e-16 -0 1.4803e-16)
(1.48029e-16 -5.25973e-19 -0 1.4803e-16 -0 1.4803e-16)
(1.48028e-16 -5.22452e-19 -0 1.48031e-16 -0 1.48029e-16)
(1.48031e-16 -5.22382e-19 -0 1.48029e-16 -0 1.4803e-16)
(1.48031e-16 -5.0031e-19 -0 1.48029e-16 -0 1.4803e-16)
(1.48029e-16 -4.99088e-19 -0 1.4803e-16 -0 1.4803e-16)
(1.48028e-16 -4.93047e-19 -0 1.48031e-16 -0 1.48029e-16)
(1.48031e-16 -4.92369e-19 -0 1.48029e-16 -0 1.4803e-16)
(1.48031e-16 -4.62144e-19 -0 1.48029e-16 -0 1.4803e-16)
(1.48029e-16 -4.61655e-19 -0 1.4803e-16 -0 1.4803e-16)
(1.48028e-16 -4.52513e-19 -0 1.48032e-16 -0 1.48029e-16)
(1.48031e-16 -4.50891e-19 -0 1.48028e-16 -0 1.4803e-16)
(1.48031e-16 -4.14664e-19 -0 1.48028e-16 -0 1.4803e-16)
(1.48029e-16 -4.18027e-19 -0 1.4803e-16 -0 1.4803e-16)
(1.48028e-16 -4.05392e-19 -0 1.48032e-16 -0 1.48029e-16)
(1.48031e-16 -4.00523e-19 -0 1.48028e-16 -0 1.4803e-16)
(1.48031e-16 -3.65557e-19 -0 1.48028e-16 -0 1.4803e-16)
(1.48029e-16 -3.72133e-19 -0 1.4803e-16 -0 1.4803e-16)
(1.48028e-16 -3.51597e-19 -0 1.48032e-16 -0 1.48029e-16)
(1.48031e-16 -3.44913e-19 -0 1.48028e-16 -0 1.4803e-16)
)
;

boundaryField
{
    topWall
    {
        type            kqRWallFunction;
        value           nonuniform List<symmTensor> 0();
    }
    botWall
    {
        type            kqRWallFunction;
        value           uniform (1.4803e-16 -0 -0 1.4803e-16 -0 1.4803e-16);
    }
    inlet
    {
        type            cyclic;
    }
    outlet
    {
        type            cyclic;
    }
    fixWall
    {
        type            empty;
    }
    procBoundary0to1
    {
        type            processor;
        value           nonuniform List<symmTensor> 8((1.48028e-16 -3.04146e-19 -0 1.48031e-16 -0 1.4803e-16) (1.48026e-16 -2.9089e-19 -0 1.48034e-16 -0 1.4803e-16) (1.4803e-16 -3.01292e-19 -0 1.4803e-16 -0 1.4803e-16) (1.48033e-16 -3.15515e-19 -0 1.48026e-16 -0 1.4803e-16) (1.48032e-16 -3.16641e-19 -0 1.48028e-16 -0 1.4803e-16) (1.4803e-16 -3.23443e-19 -0 1.48029e-16 -0 1.4803e-16) (1.48029e-16 -3.01159e-19 -0 1.48031e-16 -0 1.48029e-16) (1.48031e-16 -2.93377e-19 -0 1.48028e-16 -0 1.4803e-16));
    }
}


// ************************************************************************* //
