/*--------------------------------*- C++ -*----------------------------------*\
  =========                 |
  \\      /  F ield         | OpenFOAM: The Open Source CFD Toolbox
   \\    /   O peration     | Website:  https://openfoam.org
    \\  /    A nd           | Version:  dev
     \\/     M anipulation  |

   OpenFOAM for Windows 20.09 (v1)
   Built by CFD Support, www.cfdsupport.com (based on Symscape).
\*---------------------------------------------------------------------------*/
FoamFile
{
    version     2.0;
    format      ascii;
    class       volVectorField;
    location    "2";
    object      U;
}
// * * * * * * * * * * * * * * * * * * * * * * * * * * * * * * * * * * * * * //

dimensions      [0 1 -1 0 0 0 0];

internalField   nonuniform List<vector> 
120
(
(0.00154616 1.42231e-06 0)
(0.0015558 -3.9643e-08 0)
(0.00156403 -1.12965e-09 0)
(0.00155757 -6.92652e-09 0)
(0.00421903 -2.70388e-07 0)
(0.00424816 -4.22291e-07 0)
(0.00426251 3.11325e-08 0)
(0.00424226 1.65355e-07 0)
(0.00649969 9.08135e-07 0)
(0.00654237 -8.02769e-07 0)
(0.00656218 1.02024e-07 0)
(0.00652969 4.63985e-07 0)
(0.00842894 -5.49974e-07 0)
(0.00848066 -1.4582e-06 0)
(0.00850452 2.46181e-07 0)
(0.00846252 9.43558e-07 0)
(0.0100475 3.32989e-07 0)
(0.0101045 -2.03372e-06 0)
(0.0101305 4.05467e-07 0)
(0.010082 1.46717e-06 0)
(0.0113926 -1.07602e-06 0)
(0.0114528 -2.85915e-06 0)
(0.0114796 6.24237e-07 0)
(0.0114269 2.1308e-06 0)
(0.0125001 1.55671e-07 0)
(0.0125619 -3.45628e-06 0)
(0.0125888 8.39911e-07 0)
(0.0125336 2.72143e-06 0)
(0.0134028 -1.40455e-06 0)
(0.0134654 -4.35336e-06 0)
(0.0134922 1.1e-06 0)
(0.0134357 3.48419e-06 0)
(0.0141315 -3.78635e-07 0)
(0.0141943 -4.9108e-06 0)
(0.0142209 1.33368e-06 0)
(0.0141639 4.06222e-06 0)
(0.0147139 -1.606e-06 0)
(0.0147763 -5.83895e-06 0)
(0.0148027 1.61169e-06 0)
(0.0147461 4.87637e-06 0)
(0.0151743 -1.05302e-06 0)
(0.0152362 -6.36559e-06 0)
(0.0152628 1.83863e-06 0)
(0.0152073 5.42229e-06 0)
(0.0155352 -1.84586e-06 0)
(0.0155954 -7.26499e-06 0)
(0.0156219 2.08843e-06 0)
(0.015569 6.19896e-06 0)
(0.0158141 -1.69139e-06 0)
(0.015873 -7.81019e-06 0)
(0.0159006 2.29966e-06 0)
(0.0158504 6.71707e-06 0)
(0.0160286 -2.21889e-06 0)
(0.0160842 -8.57396e-06 0)
(0.0161129 2.46365e-06 0)
(0.0160667 7.38937e-06 0)
(0.0161896 -2.25585e-06 0)
(0.0162437 -9.40141e-06 0)
(0.0162761 2.6003e-06 0)
(0.016232 7.89175e-06 0)
(0.00155346 2.51867e-08 0)
(0.0015446 6.39597e-08 0)
(0.00155576 -1.39632e-07 0)
(0.00156151 6.20966e-08 0)
(0.00423098 2.10166e-07 0)
(0.00421434 1.50258e-07 0)
(0.00424016 -5.53088e-07 0)
(0.00424802 2.78452e-07 0)
(0.00651262 4.19528e-07 0)
(0.00649458 2.03321e-07 0)
(0.00652965 -1.17584e-06 0)
(0.00653756 7.41606e-07 0)
(0.00844112 7.76983e-07 0)
(0.00842459 2.17999e-07 0)
(0.00846547 -1.78729e-06 0)
(0.00847232 1.13469e-06 0)
(0.0100577 9.76528e-07 0)
(0.010043 1.3362e-07 0)
(0.0100874 -2.5339e-06 0)
(0.0100936 1.74924e-06 0)
(0.0114006 1.44089e-06 0)
(0.0113875 6.46701e-08 0)
(0.0114339 -3.16203e-06 0)
(0.0114395 2.16234e-06 0)
(0.0125062 1.53875e-06 0)
(0.0124939 -8.52896e-08 0)
(0.0125413 -3.95608e-06 0)
(0.0125469 2.83324e-06 0)
(0.0134077 2.13975e-06 0)
(0.0133959 -1.83881e-07 0)
(0.0134435 -4.57395e-06 0)
(0.0134491 3.22333e-06 0)
(0.0141359 2.09446e-06 0)
(0.014124 -3.38566e-07 0)
(0.0141708 -5.40106e-06 0)
(0.0141768 3.90296e-06 0)
(0.0147183 2.83316e-06 0)
(0.0147065 -4.3059e-07 0)
(0.014752 -5.99031e-06 0)
(0.014758 4.27985e-06 0)
(0.0151799 2.69828e-06 0)
(0.0151674 -5.39428e-07 0)
(0.0152103 -6.80954e-06 0)
(0.0152164 4.89287e-06 0)
(0.0155425 3.43896e-06 0)
(0.0155294 -6.19721e-07 0)
(0.0155691 -7.3745e-06 0)
(0.015575 5.33995e-06 0)
(0.0158243 3.31858e-06 0)
(0.0158103 -6.8351e-07 0)
(0.0158451 -8.04933e-06 0)
(0.0158503 5.80268e-06 0)
(0.0160411 4.04223e-06 0)
(0.0160275 -5.74497e-07 0)
(0.0160571 -8.66915e-06 0)
(0.0160612 6.33612e-06 0)
(0.0162046 4.14263e-06 0)
(0.0161937 -6.69854e-07 0)
(0.0162166 -9.07787e-06 0)
(0.0162174 6.65647e-06 0)
)
;

boundaryField
{
    topWall
    {
        type            noSlip;
    }
    botWall
    {
        type            noSlip;
    }
    inlet
    {
        type            cyclic;
    }
    outlet
    {
        type            cyclic;
    }
    fixWall
    {
        type            empty;
    }
    procBoundary0to1
    {
        type            processor;
        value           nonuniform List<vector> 8((0.0163107 -2.73212e-06 0) (0.0163582 -9.917e-06 0) (0.0163936 2.67616e-06 0) (0.0163555 8.45567e-06 0) (0.0163297 4.55341e-06 0) (0.0163213 -4.95502e-07 0) (0.0163343 -9.51904e-06 0) (0.0163333 7.08928e-06 0));
    }
}


// ************************************************************************* //
