/*--------------------------------*- C++ -*----------------------------------*\
  =========                 |
  \\      /  F ield         | OpenFOAM: The Open Source CFD Toolbox
   \\    /   O peration     | Website:  https://openfoam.org
    \\  /    A nd           | Version:  dev
     \\/     M anipulation  |

   OpenFOAM for Windows 20.09 (v1)
   Built by CFD Support, www.cfdsupport.com (based on Symscape).
\*---------------------------------------------------------------------------*/
FoamFile
{
    version     2.0;
    format      ascii;
    class       surfaceScalarField;
    location    "4";
    object      alphaPhi0.water;
}
// * * * * * * * * * * * * * * * * * * * * * * * * * * * * * * * * * * * * * //

dimensions      [0 3 -1 0 0 0 0];

internalField   nonuniform List<scalar> 
217
(
1.51815e-09
5.61738e-12
1.521e-09
-2.965e-12
1.52518e-09
-4.22746e-12
1.35785e-11
1.51162e-09
4.19631e-09
8.21885e-12
4.19828e-09
-4.94839e-12
4.20646e-09
-1.24395e-11
4.31983e-11
4.17686e-09
6.53141e-09
1.82838e-11
6.53887e-09
-1.23917e-11
6.54633e-09
-1.99158e-11
8.31214e-11
6.50642e-09
8.56086e-09
3.13818e-11
8.5732e-09
-2.47114e-11
8.57772e-09
-2.44528e-11
1.30623e-10
8.53023e-09
1.03126e-08
4.58552e-11
1.03294e-08
-4.14957e-11
1.03303e-08
-2.54177e-11
1.83498e-10
1.02775e-08
1.18144e-08
6.07558e-11
1.18348e-08
-6.19052e-11
1.1833e-08
-2.35807e-11
2.40248e-10
1.17762e-08
1.3093e-08
7.57549e-11
1.31165e-08
-8.54093e-11
1.31127e-08
-1.98491e-11
2.99589e-10
1.30534e-08
1.41741e-08
9.05562e-11
1.42003e-08
-1.11614e-10
1.41954e-08
-1.49239e-11
3.60676e-10
1.41343e-08
1.50817e-08
1.05103e-10
1.511e-08
-1.39914e-10
1.51049e-08
-9.82608e-12
4.22404e-10
1.50431e-08
1.58377e-08
1.1925e-10
1.58684e-08
-1.70656e-10
1.58633e-08
-4.6714e-12
4.83943e-10
1.58018e-08
1.64626e-08
1.32826e-10
1.64952e-08
-2.03291e-10
1.64912e-08
-5.73318e-13
5.44193e-10
1.64309e-08
1.69746e-08
1.45933e-10
1.70098e-08
-2.3844e-10
1.70067e-08
2.52684e-12
6.02364e-10
1.69485e-08
1.73904e-08
1.59162e-10
1.74273e-08
-2.75355e-10
1.74263e-08
3.64446e-12
6.5671e-10
1.73719e-08
1.77243e-08
1.71294e-10
1.77644e-08
-3.15439e-10
1.77641e-08
4.06263e-12
7.0513e-10
1.77157e-08
1.79912e-08
1.80291e-08
1.80363e-08
1.79887e-08
1.50879e-09
2.88698e-12
1.51248e-09
-3.71439e-12
1.51443e-09
-2.03233e-12
-7.77347e-12
4.16883e-09
1.0935e-11
4.17906e-09
-1.39256e-11
4.19395e-09
-1.69196e-11
-1.26002e-11
6.49414e-09
2.3197e-11
6.50954e-09
-2.92815e-11
6.5358e-09
-4.31244e-11
-1.81178e-11
8.51518e-09
3.82394e-11
8.53285e-09
-4.69279e-11
8.5679e-09
-7.81391e-11
-2.40219e-11
1.02595e-08
5.61655e-11
1.02793e-08
-6.6647e-11
1.03198e-08
-1.18671e-10
-3.1163e-11
1.17561e-08
7.62518e-11
1.17766e-08
-8.7125e-11
1.18215e-08
-1.63547e-10
-3.89278e-11
1.30317e-08
9.7966e-11
1.30525e-08
-1.07955e-10
1.31e-08
-2.11059e-10
-4.69067e-11
1.41114e-08
1.20857e-10
1.41322e-08
-1.28776e-10
1.41809e-08
-2.59801e-10
-5.4941e-11
1.50196e-08
1.44414e-10
1.50402e-08
-1.49406e-10
1.50888e-08
-3.08404e-10
-6.24734e-11
1.57777e-08
1.68443e-10
1.57984e-08
-1.70126e-10
1.58452e-08
-3.55261e-10
-6.91766e-11
1.64076e-08
1.91729e-10
1.64275e-08
-1.9e-10
1.6473e-08
-4.00785e-10
-7.24922e-11
1.69263e-08
2.13974e-10
1.69464e-08
-2.10163e-10
1.6988e-08
-4.42372e-10
-7.23258e-11
1.73519e-08
2.33925e-10
1.73728e-08
-2.31056e-10
1.7409e-08
-4.78537e-10
-6.70558e-11
1.76981e-08
2.51464e-10
1.77198e-08
-2.52831e-10
1.77514e-08
-5.10037e-10
-5.22204e-11
1.79787e-08
1.80029e-08
1.80309e-08
)
;

boundaryField
{
    topWall
    {
        type            calculated;
        value           nonuniform List<scalar> 0();
    }
    botWall
    {
        type            calculated;
        value           uniform 0;
    }
    inlet
    {
        type            cyclic;
        value           nonuniform List<scalar> 
15
(
-1.80004e-08
-1.77365e-08
-1.74037e-08
-1.69878e-08
-1.64763e-08
-1.58519e-08
-1.50963e-08
-1.41889e-08
-1.3108e-08
-1.18292e-08
-1.0327e-08
-8.57385e-09
-6.54135e-09
-4.19878e-09
-1.52217e-09
)
;
    }
    outlet
    {
        type            cyclic;
        value           nonuniform List<scalar> 
15
(
1.80004e-08
1.77365e-08
1.74037e-08
1.69878e-08
1.64763e-08
1.58519e-08
1.50963e-08
1.41889e-08
1.3108e-08
1.18292e-08
1.0327e-08
8.57385e-09
6.54135e-09
4.19878e-09
1.52217e-09
)
;
    }
    fixWall
    {
        type            empty;
        value           nonuniform List<scalar> 0();
    }
    procBoundary0to1
    {
        type            processor;
        value           nonuniform List<scalar> 8(1.79924e-10 -3.55158e-10 -2.38855e-12 7.51235e-10 2.62316e-10 -2.77846e-10 -5.36681e-10 -2.09947e-11);
    }
}


// ************************************************************************* //
