/*--------------------------------*- C++ -*----------------------------------*\
  =========                 |
  \\      /  F ield         | OpenFOAM: The Open Source CFD Toolbox
   \\    /   O peration     | Website:  https://openfoam.org
    \\  /    A nd           | Version:  dev
     \\/     M anipulation  |

   OpenFOAM for Windows 20.09 (v1)
   Built by CFD Support, www.cfdsupport.com (based on Symscape).
\*---------------------------------------------------------------------------*/
FoamFile
{
    version     2.0;
    format      ascii;
    class       volSymmTensorField;
    location    "4";
    object      devReff;
}
// * * * * * * * * * * * * * * * * * * * * * * * * * * * * * * * * * * * * * //

dimensions      [0 2 -2 0 0 0 0];

internalField   nonuniform List<symmTensor> 
120
(
(8.47629e-07 -0.000788775 -0 -1.58719e-06 -0 7.39563e-07)
(-7.2903e-08 -0.000786025 -0 1.30712e-07 -0 -5.78089e-08)
(-3.29899e-08 -0.000791305 -0 2.79946e-08 -0 4.99525e-09)
(7.66252e-08 -0.000787635 -0 -8.12618e-08 -0 4.6366e-09)
(-1.38484e-07 -0.000693187 -0 3.99758e-07 -0 -2.61274e-07)
(-1.32277e-07 -0.000693967 -0 1.95302e-07 -0 -6.30254e-08)
(-1.25353e-08 -0.000696411 -0 1.01392e-08 -0 2.39611e-09)
(2.11842e-07 -0.000692535 -0 -2.12741e-07 -0 8.99195e-10)
(3.43491e-07 -0.000604931 -0 -5.59749e-07 -0 2.16258e-07)
(-1.7697e-07 -0.000605747 -0 2.31439e-07 -0 -5.44692e-08)
(1.03216e-08 -0.00060783 -0 -1.0961e-08 -0 6.39398e-10)
(3.21484e-07 -0.000604559 -0 -3.21412e-07 -0 -7.21998e-11)
(-1.82139e-07 -0.000524818 -0 5.14316e-07 -0 -3.32177e-07)
(-2.20124e-07 -0.00052555 -0 2.74495e-07 -0 -5.43711e-08)
(2.96238e-08 -0.000527145 -0 -3.39854e-08 -0 4.36155e-09)
(4.03741e-07 -0.000524535 -0 -4.0612e-07 -0 2.37869e-09)
(2.8522e-07 -0.000452527 -0 -4.06851e-07 -0 1.21631e-07)
(-2.55418e-07 -0.000453457 -0 3.11012e-07 -0 -5.55943e-08)
(4.19464e-08 -0.000454418 -0 -4.01636e-08 -0 -1.78279e-09)
(4.59912e-07 -0.000452373 -0 -4.61686e-07 -0 1.77396e-09)
(2.56625e-07 -0.000387698 -0 -3.44388e-07 -0 8.77631e-08)
(-2.77626e-07 -0.00038878 -0 3.26859e-07 -0 -4.92327e-08)
(6.66836e-08 -0.000389312 -0 -7.15688e-08 -0 4.88525e-09)
(4.99813e-07 -0.000387781 -0 -5.02005e-07 -0 2.19214e-09)
(2.86168e-07 -0.000329991 -0 -4.06933e-07 -0 1.20765e-07)
(-3.05338e-07 -0.000331046 -0 3.57577e-07 -0 -5.22396e-08)
(7.31187e-08 -0.000331366 -0 -6.88338e-08 -0 -4.28492e-09)
(5.26892e-07 -0.000330336 -0 -5.2898e-07 -0 2.0879e-09)
(2.20491e-07 -0.000278925 -0 -2.81268e-07 -0 6.07776e-08)
(-3.18188e-07 -0.000279921 -0 3.62785e-07 -0 -4.4597e-08)
(9.07575e-08 -0.000280148 -0 -9.5525e-08 -0 4.76751e-09)
(5.41483e-07 -0.000279558 -0 -5.43063e-07 -0 1.57965e-09)
(2.4733e-07 -0.000234071 -0 -3.43881e-07 -0 9.65514e-08)
(-3.39909e-07 -0.000235008 -0 3.86794e-07 -0 -4.68855e-08)
(8.53581e-08 -0.000235175 -0 -8.06421e-08 -0 -4.71597e-09)
(5.49074e-07 -0.000235022 -0 -5.51016e-07 -0 1.94199e-09)
(2.09523e-07 -0.000194879 -0 -2.76191e-07 -0 6.66681e-08)
(-3.49693e-07 -0.000195915 -0 3.89975e-07 -0 -4.02814e-08)
(9.14611e-08 -0.000195986 -0 -9.67376e-08 -0 5.27654e-09)
(5.44022e-07 -0.00019616 -0 -5.45614e-07 -0 1.59225e-09)
(2.1837e-07 -0.000160932 -0 -3.05474e-07 -0 8.71045e-08)
(-3.71241e-07 -0.000162068 -0 4.13733e-07 -0 -4.24923e-08)
(7.61425e-08 -0.000161998 -0 -6.96352e-08 -0 -6.50733e-09)
(5.33242e-07 -0.000162539 -0 -5.35627e-07 -0 2.38524e-09)
(1.87909e-07 -0.000131662 -0 -2.51724e-07 -0 6.38156e-08)
(-3.84252e-07 -0.00013315 -0 4.24898e-07 -0 -4.0646e-08)
(6.90819e-08 -0.000132774 -0 -6.6867e-08 -0 -2.21484e-09)
(5.06816e-07 -0.000133651 -0 -5.08285e-07 -0 1.46965e-09)
(1.89676e-07 -0.000106373 -0 -2.70409e-07 -0 8.07328e-08)
(-3.88408e-07 -0.000108343 -0 4.12556e-07 -0 -2.41475e-08)
(7.38655e-08 -0.000107795 -0 -8.08737e-08 -0 7.00817e-09)
(4.74553e-07 -0.000109021 -0 -4.80219e-07 -0 5.66535e-09)
(1.79108e-07 -8.47225e-05 -0 -2.48785e-07 -0 6.9677e-08)
(-4.40298e-07 -8.74614e-05 -0 4.91292e-07 -0 -5.09936e-08)
(3.05425e-08 -8.66231e-05 -0 -1.14734e-08 -0 -1.90691e-08)
(4.15756e-07 -8.81068e-05 -0 -4.169e-07 -0 1.14367e-09)
(1.54338e-07 -6.63725e-05 -0 -2.1091e-07 -0 5.65721e-08)
(-4.56782e-07 -6.98685e-05 -0 4.87866e-07 -0 -3.10837e-08)
(6.34879e-08 -6.8696e-05 -0 -8.06196e-08 -0 1.71317e-08)
(3.3245e-07 -7.05315e-05 -0 -3.19309e-07 -0 -1.31404e-08)
(4.9382e-08 -0.000782817 -0 -5.70127e-08 -0 7.63071e-09)
(-4.34475e-08 -0.000783143 -0 4.61831e-08 -0 -2.73556e-09)
(-1.07031e-07 -0.000786851 -0 1.02231e-07 -0 4.80041e-09)
(-7.60891e-08 -0.000792995 -0 1.35996e-07 -0 -5.99065e-08)
(1.13146e-07 -0.000688921 -0 -1.18315e-07 -0 5.16903e-09)
(-9.26349e-08 -0.000689023 -0 9.15247e-08 -0 1.11016e-09)
(-2.10538e-07 -0.000691512 -0 2.0524e-07 -0 5.29761e-09)
(-1.133e-07 -0.000694537 -0 1.78654e-07 -0 -6.53534e-08)
(1.67659e-07 -0.000602111 -0 -1.76573e-07 -0 8.91406e-09)
(-1.28356e-07 -0.000601897 -0 1.2963e-07 -0 -1.27345e-09)
(-2.91801e-07 -0.000603907 -0 2.87941e-07 -0 3.85929e-09)
(-1.24634e-07 -0.000606599 -0 1.77295e-07 -0 -5.2661e-08)
(2.03812e-07 -0.000523036 -0 -2.11063e-07 -0 7.25093e-09)
(-1.54091e-07 -0.000522641 -0 1.54612e-07 -0 -5.20509e-10)
(-3.70918e-07 -0.00052436 -0 3.69974e-07 -0 9.43996e-10)
(-1.36891e-07 -0.000526652 -0 1.91742e-07 -0 -5.48516e-08)
(2.30532e-07 -0.000451512 -0 -2.3942e-07 -0 8.8874e-09)
(-1.73117e-07 -0.000451002 -0 1.75107e-07 -0 -1.99008e-09)
(-4.26297e-07 -0.000452408 -0 4.23629e-07 -0 2.66711e-09)
(-1.41827e-07 -0.000454046 -0 1.96466e-07 -0 -5.46387e-08)
(2.49985e-07 -0.000387287 -0 -2.58053e-07 -0 8.06815e-09)
(-1.84092e-07 -0.000386702 -0 1.84922e-07 -0 -8.29958e-10)
(-4.71634e-07 -0.000387817 -0 4.70691e-07 -0 9.43056e-10)
(-1.37676e-07 -0.000388857 -0 1.89386e-07 -0 -5.17101e-08)
(2.64537e-07 -0.000330067 -0 -2.71945e-07 -0 7.40821e-09)
(-1.90553e-07 -0.000329534 -0 1.92584e-07 -0 -2.03087e-09)
(-4.97844e-07 -0.000330297 -0 4.95752e-07 -0 2.0921e-09)
(-1.33972e-07 -0.000330805 -0 1.84759e-07 -0 -5.07876e-08)
(2.77623e-07 -0.00027944 -0 -2.87186e-07 -0 9.56267e-09)
(-1.90573e-07 -0.000279018 -0 1.9057e-07 -0 3.85675e-12)
(-5.13188e-07 -0.000279508 -0 5.12612e-07 -0 5.75512e-10)
(-1.21808e-07 -0.000279517 -0 1.67881e-07 -0 -4.60729e-08)
(2.80532e-07 -0.000235054 -0 -2.86689e-07 -0 6.1572e-09)
(-1.92654e-07 -0.00023476 -0 1.94963e-07 -0 -2.30943e-09)
(-5.15572e-07 -0.000235046 -0 5.15916e-07 -0 -3.44452e-10)
(-1.09642e-07 -0.000234545 -0 1.55521e-07 -0 -4.58782e-08)
(2.85527e-07 -0.000196422 -0 -2.95151e-07 -0 9.62441e-09)
(-1.9193e-07 -0.000196269 -0 1.94109e-07 -0 -2.17833e-09)
(-5.03709e-07 -0.000196448 -0 5.02477e-07 -0 1.23242e-09)
(-8.23483e-08 -0.000195375 -0 1.21431e-07 -0 -3.90827e-08)
(2.78228e-07 -0.000163051 -0 -2.86756e-07 -0 8.52833e-09)
(-1.90061e-07 -0.000163058 -0 1.89559e-07 -0 5.01798e-10)
(-4.88085e-07 -0.000163264 -0 4.92555e-07 -0 -4.47011e-09)
(-5.34916e-08 -0.000161558 -0 9.54378e-08 -0 -4.19463e-08)
(2.65452e-07 -0.000134566 -0 -2.73474e-07 -0 8.02168e-09)
(-1.9737e-07 -0.000134545 -0 1.98672e-07 -0 -1.30188e-09)
(-4.46663e-07 -0.000134905 -0 4.40505e-07 -0 6.15763e-09)
(-9.38205e-09 -0.000132536 -0 5.30928e-08 -0 -4.37108e-08)
(2.43336e-07 -0.000110443 -0 -2.48112e-07 -0 4.77649e-09)
(-2.0846e-07 -0.000110382 -0 2.1593e-07 -0 -7.47001e-09)
(-4.21476e-07 -0.000111123 -0 4.28592e-07 -0 -7.11597e-09)
(7.37643e-08 -0.000107964 -0 -5.11665e-08 -0 -2.25978e-08)
(2.12957e-07 -9.02416e-05 -0 -2.15265e-07 -0 2.30748e-09)
(-2.14905e-07 -8.99491e-05 -0 2.12077e-07 -0 2.8281e-09)
(-3.66386e-07 -9.11402e-05 -0 3.6308e-07 -0 3.30608e-09)
(1.39439e-07 -8.71908e-05 -0 -8.64534e-08 -0 -5.29857e-08)
(1.7386e-07 -7.41171e-05 -0 -1.72136e-07 -0 -1.72351e-09)
(-2.20237e-07 -7.3379e-05 -0 2.10663e-07 -0 9.57377e-09)
(-3.21095e-07 -7.46645e-05 -0 3.22484e-07 -0 -1.38956e-09)
(2.94231e-07 -7.00614e-05 -0 -2.78542e-07 -0 -1.56886e-08)
)
;

boundaryField
{
    topWall
    {
        type            calculated;
        value           nonuniform List<symmTensor> 0();
    }
    botWall
    {
        type            calculated;
        value           nonuniform List<symmTensor> 8((3.62073e-06 -0.000838182 -0 -7.1334e-06 -0 3.51267e-06) (-3.36536e-08 -0.000832167 -0 5.22132e-08 -0 -1.85596e-08) (-2.92664e-08 -0.000839993 -0 2.05477e-08 -0 8.71868e-09) (5.56913e-08 -0.000836747 -0 -3.9394e-08 -0 -1.62973e-08) (3.48506e-08 -0.000831354 -0 -2.795e-08 -0 -6.90061e-09) (-3.85473e-08 -0.000831737 -0 3.63826e-08 -0 2.16466e-09) (-8.97606e-08 -0.00083624 -0 6.76895e-08 -0 2.20712e-08) (-3.85771e-08 -0.000845179 -0 6.09716e-08 -0 -2.23945e-08));
    }
    inlet
    {
        type            cyclic;
    }
    outlet
    {
        type            cyclic;
    }
    fixWall
    {
        type            empty;
    }
    procBoundary0to1
    {
        type            processor;
        value           nonuniform List<symmTensor> 8((1.58419e-07 -5.32081e-05 -0 -2.03284e-07 -0 4.48651e-08) (-5.10344e-07 -5.57906e-05 -0 5.56046e-07 -0 -4.57022e-08) (2.89263e-08 -5.44404e-05 -0 -2.92596e-08 -0 3.33258e-10) (2.28784e-07 -5.65295e-05 -0 -2.26538e-07 -0 -2.24597e-09) (1.08007e-07 -6.00014e-05 -0 -1.0193e-07 -0 -6.07775e-09) (-2.17029e-07 -5.90644e-05 -0 1.99309e-07 -0 1.77194e-08) (-2.92562e-07 -5.92228e-05 -0 3.28893e-07 -0 -3.63302e-08) (4.61975e-07 -5.54913e-05 -0 -4.5559e-07 -0 -6.38513e-09));
    }
}


// ************************************************************************* //
