/*--------------------------------*- C++ -*----------------------------------*\
  =========                 |
  \\      /  F ield         | OpenFOAM: The Open Source CFD Toolbox
   \\    /   O peration     | Website:  https://openfoam.org
    \\  /    A nd           | Version:  dev
     \\/     M anipulation  |

   OpenFOAM for Windows 20.09 (v1)
   Built by CFD Support, www.cfdsupport.com (based on Symscape).
\*---------------------------------------------------------------------------*/
FoamFile
{
    version     2.0;
    format      ascii;
    class       volScalarField;
    location    "4";
    object      epsilon;
}
// * * * * * * * * * * * * * * * * * * * * * * * * * * * * * * * * * * * * * //

dimensions      [0 2 -3 0 0 0 0];

internalField   nonuniform List<scalar> 
120
(
1.73748e-12
1.73748e-12
1.73748e-12
1.73748e-12
2.99643e-13
2.99641e-13
2.99641e-13
2.99641e-13
1.01972e-13
1.0197e-13
1.01971e-13
1.01971e-13
4.79212e-14
4.79202e-14
4.79205e-14
4.79206e-14
2.70291e-14
2.70284e-14
2.70287e-14
2.70288e-14
1.71881e-14
1.71876e-14
1.71878e-14
1.71879e-14
1.18448e-14
1.18444e-14
1.18446e-14
1.18448e-14
8.64008e-15
8.63972e-15
8.63991e-15
8.6401e-15
6.57352e-15
6.57319e-15
6.57339e-15
6.57358e-15
5.16582e-15
5.16551e-15
5.16572e-15
5.16589e-15
4.165e-15
4.16472e-15
4.16493e-15
4.16509e-15
3.42868e-15
3.42842e-15
3.42864e-15
3.42878e-15
2.87159e-15
2.87135e-15
2.87158e-15
2.8717e-15
2.44022e-15
2.44001e-15
2.44023e-15
2.44034e-15
2.09961e-15
2.09943e-15
2.09965e-15
2.09974e-15
1.73748e-12
1.73748e-12
1.73748e-12
1.73748e-12
2.99642e-13
2.99641e-13
2.99641e-13
2.99641e-13
1.01971e-13
1.01971e-13
1.01971e-13
1.0197e-13
4.79207e-14
4.79204e-14
4.79203e-14
4.79203e-14
2.70288e-14
2.70286e-14
2.70285e-14
2.70285e-14
1.71879e-14
1.71877e-14
1.71876e-14
1.71876e-14
1.18447e-14
1.18445e-14
1.18444e-14
1.18444e-14
8.63999e-15
8.63979e-15
8.63969e-15
8.63978e-15
6.57346e-15
6.57326e-15
6.57316e-15
6.57326e-15
5.16578e-15
5.16559e-15
5.16548e-15
5.1656e-15
4.16499e-15
4.1648e-15
4.1647e-15
4.16482e-15
3.42869e-15
3.42851e-15
3.4284e-15
3.42853e-15
2.87162e-15
2.87145e-15
2.87135e-15
2.87148e-15
2.44026e-15
2.44011e-15
2.44001e-15
2.44015e-15
2.09967e-15
2.09953e-15
2.09944e-15
2.09959e-15
)
;

boundaryField
{
    topWall
    {
        type            epsilonWallFunction;
        value           nonuniform List<scalar> 0();
    }
    botWall
    {
        type            epsilonWallFunction;
        value           nonuniform List<scalar> 8(1.73748e-12 1.73748e-12 1.73748e-12 1.73748e-12 1.73748e-12 1.73748e-12 1.73748e-12 1.73748e-12);
    }
    inlet
    {
        type            cyclic;
    }
    outlet
    {
        type            cyclic;
    }
    fixWall
    {
        type            empty;
    }
    procBoundary0to1
    {
        type            processor;
        value           nonuniform List<scalar> 8(1.82611e-15 1.82594e-15 1.82616e-15 1.82624e-15 1.82618e-15 1.82605e-15 1.82596e-15 1.82611e-15);
    }
}


// ************************************************************************* //
