/*--------------------------------*- C++ -*----------------------------------*\
  =========                 |
  \\      /  F ield         | OpenFOAM: The Open Source CFD Toolbox
   \\    /   O peration     | Website:  https://openfoam.org
    \\  /    A nd           | Version:  dev
     \\/     M anipulation  |

   OpenFOAM for Windows 20.09 (v1)
   Built by CFD Support, www.cfdsupport.com (based on Symscape).
\*---------------------------------------------------------------------------*/
FoamFile
{
    version     2.0;
    format      ascii;
    class       volVectorField;
    location    "4";
    object      gradp;
}
// * * * * * * * * * * * * * * * * * * * * * * * * * * * * * * * * * * * * * //

dimensions      [1 -2 -2 0 0 0 0];

internalField   nonuniform List<vector> 
120
(
(3.74714 -99.5082 0)
(-1.16484 -98.3056 0)
(-1.22819 -98.113 0)
(-1.25069 -98.117 0)
(3.74422 -99.3452 0)
(-1.14164 -98.3014 0)
(-1.22506 -98.1125 0)
(-1.25074 -98.1163 0)
(3.74423 -97.7545 0)
(-1.1443 -98.0813 0)
(-1.22511 -98.0989 0)
(-1.25072 -98.0983 0)
(3.74416 -97.7346 0)
(-1.14738 -98.0796 0)
(-1.22534 -98.0987 0)
(-1.25079 -98.1008 0)
(3.74443 -97.7454 0)
(-1.15037 -98.0853 0)
(-1.22546 -98.0984 0)
(-1.25093 -98.1014 0)
(3.74442 -97.7562 0)
(-1.15326 -98.0792 0)
(-1.22561 -98.0981 0)
(-1.25093 -98.0992 0)
(3.7444 -97.7647 0)
(-1.15607 -98.0749 0)
(-1.22579 -98.0977 0)
(-1.25094 -98.0991 0)
(3.74439 -97.7728 0)
(-1.15881 -98.0715 0)
(-1.22601 -98.0973 0)
(-1.25094 -98.099 0)
(3.74437 -97.7812 0)
(-1.16147 -98.0699 0)
(-1.22625 -98.0969 0)
(-1.25094 -98.0945 0)
(3.74431 -97.7883 0)
(-1.16407 -98.0666 0)
(-1.22642 -98.0966 0)
(-1.25083 -98.0961 0)
(3.74432 -97.7941 0)
(-1.16661 -98.0619 0)
(-1.22674 -98.0963 0)
(-1.25085 -98.1011 0)
(3.74434 -97.8009 0)
(-1.16911 -98.0277 0)
(-1.22707 -98.0912 0)
(-1.25087 -98.0708 0)
(3.74461 -97.8037 0)
(-1.17145 -98.0003 0)
(-1.22746 -98.0932 0)
(-1.25047 -98.035 0)
(3.74493 -97.8115 0)
(-1.17393 -98.03 0)
(-1.22765 -98.0967 0)
(-1.24997 -96.7886 0)
(3.74491 -97.0571 0)
(-1.1762 -97.7156 0)
(-1.20677 -97.7193 0)
(-1.23732 -97.5023 0)
(-1.24083 -98.1159 0)
(-1.24004 -98.1302 0)
(-1.27811 -98.1135 0)
(3.65558 -98.1305 0)
(-1.24105 -98.1143 0)
(-1.24 -98.13 0)
(-1.27811 -98.113 0)
(3.63238 -98.1273 0)
(-1.24106 -98.1018 0)
(-1.24002 -98.1013 0)
(-1.27806 -98.1021 0)
(3.63504 -98.0776 0)
(-1.2411 -98.1111 0)
(-1.24 -98.1111 0)
(-1.27772 -98.102 0)
(3.63817 -98.0916 0)
(-1.24124 -98.107 0)
(-1.23987 -98.1102 0)
(-1.27774 -98.1019 0)
(3.64116 -98.1006 0)
(-1.24125 -98.0984 0)
(-1.23992 -98.1009 0)
(-1.27756 -98.1016 0)
(3.64411 -98.0774 0)
(-1.24127 -98.0981 0)
(-1.23992 -98.101 0)
(-1.27735 -98.0981 0)
(3.64692 -98.0734 0)
(-1.24128 -98.0977 0)
(-1.23992 -98.101 0)
(-1.2771 -98.0976 0)
(3.64967 -98.0695 0)
(-1.2413 -98.0903 0)
(-1.23992 -98.0996 0)
(-1.27682 -98.0964 0)
(3.65233 -98.0651 0)
(-1.24137 -98.0909 0)
(-1.24002 -98.1004 0)
(-1.27652 -98.096 0)
(3.65492 -98.0636 0)
(-1.24137 -98.0985 0)
(-1.24 -98.1035 0)
(-1.27621 -98.0984 0)
(3.65746 -98.0639 0)
(-1.24141 -98.0684 0)
(-1.24002 -98.1006 0)
(-1.27586 -98.0981 0)
(3.65999 -98.0449 0)
(-1.24187 -98.0393 0)
(-1.2405 -98.0902 0)
(-1.27528 -98.0959 0)
(3.66242 -98.0354 0)
(-1.24233 -97.3078 0)
(-1.24096 -98.0828 0)
(-1.27495 -98.0835 0)
(3.66486 -98.0479 0)
(-1.26344 -97.7195 0)
(-1.25343 -97.9468 0)
(-1.2747 -97.9536 0)
(3.66695 -97.0155 0)
)
;

boundaryField
{
    topWall
    {
        type            extrapolatedCalculated;
        value           nonuniform List<vector> 0();
    }
    botWall
    {
        type            extrapolatedCalculated;
        value           nonuniform List<vector> 8((3.74714 -98.1053 0) (-1.16484 -98.1008 0) (-1.22819 -98.1001 0) (-1.25069 -98.0999 0) (-1.24083 -98.1 0) (-1.24004 -98.1001 0) (-1.27811 -98.1001 0) (3.65558 -98.1001 0));
    }
    inlet
    {
        type            cyclic;
    }
    outlet
    {
        type            cyclic;
    }
    fixWall
    {
        type            empty;
    }
    procBoundary0to1
    {
        type            processor;
        value           nonuniform List<vector> 8((3.73326 -98.3816 0) (-1.18497 -98.2457 0) (-1.2241 -98.4329 0) (-1.24997 -98.7789 0) (-1.24974 -98.4812 0) (-1.24487 -98.6269 0) (-1.25943 -98.5553 0) (3.67981 -99.5629 0));
    }
}


// ************************************************************************* //
