/*--------------------------------*- C++ -*----------------------------------*\
  =========                 |
  \\      /  F ield         | OpenFOAM: The Open Source CFD Toolbox
   \\    /   O peration     | Website:  https://openfoam.org
    \\  /    A nd           | Version:  dev
     \\/     M anipulation  |

   OpenFOAM for Windows 20.09 (v1)
   Built by CFD Support, www.cfdsupport.com (based on Symscape).
\*---------------------------------------------------------------------------*/
FoamFile
{
    version     2.0;
    format      ascii;
    class       volVectorField;
    location    "4";
    object      gradp_rgh;
}
// * * * * * * * * * * * * * * * * * * * * * * * * * * * * * * * * * * * * * //

dimensions      [1 -2 -2 0 0 0 0];

internalField   nonuniform List<vector> 
120
(
(-1.25286 -1.4069 0)
(-1.16487 -0.205336 0)
(-1.2282 -0.0129434 0)
(-1.25069 -0.0169686 0)
(-1.25577 -1.24663 0)
(-1.14163 -0.201661 0)
(-1.22506 -0.0124478 0)
(-1.25074 -0.0161876 0)
(-1.25576 0.34543 0)
(-1.1443 0.0186494 0)
(-1.2251 0.00108207 0)
(-1.25072 0.00181688 0)
(-1.25583 0.365447 0)
(-1.14737 0.0203638 0)
(-1.22534 0.00133462 0)
(-1.25079 -0.000724548 0)
(-1.25556 0.354694 0)
(-1.15037 0.0147227 0)
(-1.22546 0.00158387 0)
(-1.25093 -0.00138768 0)
(-1.25558 0.343876 0)
(-1.15326 0.0209243 0)
(-1.22561 0.00187916 0)
(-1.25093 0.000768489 0)
(-1.2556 0.335438 0)
(-1.15607 0.0252201 0)
(-1.22579 0.00224155 0)
(-1.25094 0.000831525 0)
(-1.25561 0.327286 0)
(-1.15881 0.0285438 0)
(-1.22601 0.00262774 0)
(-1.25094 0.000920266 0)
(-1.25564 0.318923 0)
(-1.16148 0.0300842 0)
(-1.22625 0.0029705 0)
(-1.25095 0.00535231 0)
(-1.2557 0.311824 0)
(-1.16408 0.0333239 0)
(-1.22642 0.00325917 0)
(-1.25083 0.00387549 0)
(-1.25569 0.305991 0)
(-1.16662 0.0378507 0)
(-1.22674 0.00347591 0)
(-1.25085 -0.00104961 0)
(-1.25567 0.299122 0)
(-1.16912 0.0717968 0)
(-1.22707 0.00854332 0)
(-1.25086 0.0295771 0)
(-1.25541 0.296219 0)
(-1.17146 0.0989924 0)
(-1.22745 0.00673874 0)
(-1.25046 0.0657801 0)
(-1.25509 0.295238 0)
(-1.17394 0.0729145 0)
(-1.22763 0.00815007 0)
(-1.24995 1.29575 0)
(-1.25538 1.06068 0)
(-1.17625 0.392351 0)
(-1.20707 0.39092 0)
(-1.23755 0.589725 0)
(-1.24083 -0.0158919 0)
(-1.24004 -0.0301416 0)
(-1.27811 -0.0134433 0)
(-1.3444 -0.0305348 0)
(-1.24105 -0.0142108 0)
(-1.24 -0.0301793 0)
(-1.27812 -0.0129865 0)
(-1.36763 -0.0274682 0)
(-1.24107 -0.00174086 0)
(-1.24002 -0.0014469 0)
(-1.27806 -0.00211283 0)
(-1.36496 0.0221775 0)
(-1.24111 -0.0111337 0)
(-1.24001 -0.0111615 0)
(-1.27772 -0.00198879 0)
(-1.36183 0.00826231 0)
(-1.24124 -0.00702087 0)
(-1.23987 -0.0101294 0)
(-1.27774 -0.00187548 0)
(-1.35884 -0.000498427 0)
(-1.24125 0.00146354 0)
(-1.23992 -0.000772712 0)
(-1.27756 -0.00169785 0)
(-1.35589 0.0228776 0)
(-1.24127 0.00168496 0)
(-1.23992 -0.000808533 0)
(-1.27735 0.00177821 0)
(-1.35308 0.027019 0)
(-1.24128 0.00207063 0)
(-1.23992 -0.000841473 0)
(-1.2771 0.00225692 0)
(-1.35033 0.0309274 0)
(-1.2413 0.00948579 0)
(-1.23992 0.000472904 0)
(-1.27682 0.00344371 0)
(-1.34766 0.0353101 0)
(-1.24136 0.00897091 0)
(-1.24002 -0.00033877 0)
(-1.27652 0.00388728 0)
(-1.34507 0.0365831 0)
(-1.24137 0.001565 0)
(-1.24 -0.00349844 0)
(-1.2762 0.00159623 0)
(-1.34253 0.0362053 0)
(-1.2414 0.0319732 0)
(-1.24002 -0.000572708 0)
(-1.27585 0.0019673 0)
(-1.34 0.0550556 0)
(-1.24187 0.0613388 0)
(-1.2405 0.00967165 0)
(-1.27527 0.00427155 0)
(-1.33758 0.064492 0)
(-1.24234 0.78285 0)
(-1.24097 0.0240475 0)
(-1.27494 0.0229556 0)
(-1.33513 0.0709254 0)
(-1.26306 0.375418 0)
(-1.25317 0.162549 0)
(-1.27449 0.154893 0)
(-1.33304 1.11868 0)
)
;

boundaryField
{
    topWall
    {
        type            extrapolatedCalculated;
        value           nonuniform List<vector> 0();
    }
    botWall
    {
        type            extrapolatedCalculated;
        value           nonuniform List<vector> 8((-1.25286 0 0) (-1.16487 0 0) (-1.2282 0 0) (-1.25069 0 0) (-1.24083 0 0) (-1.24004 0 0) (-1.27811 0 0) (-1.3444 0 0));
    }
    inlet
    {
        type            cyclic;
    }
    outlet
    {
        type            cyclic;
    }
    fixWall
    {
        type            empty;
    }
    procBoundary0to1
    {
        type            processor;
        value           nonuniform List<vector> 8((-1.2672 -0.288561 0) (-1.18511 -0.148118 0) (-1.22434 -0.337225 0) (-1.25021 -0.663442 0) (-1.24946 -0.371804 0) (-1.24464 -0.533762 0) (-1.25901 -0.461293 0) (-1.32004 -1.48202 0));
    }
}


// ************************************************************************* //
