/*--------------------------------*- C++ -*----------------------------------*\
  =========                 |
  \\      /  F ield         | OpenFOAM: The Open Source CFD Toolbox
   \\    /   O peration     | Website:  https://openfoam.org
    \\  /    A nd           | Version:  dev
     \\/     M anipulation  |

   OpenFOAM for Windows 20.09 (v1)
   Built by CFD Support, www.cfdsupport.com (based on Symscape).
\*---------------------------------------------------------------------------*/
FoamFile
{
    version     2.0;
    format      ascii;
    class       volTensorField;
    location    "4";
    object      gradU;
}
// * * * * * * * * * * * * * * * * * * * * * * * * * * * * * * * * * * * * * //

dimensions      [0 0 -1 0 0 0 0];

internalField   nonuniform List<tensor> 
120
(
(-0.000286374 1.39052e-07 0 4.18051 0.0061659 0 0 0 0)
(3.99993e-05 -0.000117681 0 4.16605 -0.00049958 0 0 0 0)
(0.000100661 1.03648e-06 0 4.19392 -6.09483e-05 0 0 0 0)
(-0.00019077 3.63033e-07 0 4.17446 0.000227631 0 0 0 0)
(-0.000325394 1.86963e-07 0 3.67389 -0.00175174 0 0 0 0)
(0.000183516 1.39001e-05 0 3.67801 -0.000684567 0 0 0 0)
(3.95683e-05 1.10837e-05 0 3.69097 -2.05191e-05 0 0 0 0)
(-0.000558999 3.50785e-06 0 3.67043 0.000566147 0 0 0 0)
(-0.000337168 -4.93427e-07 0 3.20614 0.00205642 0 0 0 0)
(0.000324626 -8.88273e-05 0 3.21055 -0.000757656 0 0 0 0)
(-2.56579e-05 2.18817e-05 0 3.22148 3.07411e-05 0 0 0 0)
(-0.000852123 6.1589e-06 0 3.20416 0.000851549 0 0 0 0)
(-0.000397601 -2.28425e-06 0 2.78154 -0.00224321 0 0 0 0)
(0.000439246 -1.98612e-05 0 2.78544 -0.000871496 0 0 0 0)
(-6.6945e-05 3.79038e-05 0 2.79383 0.000101619 0 0 0 0)
(-0.00106361 1.11878e-05 0 2.78002 0.00108252 0 0 0 0)
(-0.000433512 -4.12714e-06 0 2.3984 0.00140047 0 0 0 0)
(0.000529532 -4.97469e-05 0 2.40337 -0.000971507 0 0 0 0)
(-0.000115882 5.44487e-05 0 2.40836 0.000101709 0 0 0 0)
(-0.00121407 1.41075e-05 0 2.39756 0.00122817 0 0 0 0)
(-0.000447484 -7.38557e-06 0 2.05481 0.0011452 0 0 0 0)
(0.000605242 -4.15073e-05 0 2.06057 -0.000996642 0 0 0 0)
(-0.000163766 7.45651e-05 0 2.06328 0.000202603 0 0 0 0)
(-0.00131869 2.04596e-05 0 2.05522 0.00133612 0 0 0 0)
(-0.00043832 -1.00894e-05 0 1.74896 0.0013984 0 0 0 0)
(0.00067071 -6.54568e-05 0 1.75461 -0.00108601 0 0 0 0)
(-0.00020512 9.33281e-05 0 1.75615 0.000171055 0 0 0 0)
(-0.00139073 2.24844e-05 0 1.75076 0.00140733 0 0 0 0)
(-0.00042324 -1.50825e-05 0 1.47832 0.000906422 0 0 0 0)
(0.000725016 -6.1963e-05 0 1.48364 -0.00107956 0 0 0 0)
(-0.000227873 0.000116121 0 1.48467 0.000265775 0 0 0 0)
(-0.00143074 2.99468e-05 0 1.48163 0.0014433 0 0 0 0)
(-0.000399563 -1.86325e-05 0 1.2406 0.00116715 0 0 0 0)
(0.000776511 -7.61343e-05 0 1.24562 -0.00114925 0 0 0 0)
(-0.000238696 0.000135376 0 1.24629 0.000201204 0 0 0 0)
(-0.0014499 3.11612e-05 0 1.24559 0.00146534 0 0 0 0)
(-0.000378566 -2.53416e-05 0 1.03289 0.000908577 0 0 0 0)
(0.000819942 -7.80621e-05 0 1.03843 -0.00114018 0 0 0 0)
(-0.000228389 0.000159697 0 1.03857 0.000270338 0 0 0 0)
(-0.00143744 3.95274e-05 0 1.03961 0.0014501 0 0 0 0)
(-0.000347853 -3.05461e-05 0 0.852973 0.00104033 0 0 0 0)
(0.000871185 -8.67716e-05 0 0.859049 -0.001209 0 0 0 0)
(-0.000219022 0.000178547 0 0.858409 0.000167289 0 0 0 0)
(-0.00140677 4.01165e-05 0 0.861416 0.00142573 0 0 0 0)
(-0.000328846 -3.94237e-05 0 0.69785 0.000836181 0 0 0 0)
(0.000910557 -9.26128e-05 0 0.705788 -0.00123369 0 0 0 0)
(-0.000188936 0.000203609 0 0.703497 0.000171328 0 0 0 0)
(-0.00133917 4.9781e-05 0 0.708299 0.00135085 0 0 0 0)
(-0.0002887 -4.68322e-05 0 0.563824 0.000930525 0 0 0 0)
(0.00096529 -9.78525e-05 0 0.574315 -0.00115726 0 0 0 0)
(-0.000177172 0.000221623 0 0.57109 0.000232887 0 0 0 0)
(-0.00124255 4.96938e-05 0 0.577763 0.00128759 0 0 0 0)
(-0.000289991 -5.99732e-05 0 0.449089 0.000843923 0 0 0 0)
(0.00103166 -0.00010424 0 0.46365 -0.00143706 0 0 0 0)
(-0.000131471 0.000244357 0 0.458858 -2.01285e-05 0 0 0 0)
(-0.00109872 5.70688e-05 0 0.466909 0.00110782 0 0 0 0)
(-0.000259079 -7.22613e-05 0 0.351846 0.000708827 0 0 0 0)
(0.0011281 -0.000112253 0 0.370415 -0.00137522 0 0 0 0)
(-0.000122844 0.000264037 0 0.363825 0.000259041 0 0 0 0)
(-0.000915813 5.96387e-05 0 0.373757 0.000811347 0 0 0 0)
(-0.000110641 -6.32849e-07 0 4.14893 0.000171305 0 0 0 0)
(0.000107887 -7.36123e-07 0 4.15066 -0.000129634 0 0 0 0)
(0.000296354 -5.42678e-07 0 4.17031 -0.000258191 0 0 0 0)
(4.28839e-05 0.000118054 0 4.20276 -0.000519141 0 0 0 0)
(-0.000286139 -5.32157e-06 0 3.65129 0.000327233 0 0 0 0)
(0.000248424 -6.42214e-06 0 3.65183 -0.000239599 0 0 0 0)
(0.000571964 -5.9491e-06 0 3.66502 -0.000529848 0 0 0 0)
(0.000127059 -1.09858e-05 0 3.68106 -0.000646618 0 0 0 0)
(-0.000420673 -1.40619e-05 0 3.1912 0.00049154 0 0 0 0)
(0.000336769 -1.50208e-05 0 3.19007 -0.000346893 0 0 0 0)
(0.000783499 -7.32634e-06 0 3.20072 -0.000752817 0 0 0 0)
(0.000190728 9.76892e-05 0 3.21488 -0.000609383 0 0 0 0)
(-0.000520888 -2.52956e-05 0 2.77211 0.000578533 0 0 0 0)
(0.000406962 -2.71614e-05 0 2.77002 -0.0004111 0 0 0 0)
(0.000985434 -1.03239e-05 0 2.77912 -0.000977929 0 0 0 0)
(0.000217403 3.58348e-05 0 2.79122 -0.000653473 0 0 0 0)
(-0.000587359 -3.89556e-05 0 2.39305 0.000658014 0 0 0 0)
(0.000453485 -4.09618e-05 0 2.39035 -0.000469306 0 0 0 0)
(0.00113675 -1.13659e-05 0 2.39777 -0.00111555 0 0 0 0)
(0.00023105 7.66013e-05 0 2.40637 -0.000665427 0 0 0 0)
(-0.00064108 -5.35869e-05 0 2.05268 0.000705222 0 0 0 0)
(0.000485644 -5.67208e-05 0 2.04958 -0.000492242 0 0 0 0)
(0.00125233 -1.35926e-05 0 2.05544 -0.00124483 0 0 0 0)
(0.000227809 7.77685e-05 0 2.06086 -0.000638903 0 0 0 0)
(-0.00068139 -6.94284e-05 0 1.74943 0.000740286 0 0 0 0)
(0.000499583 -7.34627e-05 0 1.7466 -0.000515729 0 0 0 0)
(0.00132483 -1.38103e-05 0 1.75059 -0.0013082 0 0 0 0)
(0.000220438 0.000116435 0 1.75315 -0.0006242 0 0 0 0)
(-0.00071036 -8.56379e-05 0 1.48112 0.000786383 0 0 0 0)
(0.00050503 -9.08622e-05 0 1.47889 -0.000504999 0 0 0 0)
(0.00136147 -1.54005e-05 0 1.48141 -0.0013569 0 0 0 0)
(0.000200699 0.000122878 0 1.48132 -0.000566979 0 0 0 0)
(-0.000727093 -0.0001019 0 1.24589 0.000776043 0 0 0 0)
(0.000504413 -0.000109184 0 1.24434 -0.000522773 0 0 0 0)
(0.00136535 -1.48432e-05 0 1.24576 -0.00136809 0 0 0 0)
(0.000168975 0.000154157 0 1.24294 -0.000533707 0 0 0 0)
(-0.000731141 -0.000118773 0 1.04115 0.000807655 0 0 0 0)
(0.000502843 -0.000126598 0 1.04035 -0.000520161 0 0 0 0)
(0.0013381 -1.55827e-05 0 1.04119 -0.0013283 0 0 0 0)
(0.000114654 0.000165132 0 1.03532 -0.000425361 0 0 0 0)
(-0.000714704 -0.000134738 0 0.864306 0.000782505 0 0 0 0)
(0.00050499 -0.000144783 0 0.864353 -0.000501001 0 0 0 0)
(0.00128158 -1.32633e-05 0 0.86531 -0.00131712 0 0 0 0)
(3.05951e-05 0.000191438 0 0.856066 -0.000364068 0 0 0 0)
(-0.000682191 -0.000150885 0 0.71335 0.000745963 0 0 0 0)
(0.000519581 -0.000161591 0 0.71325 -0.000529931 0 0 0 0)
(0.00119997 -1.33005e-05 0 0.715007 -0.00115102 0 0 0 0)
(-9.09711e-05 0.000204423 0 0.702239 -0.000256529 0 0 0 0)
(-0.000632183 -0.000166084 0 0.585516 0.000670156 0 0 0 0)
(0.000532622 -0.0001764 0 0.585201 -0.000592009 0 0 0 0)
(0.00109805 -8.70656e-06 0 0.588961 -0.00115463 0 0 0 0)
(-0.00025536 0.000224558 0 0.571984 7.57069e-05 0 0 0 0)
(-0.000558222 -0.000182212 0 0.478462 0.000576566 0 0 0 0)
(0.000576992 -0.000192005 0 0.476922 -0.000554508 0 0 0 0)
(0.000979683 -2.17188e-06 0 0.483045 -0.0009534 0 0 0 0)
(-0.000509926 0.000239176 0 0.461872 8.86894e-05 0 0 0 0)
(-0.000465296 -0.000193789 0 0.393015 0.000451594 0 0 0 0)
(0.000608999 -0.000201899 0 0.389111 -0.000532888 0 0 0 0)
(0.000847219 2.0134e-06 0 0.39572 -0.000858266 0 0 0 0)
(-0.000821287 0.000254514 0 0.371071 0.000696563 0 0 0 0)
)
;

boundaryField
{
    topWall
    {
        type            extrapolatedCalculated;
        value           nonuniform List<tensor> 0();
    }
    botWall
    {
        type            extrapolatedCalculated;
        value           nonuniform List<tensor> 8((-0.000286374 1.39052e-07 0 4.44236 0.0282121 0 0 0 0) (3.99993e-05 -0.000117681 0 4.4106 -0.000187548 0 0 0 0) (0.000100661 1.03648e-06 0 4.45196 -3.1347e-05 0 0 0 0) (-0.00019077 3.63033e-07 0 4.43476 6.12062e-05 0 0 0 0) (-0.000110641 -6.32849e-07 0 4.40618 5.57809e-05 0 0 0 0) (0.000107887 -7.36123e-07 0 4.4082 -9.06776e-05 0 0 0 0) (0.000296354 -5.42678e-07 0 4.43207 -0.000120889 0 0 0 0) (4.28839e-05 0.000118054 0 4.47933 -0.00022092 0 0 0 0));
    }
    inlet
    {
        type            cyclic;
    }
    outlet
    {
        type            cyclic;
    }
    fixWall
    {
        type            empty;
    }
    procBoundary0to1
    {
        type            processor;
        value           nonuniform List<tensor> 8((-0.000300917 -9.45029e-05 0 0.282097 0.000657595 0 0 0 0) (0.0012313 -0.000111737 0 0.295802 -0.00159463 0 0 0 0) (-7.57717e-05 0.0002808 0 0.288253 7.84211e-05 0 0 0 0) (-0.000612229 6.0278e-05 0 0.299546 0.000594374 0 0 0 0) (-0.000302326 -0.000204616 0 0.318212 0.000254008 0 0 0 0) (0.000622082 -0.000213836 0 0.313255 -0.000481213 0 0 0 0) (0.000679015 1.8319e-05 0 0.313863 -0.00096784 0 0 0 0) (-0.00124115 0.000265294 0 0.293839 0.00119039 0 0 0 0));
    }
}


// ************************************************************************* //
