/*--------------------------------*- C++ -*----------------------------------*\
  =========                 |
  \\      /  F ield         | OpenFOAM: The Open Source CFD Toolbox
   \\    /   O peration     | Website:  https://openfoam.org
    \\  /    A nd           | Version:  dev
     \\/     M anipulation  |

   OpenFOAM for Windows 20.09 (v1)
   Built by CFD Support, www.cfdsupport.com (based on Symscape).
\*---------------------------------------------------------------------------*/
FoamFile
{
    version     2.0;
    format      ascii;
    class       volScalarField;
    location    "4";
    object      nut;
}
// * * * * * * * * * * * * * * * * * * * * * * * * * * * * * * * * * * * * * //

dimensions      [0 2 -1 0 0 0 0];

internalField   nonuniform List<scalar> 
120
(
2.5539e-21
2.5539e-21
2.5539e-21
2.5539e-21
1.48088e-20
1.48089e-20
1.48088e-20
1.48089e-20
4.35154e-20
4.3516e-20
4.35158e-20
4.35158e-20
9.25967e-20
9.25985e-20
9.25979e-20
9.25978e-20
1.64169e-19
1.64173e-19
1.64172e-19
1.64171e-19
2.58164e-19
2.58172e-19
2.58169e-19
2.58166e-19
3.74623e-19
3.74636e-19
3.7463e-19
3.74624e-19
5.13576e-19
5.13598e-19
5.13587e-19
5.13575e-19
6.75033e-19
6.75067e-19
6.75046e-19
6.75027e-19
8.58982e-19
8.59032e-19
8.58998e-19
8.58969e-19
1.06539e-18
1.06546e-18
1.06541e-18
1.06537e-18
1.29418e-18
1.29428e-18
1.2942e-18
1.29415e-18
1.54526e-18
1.54538e-18
1.54526e-18
1.5452e-18
1.81842e-18
1.81858e-18
1.81841e-18
1.81833e-18
2.11341e-18
2.11359e-18
2.11337e-18
2.11328e-18
2.5539e-21
2.5539e-21
2.5539e-21
2.5539e-21
1.48088e-20
1.48089e-20
1.48089e-20
1.48089e-20
4.35157e-20
4.35159e-20
4.35159e-20
4.35159e-20
9.25977e-20
9.25982e-20
9.25983e-20
9.25984e-20
1.64171e-19
1.64172e-19
1.64173e-19
1.64173e-19
2.58167e-19
2.5817e-19
2.58172e-19
2.58171e-19
3.74627e-19
3.74634e-19
3.74637e-19
3.74635e-19
5.13582e-19
5.13594e-19
5.136e-19
5.13595e-19
6.75039e-19
6.75059e-19
6.7507e-19
6.75059e-19
8.58987e-19
8.5902e-19
8.59037e-19
8.59018e-19
1.06539e-18
1.06544e-18
1.06547e-18
1.06543e-18
1.29418e-18
1.29425e-18
1.29429e-18
1.29424e-18
1.54524e-18
1.54533e-18
1.54539e-18
1.54531e-18
1.81839e-18
1.8185e-18
1.81858e-18
1.81847e-18
2.11335e-18
2.11349e-18
2.11358e-18
2.11343e-18
)
;

boundaryField
{
    topWall
    {
        type            nutkWallFunction;
        Cmu             0.09;
        kappa           0.41;
        E               9.8;
        value           nonuniform List<scalar> 0();
    }
    botWall
    {
        type            nutkWallFunction;
        Cmu             0.09;
        kappa           0.41;
        E               9.8;
        value           uniform 0;
    }
    inlet
    {
        type            cyclic;
    }
    outlet
    {
        type            cyclic;
    }
    fixWall
    {
        type            empty;
    }
    procBoundary0to1
    {
        type            processor;
        value           nonuniform List<scalar> 8(2.42994e-18 2.43017e-18 2.42987e-18 2.42977e-18 2.42985e-18 2.43003e-18 2.43014e-18 2.42994e-18);
    }
}


// ************************************************************************* //
