/*--------------------------------*- C++ -*----------------------------------*\
  =========                 |
  \\      /  F ield         | OpenFOAM: The Open Source CFD Toolbox
   \\    /   O peration     | Website:  https://openfoam.org
    \\  /    A nd           | Version:  dev
     \\/     M anipulation  |

   OpenFOAM for Windows 20.09 (v1)
   Built by CFD Support, www.cfdsupport.com (based on Symscape).
\*---------------------------------------------------------------------------*/
FoamFile
{
    version     2.0;
    format      ascii;
    class       volScalarField;
    location    "4";
    object      omega;
}
// * * * * * * * * * * * * * * * * * * * * * * * * * * * * * * * * * * * * * //

dimensions      [0 0 -1 0 0 0 0];

internalField   nonuniform List<scalar> 
120
(
86943.4
86943.4
86943.4
86943.4
14994.1
14994
14994.1
14994
5102.67
5102.6
5102.62
5102.62
2397.97
2397.93
2397.94
2397.95
1352.53
1352.5
1352.51
1352.52
860.09
860.065
860.076
860.084
592.714
592.694
592.703
592.713
432.35
432.331
432.341
432.351
328.939
328.922
328.932
328.942
258.498
258.482
258.493
258.501
208.417
208.402
208.413
208.421
171.571
171.558
171.569
171.576
143.694
143.683
143.694
143.7
122.108
122.098
122.109
122.114
105.065
105.055
105.067
105.071
86943.4
86943.4
86943.4
86943.4
14994.1
14994
14994
14994
5102.63
5102.61
5102.61
5102.6
2397.95
2397.94
2397.93
2397.93
1352.52
1352.51
1352.5
1352.5
860.081
860.07
860.065
860.067
592.708
592.698
592.693
592.696
432.345
432.335
432.33
432.334
328.936
328.926
328.921
328.926
258.496
258.486
258.481
258.487
208.416
208.407
208.401
208.408
171.571
171.562
171.557
171.564
143.696
143.687
143.682
143.689
122.111
122.103
122.098
122.105
105.068
105.061
105.056
105.063
)
;

boundaryField
{
    topWall
    {
        beta1           0.075;
        blended         0;
        type            omegaWallFunction;
        value           nonuniform List<scalar> 0();
    }
    botWall
    {
        beta1           0.075;
        blended         0;
        type            omegaWallFunction;
        value           nonuniform List<scalar> 8(86943.4 86943.4 86943.4 86943.4 86943.4 86943.4 86943.4 86943.4);
    }
    inlet
    {
        type            cyclic;
    }
    outlet
    {
        type            cyclic;
    }
    fixWall
    {
        type            empty;
    }
    procBoundary0to1
    {
        type            processor;
        value           nonuniform List<scalar> 8(91.3787 91.3701 91.3811 91.3851 91.3819 91.3753 91.3711 91.3785);
    }
}


// ************************************************************************* //
