/*--------------------------------*- C++ -*----------------------------------*\
  =========                 |
  \\      /  F ield         | OpenFOAM: The Open Source CFD Toolbox
   \\    /   O peration     | Website:  https://openfoam.org
    \\  /    A nd           | Version:  dev
     \\/     M anipulation  |

   OpenFOAM for Windows 20.09 (v1)
   Built by CFD Support, www.cfdsupport.com (based on Symscape).
\*---------------------------------------------------------------------------*/
FoamFile
{
    version     2.0;
    format      ascii;
    class       volScalarField;
    location    "4";
    object      p;
}
// * * * * * * * * * * * * * * * * * * * * * * * * * * * * * * * * * * * * * //

dimensions      [1 -1 -2 0 0 0 0];

internalField   nonuniform List<scalar> 
120
(
0
-0.0561038
-0.116484
-0.178923
-0.0840925
-0.138196
-0.198256
-0.260701
-0.165575
-0.21994
-0.280005
-0.34245
-0.247017
-0.301664
-0.361754
-0.424198
-0.328466
-0.383405
-0.443503
-0.505951
-0.409926
-0.46514
-0.525252
-0.587701
-0.491393
-0.546871
-0.607
-0.66945
-0.572867
-0.628598
-0.688748
-0.751199
-0.654348
-0.710323
-0.770495
-0.832948
-0.735835
-0.792048
-0.852243
-0.91469
-0.817329
-0.873768
-0.93399
-0.996442
-0.898826
-0.955485
-1.01574
-1.07819
-0.98033
-1.03715
-1.09747
-1.15989
-1.06183
-1.11882
-1.17922
-1.24158
-1.14335
-1.20053
-1.26097
-1.32121
-0.241554
-0.303006
-0.365558
-0.430817
-0.32333
-0.384807
-0.44733
-0.512618
-0.405077
-0.466557
-0.529079
-0.594363
-0.486833
-0.548309
-0.610834
-0.676081
-0.568596
-0.630075
-0.692583
-0.757849
-0.650345
-0.711826
-0.774337
-0.839582
-0.732093
-0.793577
-0.856085
-0.921311
-0.813842
-0.875327
-0.937834
-1.00304
-0.89559
-0.957078
-1.01958
-1.08476
-0.977326
-1.03883
-1.10133
-1.16648
-1.05907
-1.12058
-1.18307
-1.2482
-1.14082
-1.20233
-1.26482
-1.32992
-1.22252
-1.28408
-1.34657
-1.41161
-1.30422
-1.36582
-1.42832
-1.49331
-1.3847
-1.44755
-1.51004
-1.57502
)
;

boundaryField
{
    topWall
    {
        type            calculated;
        value           nonuniform List<scalar> 0();
    }
    botWall
    {
        type            calculated;
        value           nonuniform List<scalar> 8(0.0408772 -0.0152285 -0.0756094 -0.138048 -0.200679 -0.262131 -0.324683 -0.389942);
    }
    inlet
    {
        type            cyclic;
    }
    outlet
    {
        type            cyclic;
    }
    fixWall
    {
        type            empty;
    }
    procBoundary0to1
    {
        type            processor;
        value           nonuniform List<scalar> 8(-1.22359 -1.28168 -1.34209 -1.40409 -1.46709 -1.52906 -1.59157 -1.655);
    }
}


// ************************************************************************* //
