/*--------------------------------*- C++ -*----------------------------------*\
  =========                 |
  \\      /  F ield         | OpenFOAM: The Open Source CFD Toolbox
   \\    /   O peration     | Website:  https://openfoam.org
    \\  /    A nd           | Version:  dev
     \\/     M anipulation  |

   OpenFOAM for Windows 20.09 (v1)
   Built by CFD Support, www.cfdsupport.com (based on Symscape).
\*---------------------------------------------------------------------------*/
FoamFile
{
    version     2.0;
    format      ascii;
    class       volScalarField;
    location    "4";
    object      p_rgh;
}
// * * * * * * * * * * * * * * * * * * * * * * * * * * * * * * * * * * * * * //

dimensions      [1 -1 -2 0 0 0 0];

internalField   nonuniform List<scalar> 
120
(
0.0408772
-0.0152285
-0.0756094
-0.138048
0.0385324
-0.0155707
-0.075631
-0.138076
0.0387995
-0.0155646
-0.0756302
-0.138075
0.0391081
-0.0155396
-0.0756292
-0.138073
0.0394086
-0.0155306
-0.075628
-0.138076
0.0396992
-0.0155151
-0.0756266
-0.138076
0.0399817
-0.0154957
-0.0756248
-0.138075
0.0402583
-0.015473
-0.0756228
-0.138074
0.0405272
-0.0154482
-0.0756205
-0.138073
0.0407898
-0.0154229
-0.0756179
-0.138065
0.0410469
-0.0153926
-0.075615
-0.138067
0.0412998
-0.0153598
-0.0756121
-0.138067
0.0415454
-0.015273
-0.0756008
-0.138018
0.0417935
-0.0151948
-0.0756009
-0.137957
0.0420375
-0.0151514
-0.0755872
-0.135858
-0.200679
-0.262131
-0.324683
-0.389942
-0.200705
-0.262182
-0.324705
-0.389993
-0.200702
-0.262182
-0.324704
-0.389988
-0.200708
-0.262184
-0.324709
-0.389956
-0.200721
-0.2622
-0.324708
-0.389974
-0.20072
-0.262201
-0.324712
-0.389957
-0.200718
-0.262202
-0.32471
-0.389936
-0.200717
-0.262202
-0.324709
-0.389912
-0.200715
-0.262203
-0.324707
-0.389885
-0.200701
-0.262202
-0.324703
-0.389853
-0.2007
-0.262204
-0.3247
-0.389824
-0.200699
-0.262207
-0.3247
-0.389793
-0.200647
-0.262205
-0.324697
-0.389732
-0.200596
-0.262191
-0.324693
-0.389685
-0.199342
-0.262164
-0.324659
-0.389614
)
;

boundaryField
{
    topWall
    {
        type            zeroGradient;
    }
    botWall
    {
        type            zeroGradient;
    }
    inlet
    {
        type            fixedJump;
        patchType       cyclic;
        jump            uniform -0.5;
        value           nonuniform List<scalar> 
15
(
0.0762119
0.0760541
0.0759067
0.0757535
0.0756116
0.0754683
0.0753213
0.0751731
0.0750227
0.0748711
0.0747171
0.0745759
0.0744057
0.0742696
0.0754674
)
;
    }
    outlet
    {
        type            fixedJump;
        patchType       cyclic;
        value           nonuniform List<scalar> 
15
(
-0.423788
-0.423946
-0.424093
-0.424247
-0.424388
-0.424532
-0.424679
-0.424827
-0.424977
-0.425129
-0.425283
-0.425424
-0.425594
-0.42573
-0.424533
)
;
    }
    fixWall
    {
        type            empty;
    }
    procBoundary0to1
    {
        type            processor;
        value           nonuniform List<scalar> 8(0.0435613 -0.0145409 -0.0749493 -0.136975 -0.199971 -0.26192 -0.324435 -0.387821);
    }
}


// ************************************************************************* //
