/*--------------------------------*- C++ -*----------------------------------*\
  =========                 |
  \\      /  F ield         | OpenFOAM: The Open Source CFD Toolbox
   \\    /   O peration     | Website:  https://openfoam.org
    \\  /    A nd           | Version:  dev
     \\/     M anipulation  |

   OpenFOAM for Windows 20.09 (v1)
   Built by CFD Support, www.cfdsupport.com (based on Symscape).
\*---------------------------------------------------------------------------*/
FoamFile
{
    version     2.0;
    format      ascii;
    class       surfaceScalarField;
    location    "4";
    object      phi;
}
// * * * * * * * * * * * * * * * * * * * * * * * * * * * * * * * * * * * * * //

dimensions      [0 3 -1 0 0 0 0];

internalField   nonuniform List<scalar> 
217
(
1.52164e-09
4.25121e-11
1.54129e-09
-1.95775e-11
1.54413e-09
-2.86785e-12
8.53673e-12
1.53555e-09
4.24159e-09
9.16324e-11
4.26959e-09
-4.75376e-11
4.27023e-09
-3.53527e-12
3.24798e-11
4.24624e-09
6.62537e-09
1.40034e-10
6.65853e-09
-8.07315e-11
6.65661e-09
-1.62451e-12
6.86578e-11
6.62041e-09
8.6989e-09
1.89346e-10
8.73584e-09
-1.17716e-10
8.73251e-09
1.68795e-12
1.1368e-10
8.68748e-09
1.04926e-08
2.39227e-10
1.05326e-08
-1.57718e-10
1.05273e-08
6.97242e-12
1.64921e-10
1.04761e-08
1.20347e-08
2.88371e-10
1.2077e-08
-2.00048e-10
1.20699e-08
1.40824e-11
2.2052e-10
1.20143e-08
1.33517e-08
3.35956e-10
1.3396e-08
-2.44324e-10
1.33874e-08
2.27627e-11
2.79114e-10
1.33288e-08
1.44689e-08
3.81793e-10
1.45147e-08
-2.90121e-10
1.45052e-08
3.22494e-11
3.39364e-10
1.4445e-08
1.54098e-08
4.25542e-10
1.5457e-08
-3.37275e-10
1.54473e-08
4.19596e-11
4.00432e-10
1.53862e-08
1.61965e-08
4.67432e-10
1.62449e-08
-3.85694e-10
1.62356e-08
5.13264e-11
4.6064e-10
1.61754e-08
1.68492e-08
5.06825e-10
1.68991e-08
-4.356e-10
1.68904e-08
6.01174e-11
5.19873e-10
1.68312e-08
1.73863e-08
5.44673e-10
1.74373e-08
-4.867e-10
1.74299e-08
6.75555e-11
5.76298e-10
1.73735e-08
1.78249e-08
5.80058e-10
1.78775e-08
-5.39387e-10
1.78707e-08
7.43973e-11
6.28831e-10
1.78183e-08
1.81774e-08
6.1486e-10
1.82328e-08
-5.94948e-10
1.82275e-08
7.9754e-11
6.75034e-10
1.81814e-08
1.84593e-08
1.85179e-08
1.85147e-08
1.84741e-08
1.52914e-09
6.44368e-12
1.53394e-09
-4.74882e-12
1.544e-09
-1.01133e-11
-2.0606e-11
4.23166e-09
2.10404e-11
4.2424e-09
-1.55085e-11
4.26488e-09
-3.26046e-11
-4.64099e-11
6.60021e-09
4.12255e-11
6.61464e-09
-3.0027e-11
6.64617e-09
-6.4124e-11
-7.40819e-11
8.6632e-09
6.54939e-11
8.68003e-09
-4.69424e-11
8.72112e-09
-1.0521e-10
-1.013e-10
1.04489e-08
9.26779e-11
1.04684e-08
-6.64965e-11
1.05146e-08
-1.51486e-10
-1.29301e-10
1.19849e-08
1.22057e-10
1.20055e-08
-8.71571e-11
1.20572e-08
-2.03112e-10
-1.5603e-10
1.32977e-08
1.53112e-10
1.33189e-08
-1.08358e-10
1.33737e-08
-2.57919e-10
-1.81617e-10
1.44127e-08
1.85368e-10
1.44342e-08
-1.29749e-10
1.44906e-08
-3.14395e-10
-2.05589e-10
1.53533e-08
2.18313e-10
1.53747e-08
-1.51088e-10
1.54315e-08
-3.71158e-10
-2.27501e-10
1.61419e-08
2.51761e-10
1.61635e-08
-1.72549e-10
1.62192e-08
-4.26815e-10
-2.46514e-10
1.67989e-08
2.84038e-10
1.68202e-08
-1.93742e-10
1.68739e-08
-4.80503e-10
-2.61059e-10
1.73426e-08
3.15024e-10
1.73646e-08
-2.15698e-10
1.74149e-08
-5.30749e-10
-2.70153e-10
1.77896e-08
3.43668e-10
1.78123e-08
-2.38335e-10
1.78578e-08
-5.76241e-10
-2.72546e-10
1.81557e-08
3.69369e-10
1.818e-08
-2.62697e-10
1.82212e-08
-6.17394e-10
-2.6346e-10
1.84524e-08
1.84794e-08
1.85146e-08
)
;

boundaryField
{
    topWall
    {
        type            calculated;
        value           nonuniform List<scalar> 0();
    }
    botWall
    {
        type            calculated;
        value           uniform 0;
    }
    inlet
    {
        type            cyclic;
        value           nonuniform List<scalar> 
15
(
-1.8492e-08
-1.82122e-08
-1.78604e-08
-1.74242e-08
-1.68886e-08
-1.62383e-08
-1.54535e-08
-1.45147e-08
-1.33993e-08
-1.20838e-08
-1.05425e-08
-8.74816e-09
-6.67371e-09
-4.29065e-09
-1.5647e-09
)
;
    }
    outlet
    {
        type            cyclic;
        value           nonuniform List<scalar> 
15
(
1.8492e-08
1.82122e-08
1.78604e-08
1.74242e-08
1.68886e-08
1.62383e-08
1.54535e-08
1.45147e-08
1.33993e-08
1.20838e-08
1.05425e-08
8.74816e-09
6.67371e-09
4.29065e-09
1.5647e-09
)
;
    }
    fixWall
    {
        type            empty;
        value           nonuniform List<scalar> 0();
    }
    procBoundary0to1
    {
        type            processor;
        value           nonuniform List<scalar> 8(6.47924e-10 -6.52172e-10 8.0895e-11 7.13327e-10 3.87945e-10 -2.88444e-10 -6.51318e-10 -2.41031e-10);
    }
}


// ************************************************************************* //
