/*--------------------------------*- C++ -*----------------------------------*\
  =========                 |
  \\      /  F ield         | OpenFOAM: The Open Source CFD Toolbox
   \\    /   O peration     | Website:  https://openfoam.org
    \\  /    A nd           | Version:  dev
     \\/     M anipulation  |

   OpenFOAM for Windows 20.09 (v1)
   Built by CFD Support, www.cfdsupport.com (based on Symscape).
\*---------------------------------------------------------------------------*/
FoamFile
{
    version     2.0;
    format      ascii;
    class       volSymmTensorField;
    location    "4";
    object      R;
}
// * * * * * * * * * * * * * * * * * * * * * * * * * * * * * * * * * * * * * //

dimensions      [0 2 -2 0 0 0 0];

internalField   nonuniform List<symmTensor> 
120
(
(1.4803e-16 -1.06766e-20 -0 1.4803e-16 -0 1.4803e-16)
(1.4803e-16 -1.06394e-20 -0 1.4803e-16 -0 1.4803e-16)
(1.4803e-16 -1.07108e-20 -0 1.4803e-16 -0 1.4803e-16)
(1.4803e-16 -1.06612e-20 -0 1.4803e-16 -0 1.4803e-16)
(1.4803e-16 -5.44058e-20 -0 1.4803e-16 -0 1.4803e-16)
(1.4803e-16 -5.44673e-20 -0 1.4803e-16 -0 1.4803e-16)
(1.4803e-16 -5.46591e-20 -0 1.4803e-16 -0 1.4803e-16)
(1.4803e-16 -5.43549e-20 -0 1.4803e-16 -0 1.4803e-16)
(1.4803e-16 -1.39516e-19 -0 1.4803e-16 -0 1.4803e-16)
(1.4803e-16 -1.39706e-19 -0 1.4803e-16 -0 1.4803e-16)
(1.4803e-16 -1.40186e-19 -0 1.4803e-16 -0 1.4803e-16)
(1.4803e-16 -1.39432e-19 -0 1.4803e-16 -0 1.4803e-16)
(1.4803e-16 -2.57561e-19 -0 1.4803e-16 -0 1.4803e-16)
(1.4803e-16 -2.57925e-19 -0 1.4803e-16 -0 1.4803e-16)
(1.4803e-16 -2.58706e-19 -0 1.4803e-16 -0 1.4803e-16)
(1.4803e-16 -2.57425e-19 -0 1.4803e-16 -0 1.4803e-16)
(1.4803e-16 -3.93743e-19 -0 1.48029e-16 -0 1.4803e-16)
(1.4803e-16 -3.94561e-19 -0 1.4803e-16 -0 1.4803e-16)
(1.4803e-16 -3.95393e-19 -0 1.4803e-16 -0 1.4803e-16)
(1.4803e-16 -3.93613e-19 -0 1.48029e-16 -0 1.4803e-16)
(1.4803e-16 -5.30476e-19 -0 1.48029e-16 -0 1.4803e-16)
(1.48029e-16 -5.31971e-19 -0 1.4803e-16 -0 1.4803e-16)
(1.4803e-16 -5.32693e-19 -0 1.4803e-16 -0 1.4803e-16)
(1.4803e-16 -5.30593e-19 -0 1.48029e-16 -0 1.4803e-16)
(1.4803e-16 -6.55198e-19 -0 1.48029e-16 -0 1.4803e-16)
(1.48029e-16 -6.57315e-19 -0 1.4803e-16 -0 1.4803e-16)
(1.4803e-16 -6.57941e-19 -0 1.4803e-16 -0 1.4803e-16)
(1.48031e-16 -6.55886e-19 -0 1.48029e-16 -0 1.4803e-16)
(1.4803e-16 -7.59222e-19 -0 1.48029e-16 -0 1.4803e-16)
(1.48029e-16 -7.61965e-19 -0 1.48031e-16 -0 1.4803e-16)
(1.4803e-16 -7.62565e-19 -0 1.48029e-16 -0 1.4803e-16)
(1.48031e-16 -7.60944e-19 -0 1.48028e-16 -0 1.4803e-16)
(1.48031e-16 -8.37431e-19 -0 1.48029e-16 -0 1.4803e-16)
(1.48029e-16 -8.40823e-19 -0 1.48031e-16 -0 1.4803e-16)
(1.4803e-16 -8.41396e-19 -0 1.48029e-16 -0 1.4803e-16)
(1.48032e-16 -8.40825e-19 -0 1.48028e-16 -0 1.4803e-16)
(1.48031e-16 -8.87208e-19 -0 1.48028e-16 -0 1.4803e-16)
(1.48028e-16 -8.91975e-19 -0 1.48032e-16 -0 1.4803e-16)
(1.4803e-16 -8.92263e-19 -0 1.48029e-16 -0 1.4803e-16)
(1.48032e-16 -8.93024e-19 -0 1.48027e-16 -0 1.4803e-16)
(1.48031e-16 -9.08714e-19 -0 1.48028e-16 -0 1.4803e-16)
(1.48028e-16 -9.1519e-19 -0 1.48032e-16 -0 1.48029e-16)
(1.4803e-16 -9.14744e-19 -0 1.48029e-16 -0 1.4803e-16)
(1.48033e-16 -9.17766e-19 -0 1.48027e-16 -0 1.4803e-16)
(1.48031e-16 -9.03096e-19 -0 1.48028e-16 -0 1.4803e-16)
(1.48027e-16 -9.13369e-19 -0 1.48033e-16 -0 1.48029e-16)
(1.4803e-16 -9.10728e-19 -0 1.48029e-16 -0 1.4803e-16)
(1.48033e-16 -9.16706e-19 -0 1.48026e-16 -0 1.4803e-16)
(1.48031e-16 -8.71179e-19 -0 1.48028e-16 -0 1.4803e-16)
(1.48027e-16 -8.87386e-19 -0 1.48033e-16 -0 1.4803e-16)
(1.4803e-16 -8.82826e-19 -0 1.48029e-16 -0 1.4803e-16)
(1.48034e-16 -8.92834e-19 -0 1.48026e-16 -0 1.4803e-16)
(1.48031e-16 -8.16525e-19 -0 1.48027e-16 -0 1.4803e-16)
(1.48025e-16 -8.42993e-19 -0 1.48034e-16 -0 1.48029e-16)
(1.4803e-16 -8.34837e-19 -0 1.4803e-16 -0 1.4803e-16)
(1.48034e-16 -8.49099e-19 -0 1.48026e-16 -0 1.4803e-16)
(1.48031e-16 -7.43443e-19 -0 1.48027e-16 -0 1.4803e-16)
(1.48025e-16 -7.8267e-19 -0 1.48035e-16 -0 1.48029e-16)
(1.4803e-16 -7.69454e-19 -0 1.48029e-16 -0 1.4803e-16)
(1.48033e-16 -7.8998e-19 -0 1.48026e-16 -0 1.4803e-16)
(1.4803e-16 -1.05959e-20 -0 1.4803e-16 -0 1.4803e-16)
(1.4803e-16 -1.06004e-20 -0 1.4803e-16 -0 1.4803e-16)
(1.4803e-16 -1.06505e-20 -0 1.4803e-16 -0 1.4803e-16)
(1.4803e-16 -1.07337e-20 -0 1.4803e-16 -0 1.4803e-16)
(1.4803e-16 -5.40712e-20 -0 1.4803e-16 -0 1.4803e-16)
(1.4803e-16 -5.40793e-20 -0 1.4803e-16 -0 1.4803e-16)
(1.4803e-16 -5.42747e-20 -0 1.4803e-16 -0 1.4803e-16)
(1.4803e-16 -5.45121e-20 -0 1.4803e-16 -0 1.4803e-16)
(1.4803e-16 -1.38867e-19 -0 1.4803e-16 -0 1.4803e-16)
(1.4803e-16 -1.38818e-19 -0 1.4803e-16 -0 1.4803e-16)
(1.4803e-16 -1.39282e-19 -0 1.4803e-16 -0 1.4803e-16)
(1.4803e-16 -1.39903e-19 -0 1.4803e-16 -0 1.4803e-16)
(1.4803e-16 -2.56689e-19 -0 1.4803e-16 -0 1.4803e-16)
(1.4803e-16 -2.56496e-19 -0 1.4803e-16 -0 1.4803e-16)
(1.4803e-16 -2.57341e-19 -0 1.4803e-16 -0 1.4803e-16)
(1.4803e-16 -2.58466e-19 -0 1.4803e-16 -0 1.4803e-16)
(1.4803e-16 -3.92864e-19 -0 1.4803e-16 -0 1.4803e-16)
(1.4803e-16 -3.92423e-19 -0 1.4803e-16 -0 1.4803e-16)
(1.48029e-16 -3.93648e-19 -0 1.4803e-16 -0 1.4803e-16)
(1.4803e-16 -3.95073e-19 -0 1.4803e-16 -0 1.4803e-16)
(1.4803e-16 -5.2992e-19 -0 1.48029e-16 -0 1.4803e-16)
(1.48029e-16 -5.29125e-19 -0 1.4803e-16 -0 1.4803e-16)
(1.48029e-16 -5.30654e-19 -0 1.4803e-16 -0 1.4803e-16)
(1.4803e-16 -5.32075e-19 -0 1.4803e-16 -0 1.4803e-16)
(1.4803e-16 -6.55357e-19 -0 1.48029e-16 -0 1.4803e-16)
(1.48029e-16 -6.54309e-19 -0 1.4803e-16 -0 1.4803e-16)
(1.48029e-16 -6.5583e-19 -0 1.48031e-16 -0 1.4803e-16)
(1.48029e-16 -6.56836e-19 -0 1.4803e-16 -0 1.4803e-16)
(1.4803e-16 -7.60631e-19 -0 1.48029e-16 -0 1.4803e-16)
(1.48029e-16 -7.59501e-19 -0 1.4803e-16 -0 1.4803e-16)
(1.48028e-16 -7.60842e-19 -0 1.48031e-16 -0 1.4803e-16)
(1.48029e-16 -7.60861e-19 -0 1.4803e-16 -0 1.4803e-16)
(1.48031e-16 -8.40955e-19 -0 1.48029e-16 -0 1.4803e-16)
(1.48029e-16 -8.39929e-19 -0 1.4803e-16 -0 1.4803e-16)
(1.48028e-16 -8.40964e-19 -0 1.48032e-16 -0 1.4803e-16)
(1.48029e-16 -8.3916e-19 -0 1.4803e-16 -0 1.4803e-16)
(1.48031e-16 -8.94236e-19 -0 1.48028e-16 -0 1.4803e-16)
(1.48029e-16 -8.93572e-19 -0 1.48031e-16 -0 1.4803e-16)
(1.48027e-16 -8.94406e-19 -0 1.48032e-16 -0 1.4803e-16)
(1.48029e-16 -8.89503e-19 -0 1.4803e-16 -0 1.4803e-16)
(1.48031e-16 -9.2068e-19 -0 1.48028e-16 -0 1.4803e-16)
(1.48029e-16 -9.20762e-19 -0 1.48031e-16 -0 1.4803e-16)
(1.48027e-16 -9.21945e-19 -0 1.48033e-16 -0 1.4803e-16)
(1.48029e-16 -9.12286e-19 -0 1.4803e-16 -0 1.48029e-16)
(1.48032e-16 -9.23009e-19 -0 1.48028e-16 -0 1.4803e-16)
(1.48028e-16 -9.22914e-19 -0 1.48031e-16 -0 1.4803e-16)
(1.48027e-16 -9.25409e-19 -0 1.48033e-16 -0 1.4803e-16)
(1.4803e-16 -9.09129e-19 -0 1.4803e-16 -0 1.48029e-16)
(1.48032e-16 -9.04508e-19 -0 1.48028e-16 -0 1.4803e-16)
(1.48028e-16 -9.04058e-19 -0 1.48032e-16 -0 1.4803e-16)
(1.48026e-16 -9.10159e-19 -0 1.48033e-16 -0 1.4803e-16)
(1.4803e-16 -8.84241e-19 -0 1.48029e-16 -0 1.4803e-16)
(1.48032e-16 -8.697e-19 -0 1.48028e-16 -0 1.4803e-16)
(1.48028e-16 -8.66936e-19 -0 1.48032e-16 -0 1.4803e-16)
(1.48026e-16 -8.78451e-19 -0 1.48033e-16 -0 1.4803e-16)
(1.48031e-16 -8.40336e-19 -0 1.48029e-16 -0 1.48029e-16)
(1.48032e-16 -8.30168e-19 -0 1.48028e-16 -0 1.4803e-16)
(1.48027e-16 -8.21955e-19 -0 1.48032e-16 -0 1.4803e-16)
(1.48026e-16 -8.3639e-19 -0 1.48033e-16 -0 1.4803e-16)
(1.48033e-16 -7.84771e-19 -0 1.48027e-16 -0 1.4803e-16)
)
;

boundaryField
{
    topWall
    {
        type            kqRWallFunction;
        value           nonuniform List<symmTensor> 0();
    }
    botWall
    {
        type            kqRWallFunction;
        value           uniform (1.4803e-16 -0 -0 1.4803e-16 -0 1.4803e-16);
    }
    inlet
    {
        type            cyclic;
    }
    outlet
    {
        type            cyclic;
    }
    fixWall
    {
        type            empty;
    }
    procBoundary0to1
    {
        type            processor;
        value           nonuniform List<symmTensor> 8((1.48032e-16 -6.85249e-19 -0 1.48027e-16 -0 1.4803e-16) (1.48023e-16 -7.18576e-19 -0 1.48037e-16 -0 1.48029e-16) (1.4803e-16 -7.01101e-19 -0 1.48029e-16 -0 1.4803e-16) (1.48033e-16 -7.27974e-19 -0 1.48027e-16 -0 1.4803e-16) (1.48031e-16 -7.72711e-19 -0 1.48028e-16 -0 1.4803e-16) (1.48027e-16 -7.60699e-19 -0 1.48032e-16 -0 1.4803e-16) (1.48026e-16 -7.62775e-19 -0 1.48034e-16 -0 1.48029e-16) (1.48036e-16 -7.14656e-19 -0 1.48024e-16 -0 1.4803e-16));
    }
}


// ************************************************************************* //
