/*--------------------------------*- C++ -*----------------------------------*\
  =========                 |
  \\      /  F ield         | OpenFOAM: The Open Source CFD Toolbox
   \\    /   O peration     | Website:  https://openfoam.org
    \\  /    A nd           | Version:  dev
     \\/     M anipulation  |

   OpenFOAM for Windows 20.09 (v1)
   Built by CFD Support, www.cfdsupport.com (based on Symscape).
\*---------------------------------------------------------------------------*/
FoamFile
{
    version     2.0;
    format      ascii;
    class       volVectorField;
    location    "4";
    object      U;
}
// * * * * * * * * * * * * * * * * * * * * * * * * * * * * * * * * * * * * * //

dimensions      [0 1 -1 0 0 0 0];

internalField   nonuniform List<vector> 
120
(
(0.00185098 1.1755e-05 0)
(0.00183775 -7.8145e-08 0)
(0.00185498 -1.30612e-08 0)
(0.00184782 2.55026e-08 0)
(0.00511653 -1.47853e-06 0)
(0.00510567 -7.54488e-07 0)
(0.00513488 -8.85192e-08 0)
(0.00510962 3.53882e-07 0)
(0.00797414 8.83547e-06 0)
(0.00796777 -1.21909e-06 0)
(0.0080066 -4.72598e-08 0)
(0.0079652 9.69081e-07 0)
(0.0104601 1.94883e-06 0)
(0.0104566 -2.01725e-06 0)
(0.010504 -3.7284e-08 0)
(0.0104499 1.77313e-06 0)
(0.01261 5.09679e-06 0)
(0.0126102 -2.67158e-06 0)
(0.012663 1.22106e-07 0)
(0.0125986 2.77328e-06 0)
(0.0144574 4.28296e-06 0)
(0.0144622 -3.63643e-06 0)
(0.0145179 1.32231e-07 0)
(0.0144458 3.82008e-06 0)
(0.0160347 7.00546e-06 0)
(0.0160445 -4.33265e-06 0)
(0.0161018 4.59778e-07 0)
(0.0160239 5.00016e-06 0)
(0.0173724 6.61363e-06 0)
(0.0173865 -5.44645e-06 0)
(0.0174449 4.17322e-07 0)
(0.0173638 6.16563e-06 0)
(0.0184986 8.51617e-06 0)
(0.0185172 -6.13192e-06 0)
(0.0185762 9.02736e-07 0)
(0.0184933 7.40566e-06 0)
(0.01944 8.55887e-06 0)
(0.0194626 -7.36187e-06 0)
(0.019522 7.52663e-07 0)
(0.0194397 8.60786e-06 0)
(0.02022 1.00305e-05 0)
(0.0202479 -8.03222e-06 0)
(0.0203072 1.3533e-06 0)
(0.020226 9.82249e-06 0)
(0.0208616 1.02928e-05 0)
(0.0208943 -9.37687e-06 0)
(0.0209527 1.03148e-06 0)
(0.0208754 1.09841e-05 0)
(0.0213831 1.14241e-05 0)
(0.0214242 -1.00884e-05 0)
(0.0214797 1.63885e-06 0)
(0.0214065 1.20739e-05 0)
(0.0218013 1.18436e-05 0)
(0.0218515 -1.13056e-05 0)
(0.0219045 1.41962e-06 0)
(0.0218384 1.31301e-05 0)
(0.0221316 1.28306e-05 0)
(0.022197 -1.24835e-05 0)
(0.0222444 1.6053e-06 0)
(0.0221847 1.39203e-05 0)
(0.00183591 2.32421e-08 0)
(0.00183675 -3.77823e-08 0)
(0.0018467 -5.03702e-08 0)
(0.00186639 -9.20501e-08 0)
(0.00507898 2.62266e-07 0)
(0.00508101 -1.78275e-07 0)
(0.00510382 -3.79948e-07 0)
(0.00513821 -7.73185e-07 0)
(0.00792139 5.6863e-07 0)
(0.00792313 -4.37113e-07 0)
(0.00795506 -9.33451e-07 0)
(0.00800148 -1.16975e-06 0)
(0.0103976 1.0815e-06 0)
(0.0103978 -7.5643e-07 0)
(0.0104383 -1.63464e-06 0)
(0.0104963 -1.78882e-06 0)
(0.0125416 1.53285e-06 0)
(0.0125398 -1.12228e-06 0)
(0.0125869 -2.56333e-06 0)
(0.0126535 -2.25887e-06 0)
(0.0143861 2.17819e-06 0)
(0.0143817 -1.53861e-06 0)
(0.0144346 -3.49389e-06 0)
(0.0145069 -2.89787e-06 0)
(0.0159627 2.70822e-06 0)
(0.0159558 -1.94268e-06 0)
(0.0160127 -4.63805e-06 0)
(0.0160883 -3.32371e-06 0)
(0.0173018 3.412e-06 0)
(0.0172927 -2.39816e-06 0)
(0.0173523 -5.67422e-06 0)
(0.0174289 -3.9382e-06 0)
(0.0184312 4.01886e-06 0)
(0.0184206 -2.78435e-06 0)
(0.0184817 -6.89955e-06 0)
(0.0185571 -4.26867e-06 0)
(0.0193783 4.7054e-06 0)
(0.0193666 -3.26944e-06 0)
(0.0194285 -7.95438e-06 0)
(0.0195004 -4.82771e-06 0)
(0.0201665 5.36495e-06 0)
(0.0201545 -3.65128e-06 0)
(0.020217 -9.11338e-06 0)
(0.0202827 -4.97761e-06 0)
(0.0208188 6.00958e-06 0)
(0.0208072 -4.10445e-06 0)
(0.0208707 -1.01496e-05 0)
(0.0209272 -5.43449e-06 0)
(0.0213554 6.60822e-06 0)
(0.0213433 -4.5345e-06 0)
(0.0214087 -1.10317e-05 0)
(0.0214531 -5.40516e-06 0)
(0.0217946 7.1265e-06 0)
(0.0217825 -5.09113e-06 0)
(0.0218523 -1.20739e-05 0)
(0.0218805 -5.30832e-06 0)
(0.0221528 7.56917e-06 0)
(0.0221382 -5.45868e-06 0)
(0.0222137 -1.26207e-05 0)
(0.0222229 -5.25734e-06 0)
)
;

boundaryField
{
    topWall
    {
        type            noSlip;
    }
    botWall
    {
        type            noSlip;
    }
    inlet
    {
        type            cyclic;
    }
    outlet
    {
        type            cyclic;
    }
    fixWall
    {
        type            empty;
    }
    procBoundary0to1
    {
        type            processor;
        value           nonuniform List<vector> 8((0.0223878 1.3025e-05 0) (0.0224689 -1.35977e-05 0) (0.0225109 1.85136e-06 0) (0.0224613 1.44823e-05 0) (0.0224497 7.87916e-06 0) (0.0224311 -5.97927e-06 0) (0.0225119 -1.35044e-05 0) (0.022499 -4.14738e-06 0));
    }
}


// ************************************************************************* //
