/*--------------------------------*- C++ -*----------------------------------*\
  =========                 |
  \\      /  F ield         | OpenFOAM: The Open Source CFD Toolbox
   \\    /   O peration     | Website:  https://openfoam.org
    \\  /    A nd           | Version:  dev
     \\/     M anipulation  |

   OpenFOAM for Windows 20.09 (v1)
   Built by CFD Support, www.cfdsupport.com (based on Symscape).
\*---------------------------------------------------------------------------*/
FoamFile
{
    version     2.0;
    format      ascii;
    class       volVectorField;
    location    "4";
    object      UMean;
}
// * * * * * * * * * * * * * * * * * * * * * * * * * * * * * * * * * * * * * //

dimensions      [0 1 -1 0 0 0 0];

internalField   nonuniform List<vector> 
120
(
(0.00173113 7.69217e-06 0)
(0.00172689 -6.30059e-08 0)
(0.00174058 -8.36971e-09 0)
(0.00173369 1.27514e-08 0)
(0.00476363 -1.00348e-06 0)
(0.00476849 -6.23868e-07 0)
(0.00479186 -4.14718e-08 0)
(0.00476857 2.79753e-07 0)
(0.00739438 5.71842e-06 0)
(0.0074073 -1.05539e-06 0)
(0.00743865 1.14391e-08 0)
(0.00740075 7.70476e-07 0)
(0.00966143 9.66296e-07 0)
(0.00967964 -1.79743e-06 0)
(0.00971781 7.41753e-08 0)
(0.00966844 1.44694e-06 0)
(0.0116025 3.22365e-06 0)
(0.0116249 -2.42077e-06 0)
(0.0116672 2.33524e-07 0)
(0.0116091 2.25972e-06 0)
(0.0132523 2.17579e-06 0)
(0.0132789 -3.3308e-06 0)
(0.0133233 3.25689e-07 0)
(0.0132588 3.15585e-06 0)
(0.0146449 4.3121e-06 0)
(0.0146751 -3.98806e-06 0)
(0.0147205 6.09247e-07 0)
(0.0146515 4.10415e-06 0)
(0.0158115 3.46086e-06 0)
(0.0158447 -5.01664e-06 0)
(0.0158906 6.85754e-07 0)
(0.0158192 5.11128e-06 0)
(0.0167814 5.0187e-06 0)
(0.0168174 -5.65177e-06 0)
(0.0168637 1.07219e-06 0)
(0.016791 6.09101e-06 0)
(0.0175817 4.56201e-06 0)
(0.0176199 -6.76305e-06 0)
(0.0176664 1.09043e-06 0)
(0.0175942 7.14063e-06 0)
(0.018236 5.67241e-06 0)
(0.0182773 -7.3769e-06 0)
(0.0183237 1.54413e-06 0)
(0.0182526 8.09232e-06 0)
(0.0187673 5.51982e-06 0)
(0.0188108 -8.54647e-06 0)
(0.0188566 1.44708e-06 0)
(0.0187889 9.10256e-06 0)
(0.0191934 6.26705e-06 0)
(0.0192415 -9.19259e-06 0)
(0.0192859 1.89868e-06 0)
(0.0192218 9.96758e-06 0)
(0.0195315 6.31421e-06 0)
(0.0195838 -1.02315e-05 0)
(0.0196272 1.83014e-06 0)
(0.0195689 1.08728e-05 0)
(0.0197952 6.89858e-06 0)
(0.0198561 -1.12716e-05 0)
(0.0198977 1.99654e-06 0)
(0.0198441 1.15498e-05 0)
(0.00172485 2.40067e-08 0)
(0.00172188 2.22296e-09 0)
(0.0017323 -8.5468e-08 0)
(0.00174651 -3.14392e-08 0)
(0.00474554 2.4178e-07 0)
(0.00474023 -4.90946e-08 0)
(0.00476423 -4.48027e-07 0)
(0.00478818 -3.59678e-07 0)
(0.00736746 5.10003e-07 0)
(0.00736142 -1.85293e-07 0)
(0.00739459 -1.02876e-06 0)
(0.00742586 -4.18198e-07 0)
(0.00962834 9.61762e-07 0)
(0.00962192 -3.73282e-07 0)
(0.0096626 -1.69466e-06 0)
(0.00970049 -6.39288e-07 0)
(0.0115649 1.3141e-06 0)
(0.0115581 -6.28456e-07 0)
(0.0116041 -2.55176e-06 0)
(0.0116469 -6.8287e-07 0)
(0.0132122 1.88828e-06 0)
(0.0132044 -9.08194e-07 0)
(0.0132547 -3.3634e-06 0)
(0.0133008 -9.08181e-07 0)
(0.0146036 2.24838e-06 0)
(0.0145946 -1.21235e-06 0)
(0.0146477 -4.3699e-06 0)
(0.0146958 -9.0278e-07 0)
(0.0157706 2.91175e-06 0)
(0.0157605 -1.5275e-06 0)
(0.0158153 -5.24159e-06 0)
(0.015864 -1.12226e-06 0)
(0.0167423 3.26218e-06 0)
(0.0167312 -1.82266e-06 0)
(0.0167866 -6.31034e-06 0)
(0.0168348 -1.05556e-06 0)
(0.0175459 3.96923e-06 0)
(0.0175342 -2.1532e-06 0)
(0.0175897 -7.1821e-06 0)
(0.0176357 -1.24659e-06 0)
(0.0182058 4.31641e-06 0)
(0.0181936 -2.42769e-06 0)
(0.0182484 -8.2075e-06 0)
(0.0182906 -1.09651e-06 0)
(0.0187441 4.9988e-06 0)
(0.0187319 -2.73424e-06 0)
(0.0187861 -9.0584e-06 0)
(0.0188227 -1.19795e-06 0)
(0.0191806 5.31473e-06 0)
(0.0191677 -3.02028e-06 0)
(0.0192211 -9.85905e-06 0)
(0.0192501 -9.98203e-07 0)
(0.0195323 5.91376e-06 0)
(0.0195196 -3.31517e-06 0)
(0.0195736 -1.07352e-05 0)
(0.0195924 -7.2969e-07 0)
(0.019814 6.22184e-06 0)
(0.0198008 -3.5757e-06 0)
(0.0198557 -1.12277e-05 0)
(0.0198615 -5.72798e-07 0)
)
;

boundaryField
{
    topWall
    {
        type            calculated;
        value           nonuniform List<vector> 0();
    }
    botWall
    {
        type            calculated;
        value           uniform (0 0 0);
    }
    inlet
    {
        type            cyclic;
    }
    outlet
    {
        type            cyclic;
    }
    fixWall
    {
        type            empty;
    }
    procBoundary0to1
    {
        type            processor;
        value           nonuniform List<vector> 8((0.0199982 6.82926e-06 0) (0.0200661 -1.21504e-05 0) (0.0201056 2.17567e-06 0) (0.0200605 1.21126e-05 0) (0.0200433 6.57147e-06 0) (0.0200287 -3.82304e-06 0) (0.0200828 -1.19373e-05 0) (0.0200746 2.70911e-07 0));
    }
}


// ************************************************************************* //
