/*--------------------------------*- C++ -*----------------------------------*\
  =========                 |
  \\      /  F ield         | OpenFOAM: The Open Source CFD Toolbox
   \\    /   O peration     | Website:  https://openfoam.org
    \\  /    A nd           | Version:  dev
     \\/     M anipulation  |

   OpenFOAM for Windows 20.09 (v1)
   Built by CFD Support, www.cfdsupport.com (based on Symscape).
\*---------------------------------------------------------------------------*/
FoamFile
{
    version     2.0;
    format      ascii;
    class       volSymmTensorField;
    location    "4";
    object      UPrime2Mean;
}
// * * * * * * * * * * * * * * * * * * * * * * * * * * * * * * * * * * * * * //

dimensions      [0 2 -2 0 0 0 0];

internalField   nonuniform List<symmTensor> 
120
(
(2.21702e-08 7.51501e-10 0 2.54735e-11 0 0)
(1.89677e-08 -2.59012e-12 0 3.53692e-16 0 0)
(2.01986e-08 -8.28303e-13 0 3.3967e-17 0 0)
(2.00993e-08 2.24572e-12 0 2.50917e-16 0 0)
(1.9219e-07 -2.58709e-10 0 3.48253e-13 0 0)
(1.75444e-07 -6.79665e-11 0 2.633e-14 0 0)
(1.81578e-07 -2.49046e-11 0 3.41585e-15 0 0)
(1.79497e-07 3.90152e-11 0 8.48027e-15 0 0)
(5.18704e-07 2.7888e-09 0 1.49939e-11 0 0)
(4.84766e-07 -1.41587e-10 0 4.13539e-14 0 0)
(4.9779e-07 -5.14478e-11 0 5.31725e-15 0 0)
(4.91669e-07 1.72998e-10 0 6.08707e-14 0 0)
(9.84339e-07 1.21098e-09 0 1.48979e-12 0 0)
(9.31533e-07 -2.63559e-10 0 7.45689e-14 0 0)
(9.53888e-07 -1.35232e-10 0 1.91716e-14 0 0)
(9.42357e-07 3.93362e-10 0 1.64199e-13 0 0)
(1.56668e-06 2.91256e-09 0 5.41462e-12 0 0)
(1.49796e-06 -3.81334e-10 0 9.7076e-14 0 0)
(1.53024e-06 -1.71219e-10 0 1.91576e-14 0 0)
(1.51104e-06 7.84243e-10 0 4.07028e-13 0 0)
(2.24113e-06 3.91873e-09 0 6.85211e-12 0 0)
(2.16081e-06 -5.58101e-10 0 1.44148e-13 0 0)
(2.20255e-06 -3.56668e-10 0 5.77565e-14 0 0)
(2.1745e-06 1.21678e-09 0 6.80867e-13 0 0)
(2.98092e-06 5.77674e-09 0 1.11948e-11 0 0)
(2.89379e-06 -7.28202e-10 0 1.83247e-13 0 0)
(2.94447e-06 -3.18617e-10 0 3.44772e-14 0 0)
(2.90661e-06 1.89765e-09 0 1.23893e-12 0 0)
(3.75955e-06 7.59406e-09 0 1.53395e-11 0 0)
(3.66849e-06 -1.02266e-09 0 2.85086e-13 0 0)
(3.72773e-06 -6.43826e-10 0 1.11197e-13 0 0)
(3.68146e-06 2.5131e-09 0 1.71553e-12 0 0)
(4.55024e-06 9.26795e-09 0 1.8877e-11 0 0)
(4.4588e-06 -1.2595e-09 0 3.55778e-13 0 0)
(4.52595e-06 -4.47827e-10 0 4.43109e-14 0 0)
(4.47212e-06 3.45367e-09 0 2.66715e-12 0 0)
(5.32923e-06 1.14621e-08 0 2.46527e-11 0 0)
(5.23984e-06 -1.70281e-09 0 5.53369e-13 0 0)
(5.31395e-06 -9.67263e-10 0 1.76064e-13 0 0)
(5.25629e-06 4.17881e-09 0 3.3222e-12 0 0)
(6.07453e-06 1.33433e-08 0 2.93098e-11 0 0)
(5.99289e-06 -1.99291e-09 0 6.62732e-13 0 0)
(6.07129e-06 -5.84126e-10 0 5.61994e-14 0 0)
(6.00964e-06 5.26898e-09 0 4.6196e-12 0 0)
(6.76906e-06 1.54264e-08 0 3.5156e-11 0 0)
(6.69949e-06 -2.67005e-09 0 1.06413e-12 0 0)
(6.78021e-06 -1.34434e-09 0 2.66547e-13 0 0)
(6.71846e-06 6.05841e-09 0 5.4632e-12 0 0)
(7.39982e-06 1.74271e-08 0 4.1042e-11 0 0)
(7.3525e-06 -3.01742e-09 0 1.23833e-12 0 0)
(7.42653e-06 -8.79628e-10 0 1.04187e-13 0 0)
(7.36552e-06 7.10134e-09 0 6.84664e-12 0 0)
(7.95092e-06 1.93688e-08 0 4.71831e-11 0 0)
(7.93597e-06 -3.7589e-09 0 1.78041e-12 0 0)
(8.0031e-06 -1.44268e-09 0 2.60066e-13 0 0)
(7.94814e-06 7.90547e-09 0 7.86303e-12 0 0)
(8.4242e-06 2.13886e-08 0 5.43046e-11 0 0)
(8.45613e-06 -4.37781e-09 0 2.26643e-12 0 0)
(8.49886e-06 -1.41688e-09 0 2.36215e-13 0 0)
(8.45438e-06 8.56212e-09 0 8.67123e-12 0 0)
(1.90337e-08 -1.31052e-13 0 9.02327e-19 0 0)
(2.03648e-08 -7.09203e-12 0 2.4698e-15 0 0)
(2.0195e-08 6.19606e-12 0 1.90102e-15 0 0)
(2.21774e-08 -1.1213e-11 0 5.66929e-15 0 0)
(1.71572e-07 1.05413e-11 0 6.47653e-16 0 0)
(1.79213e-07 -6.79351e-11 0 2.57525e-14 0 0)
(1.77971e-07 3.56782e-11 0 7.15247e-15 0 0)
(1.8907e-07 -2.23361e-10 0 2.63871e-13 0 0)
(4.73517e-07 5.01166e-11 0 5.30429e-15 0 0)
(4.86912e-07 -2.18288e-10 0 9.78608e-14 0 0)
(4.84776e-07 8.24338e-11 0 1.40175e-14 0 0)
(5.11324e-07 -6.67605e-10 0 8.71651e-13 0 0)
(9.1334e-07 1.42153e-10 0 2.21249e-14 0 0)
(9.28979e-07 -4.58758e-10 0 2.26548e-13 0 0)
(9.2867e-07 7.18537e-11 0 5.55951e-15 0 0)
(9.77441e-07 -1.41183e-09 0 2.03925e-12 0 0)
(1.47203e-06 3.29698e-10 0 7.38439e-14 0 0)
(1.48744e-06 -7.48177e-10 0 3.76332e-13 0 0)
(1.49066e-06 -1.75559e-11 0 2.06761e-16 0 0)
(1.56355e-06 -2.44808e-09 0 3.833e-12 0 0)
(2.12655e-06 5.25186e-10 0 1.29703e-13 0 0)
(2.13906e-06 -1.14538e-09 0 6.13307e-13 0 0)
(2.14842e-06 -2.37601e-10 0 2.62771e-14 0 0)
(2.24498e-06 -3.70344e-09 0 6.10937e-12 0 0)
(2.85058e-06 9.64466e-10 0 3.26317e-13 0 0)
(2.85943e-06 -1.53417e-09 0 8.2313e-13 0 0)
(2.87521e-06 -5.64852e-10 0 1.10968e-13 0 0)
(2.99235e-06 -5.20238e-09 0 9.04463e-12 0 0)
(3.61806e-06 1.18206e-09 0 3.86193e-13 0 0)
(3.62302e-06 -2.05872e-09 0 1.16983e-12 0 0)
(3.64543e-06 -1.02613e-09 0 2.8884e-13 0 0)
(3.77902e-06 -6.80026e-09 0 1.22369e-11 0 0)
(4.40208e-06 1.97221e-09 0 8.8359e-13 0 0)
(4.40459e-06 -2.50727e-09 0 1.42724e-12 0 0)
(4.43398e-06 -1.54128e-09 0 5.3576e-13 0 0)
(4.57809e-06 -8.54045e-09 0 1.59323e-11 0 0)
(5.18123e-06 2.08165e-09 0 8.36342e-13 0 0)
(5.18148e-06 -3.15646e-09 0 1.92285e-12 0 0)
(5.21798e-06 -2.19148e-09 0 9.20389e-13 0 0)
(5.36619e-06 -1.03054e-08 0 1.97908e-11 0 0)
(5.93283e-06 3.17272e-09 0 1.69668e-12 0 0)
(5.93416e-06 -3.70279e-09 0 2.31046e-12 0 0)
(5.98072e-06 -2.75207e-09 0 1.26638e-12 0 0)
(6.1241e-06 -1.19313e-08 0 2.32454e-11 0 0)
(6.64222e-06 3.23611e-09 0 1.57665e-12 0 0)
(6.6462e-06 -4.38819e-09 0 2.89733e-12 0 0)
(6.70617e-06 -3.51028e-09 0 1.83742e-12 0 0)
(6.8348e-06 -1.3759e-08 0 2.76981e-11 0 0)
(7.29936e-06 4.34132e-09 0 2.58201e-12 0 0)
(7.30441e-06 -5.08388e-09 0 3.53839e-12 0 0)
(7.38525e-06 -3.95896e-09 0 2.12225e-12 0 0)
(7.48967e-06 -1.49825e-08 0 2.99712e-11 0 0)
(7.89823e-06 4.23397e-09 0 2.26968e-12 0 0)
(7.90243e-06 -6.2019e-09 0 4.86731e-12 0 0)
(8.01319e-06 -4.70786e-09 0 2.76594e-12 0 0)
(8.07975e-06 -1.61677e-08 0 3.23517e-11 0 0)
(8.44196e-06 4.86303e-09 0 2.80137e-12 0 0)
(8.43116e-06 -6.79208e-09 0 5.47166e-12 0 0)
(8.58118e-06 -5.06943e-09 0 2.99483e-12 0 0)
(8.60504e-06 -1.70709e-08 0 3.38658e-11 0 0)
)
;

boundaryField
{
    topWall
    {
        type            calculated;
        value           nonuniform List<symmTensor> 0();
    }
    botWall
    {
        type            calculated;
        value           uniform (0 0 0 0 0 0);
    }
    inlet
    {
        type            cyclic;
    }
    outlet
    {
        type            cyclic;
    }
    fixWall
    {
        type            empty;
    }
    procBoundary0to1
    {
        type            processor;
        value           nonuniform List<symmTensor> 8((8.81143e-06 2.28471e-08 0 5.92399e-11 0 0) (8.90922e-06 -5.36632e-09 0 3.23231e-12 0 0) (8.92836e-06 -1.20384e-09 0 1.62317e-13 0 0) (8.89491e-06 8.77964e-09 0 8.66585e-12 0 0) (8.93642e-06 4.85625e-09 0 2.639e-12 0 0) (8.90656e-06 -7.994e-09 0 7.17495e-12 0 0) (9.10519e-06 -5.8741e-09 0 3.7896e-12 0 0) (9.07038e-06 -1.65303e-08 0 3.01255e-11 0 0));
    }
}


// ************************************************************************* //
