/*--------------------------------*- C++ -*----------------------------------*\
  =========                 |
  \\      /  F ield         | OpenFOAM: The Open Source CFD Toolbox
   \\    /   O peration     | Website:  https://openfoam.org
    \\  /    A nd           | Version:  dev
     \\/     M anipulation  |

   OpenFOAM for Windows 20.09 (v1)
   Built by CFD Support, www.cfdsupport.com (based on Symscape).
\*---------------------------------------------------------------------------*/
FoamFile
{
    version     2.0;
    format      ascii;
    class       surfaceScalarField;
    location    "8";
    object      alphaPhi0.water;
}
// * * * * * * * * * * * * * * * * * * * * * * * * * * * * * * * * * * * * * //

dimensions      [0 3 -1 0 0 0 0];

internalField   nonuniform List<scalar> 
217
(
2.40844e-45
-9.09406e-51
3.1371e-45
1.53201e-50
2.98448e-45
-4.98313e-50
-5.04024e-50
2.88002e-45
5.07914e-48
-2.31899e-53
6.83719e-48
1.12043e-51
5.14247e-48
-1.43597e-52
-1.3611e-52
4.62475e-48
1.33842e-50
-5.1936e-56
1.9065e-50
1.54856e-55
1.45128e-50
-3.95376e-55
-3.6201e-55
1.28452e-50
3.54964e-53
-1.08328e-58
5.17467e-53
3.55181e-58
3.93006e-53
-1.10336e-57
-1.02864e-57
3.59134e-53
9.1381e-56
-1.99045e-61
1.34076e-55
8.7084e-61
1.11527e-55
-2.99158e-60
-2.86619e-60
1.08827e-55
2.31747e-58
-2.7856e-64
3.43586e-58
2.30302e-63
3.03693e-58
-8.72869e-63
-7.8233e-63
3.15627e-58
6.15551e-61
-9.03032e-69
9.57008e-61
6.84929e-66
8.59039e-61
-2.52704e-65
-2.16296e-65
8.85748e-61
1.9765e-63
1.18383e-68
2.65209e-63
2.22572e-68
2.36978e-63
-7.64137e-68
-6.28833e-68
2.56379e-63
8.20148e-66
4.56181e-71
8.10653e-66
8.88249e-71
6.80386e-66
-2.98479e-70
-2.29493e-70
7.77688e-66
3.29128e-68
2.93084e-73
2.91629e-68
5.37429e-73
2.53011e-68
-2.42982e-72
-1.66464e-72
3.09324e-68
2.0166e-70
2.56138e-75
1.97151e-70
4.81378e-75
2.00326e-70
-1.59746e-74
-9.50456e-75
2.2683e-70
1.20928e-72
1.73113e-77
1.25646e-72
3.05811e-77
1.24548e-72
-8.08035e-77
-4.43718e-77
1.29453e-72
5.86141e-75
8.4517e-80
6.34036e-75
1.44647e-79
6.04048e-75
-3.73067e-79
-1.92498e-79
6.11498e-75
2.62537e-77
4.12349e-82
2.86342e-77
6.85263e-82
2.71144e-77
-1.6256e-81
-8.11784e-82
2.73261e-77
1.15956e-79
1.24202e-79
1.15997e-79
1.16984e-79
2.53595e-45
-7.87926e-51
2.39863e-45
4.18892e-51
1.99448e-44
5.86448e-47
2.06484e-49
4.57461e-48
-1.2638e-53
4.4425e-48
1.56213e-53
6.28349e-47
1.72669e-49
6.12979e-52
1.25727e-50
-9.40968e-57
1.22921e-50
4.35475e-56
1.86399e-49
4.83439e-52
1.72271e-54
3.54225e-53
4.55715e-59
3.44018e-53
1.19101e-58
5.16015e-52
1.24259e-54
4.40174e-57
1.11573e-55
3.86576e-61
1.06132e-55
3.78232e-61
1.3442e-54
2.95461e-57
1.03312e-59
3.37545e-58
1.71984e-63
3.44923e-58
1.1618e-63
3.29152e-57
6.46822e-60
2.26644e-62
9.66187e-61
6.68442e-66
9.93337e-61
3.46618e-66
7.74466e-60
1.28067e-62
4.6038e-65
2.85055e-63
2.46563e-68
2.97976e-63
1.18273e-68
1.7694e-62
2.348e-65
8.82055e-68
8.93166e-66
1.13101e-70
9.42714e-66
5.06429e-71
3.95045e-65
3.49981e-68
1.51868e-70
3.94721e-68
7.86148e-73
4.31648e-68
3.48976e-73
9.15159e-68
1.87101e-72
2.81221e-73
2.56665e-70
6.72869e-75
2.58336e-70
2.50697e-75
2.69702e-70
1.13844e-74
2.65396e-76
1.36342e-72
3.21226e-77
1.34014e-72
1.25568e-77
1.29577e-72
6.73602e-77
-3.43454e-78
6.2836e-75
1.46183e-79
6.02174e-75
5.79756e-80
5.94818e-75
1.89681e-79
-4.0048e-80
2.77472e-77
6.4129e-82
2.63114e-77
2.75298e-82
2.67547e-77
7.73062e-82
-2.72514e-82
1.17985e-79
1.12392e-79
1.15679e-79
)
;

boundaryField
{
    topWall
    {
        type            calculated;
        value           nonuniform List<scalar> 0();
    }
    botWall
    {
        type            calculated;
        value           nonuniform List<scalar> 0();
    }
    inlet
    {
        type            cyclic;
        value           nonuniform List<scalar> 
15
(
-1.55294e-44
-4.75975e-47
-1.37911e-49
-3.75899e-52
-9.64643e-55
-2.3445e-57
-5.47339e-60
-1.24256e-62
-2.91829e-65
-7.43458e-68
-2.78971e-70
-1.2779e-72
-5.77336e-75
-2.58638e-77
-1.11749e-79
)
;
    }
    outlet
    {
        type            cyclic;
        value           nonuniform List<scalar> 
15
(
1.55294e-44
4.75975e-47
1.37911e-49
3.75899e-52
9.64643e-55
2.3445e-57
5.47339e-60
1.24256e-62
2.91829e-65
7.43458e-68
2.78971e-70
1.2779e-72
5.77336e-75
2.58638e-77
1.11749e-79
)
;
    }
    fixWall
    {
        type            empty;
        value           nonuniform List<scalar> 0();
    }
    procBoundary5to4
    {
        type            processor;
        value           nonuniform List<scalar> 8(3.01154e-48 -1.99312e-45 2.76274e-47 3.27199e-47 6.56602e-48 -1.42329e-47 -1.77674e-44 -5.88094e-47);
    }
    procBoundary5to6
    {
        type            processor;
        value           nonuniform List<scalar> 8(1.62073e-84 2.51951e-84 -3.64425e-84 -1.86612e-84 2.17135e-84 1.04265e-84 2.41914e-84 -1.11709e-84);
    }
}


// ************************************************************************* //
