/*--------------------------------*- C++ -*----------------------------------*\
  =========                 |
  \\      /  F ield         | OpenFOAM: The Open Source CFD Toolbox
   \\    /   O peration     | Website:  https://openfoam.org
    \\  /    A nd           | Version:  dev
     \\/     M anipulation  |

   OpenFOAM for Windows 20.09 (v1)
   Built by CFD Support, www.cfdsupport.com (based on Symscape).
\*---------------------------------------------------------------------------*/
FoamFile
{
    version     2.0;
    format      ascii;
    class       volSymmTensorField;
    location    "8";
    object      devReff;
}
// * * * * * * * * * * * * * * * * * * * * * * * * * * * * * * * * * * * * * //

dimensions      [0 2 -2 0 0 0 0];

internalField   nonuniform List<symmTensor> 
120
(
(1.93384e-07 -0.00153342 -0 -1.41929e-07 -0 -5.14548e-08)
(-7.4569e-07 -0.0015272 -0 6.7887e-07 -0 6.68201e-08)
(-2.61285e-07 -0.00152709 -0 2.76183e-07 -0 -1.48988e-08)
(4.09062e-07 -0.00152789 -0 -4.25592e-07 -0 1.65303e-08)
(2.7655e-07 -0.00132019 -0 -2.36179e-07 -0 -4.03702e-08)
(-6.8259e-07 -0.00131067 -0 6.72627e-07 -0 9.96299e-09)
(-2.74564e-07 -0.00131239 -0 2.85832e-07 -0 -1.12682e-08)
(4.53367e-07 -0.0013148 -0 -4.67875e-07 -0 1.45079e-08)
(3.17048e-07 -0.00113211 -0 -2.40943e-07 -0 -7.61051e-08)
(-5.15757e-07 -0.00111982 -0 4.76383e-07 -0 3.93745e-08)
(-3.78853e-07 -0.00112077 -0 3.76458e-07 -0 2.39501e-09)
(4.51912e-07 -0.00112597 -0 -4.39324e-07 -0 -1.25883e-08)
(4.34694e-07 -0.000964044 -0 -4.21233e-07 -0 -1.34608e-08)
(-2.93021e-07 -0.000951077 -0 2.6893e-07 -0 2.40908e-08)
(-4.99202e-07 -0.000951819 -0 5.32699e-07 -0 -3.34966e-08)
(4.60106e-07 -0.000957562 -0 -4.60624e-07 -0 5.178e-10)
(4.61335e-07 -0.000813617 -0 -4.04729e-07 -0 -5.66064e-08)
(-1.4921e-07 -0.00080115 -0 1.48501e-07 -0 7.0929e-10)
(-6.03327e-07 -0.000804926 -0 6.12392e-07 -0 -9.06429e-09)
(4.1095e-07 -0.000809503 -0 -4.1903e-07 -0 8.08028e-09)
(5.82317e-07 -0.000683111 -0 -5.4694e-07 -0 -3.53767e-08)
(1.91865e-08 -0.000670385 -0 -6.79205e-08 -0 4.87341e-08)
(-7.52869e-07 -0.00067588 -0 7.65103e-07 -0 -1.22336e-08)
(4.17962e-07 -0.000679272 -0 -4.08695e-07 -0 -9.26711e-09)
(6.7565e-07 -0.000572044 -0 -6.32348e-07 -0 -4.33017e-08)
(1.22382e-07 -0.000558157 -0 -1.55792e-07 -0 3.34099e-08)
(-8.90499e-07 -0.000562868 -0 8.94438e-07 -0 -3.93868e-09)
(3.6078e-07 -0.000565106 -0 -3.71883e-07 -0 1.11028e-08)
(8.07167e-07 -0.000473985 -0 -7.58419e-07 -0 -4.87482e-08)
(3.00296e-07 -0.000461134 -0 -3.26429e-07 -0 2.6133e-08)
(-9.84198e-07 -0.000463783 -0 1.00048e-06 -0 -1.62816e-08)
(4.24594e-07 -0.000464824 -0 -4.06747e-07 -0 -1.78468e-08)
(8.88343e-07 -0.000385222 -0 -8.50143e-07 -0 -3.82006e-08)
(4.53915e-07 -0.0003761 -0 -4.8104e-07 -0 2.71254e-08)
(-1.00482e-06 -0.000376688 -0 1.00493e-06 -0 -1.115e-10)
(3.75669e-07 -0.000376595 -0 -4.03176e-07 -0 2.75068e-08)
(9.3266e-07 -0.000306857 -0 -8.81461e-07 -0 -5.11989e-08)
(5.66341e-07 -0.000301049 -0 -5.7651e-07 -0 1.01683e-08)
(-1.01271e-06 -0.000299819 -0 1.04628e-06 -0 -3.35734e-08)
(5.06358e-07 -0.000298543 -0 -4.84657e-07 -0 -2.17011e-08)
(9.35392e-07 -0.000237008 -0 -9.03024e-07 -0 -3.2368e-08)
(7.03936e-07 -0.000234305 -0 -7.49131e-07 -0 4.51951e-08)
(-9.01886e-07 -0.00023122 -0 8.88501e-07 -0 1.33845e-08)
(3.47753e-07 -0.000228872 -0 -3.45251e-07 -0 -2.50212e-09)
(9.05103e-07 -0.000173958 -0 -8.53806e-07 -0 -5.12973e-08)
(7.77877e-07 -0.000174172 -0 -8.09571e-07 -0 3.16941e-08)
(-8.05206e-07 -0.000169212 -0 8.18723e-07 -0 -1.35168e-08)
(5.02089e-07 -0.000165888 -0 -5.02226e-07 -0 1.36266e-10)
(8.14198e-07 -0.000115959 -0 -7.61832e-07 -0 -5.23665e-08)
(8.2971e-07 -0.00011913 -0 -8.45849e-07 -0 1.61395e-08)
(-6.56088e-07 -0.00011205 -0 6.79829e-07 -0 -2.37406e-08)
(3.26303e-07 -0.000108047 -0 -3.50964e-07 -0 2.46609e-08)
(7.67151e-07 -6.1389e-05 -0 -7.49288e-07 -0 -1.78626e-08)
(9.32268e-07 -6.76002e-05 -0 -9.91647e-07 -0 5.93793e-08)
(-3.82184e-07 -5.81031e-05 -0 3.49322e-07 -0 3.28621e-08)
(3.09338e-07 -5.36274e-05 -0 -2.58023e-07 -0 -5.13147e-08)
(6.00701e-07 -8.60109e-06 -0 -5.82748e-07 -0 -1.79531e-08)
(9.10969e-07 -1.80994e-05 -0 -9.02981e-07 -0 -7.98871e-09)
(-1.94756e-07 -9.2572e-06 -0 2.30442e-07 -0 -3.56859e-08)
(2.19935e-07 -3.81781e-06 -0 -2.73823e-07 -0 5.38877e-08)
(9.7272e-07 -0.00152615 -0 -9.42772e-07 -0 -2.9948e-08)
(-9.77115e-08 -0.00152815 -0 1.68757e-07 -0 -7.10454e-08)
(-1.05232e-06 -0.00152752 -0 1.10352e-06 -0 -5.1202e-08)
(5.59827e-07 -0.00153143 -0 -6.73009e-07 -0 1.13182e-07)
(1.05179e-06 -0.00131041 -0 -1.10543e-06 -0 5.36401e-08)
(-2.82458e-08 -0.00131481 -0 -9.4914e-09 -0 3.77372e-08)
(-1.04891e-06 -0.00131178 -0 1.04605e-06 -0 2.86098e-09)
(3.38819e-07 -0.00131508 -0 -3.57961e-07 -0 1.91423e-08)
(1.00026e-06 -0.00112032 -0 -9.96832e-07 -0 -3.43304e-09)
(-9.38334e-08 -0.00112486 -0 1.12279e-07 -0 -1.84454e-08)
(-1.06308e-06 -0.00112041 -0 1.11056e-06 -0 -4.74809e-08)
(2.28314e-07 -0.00112371 -0 -2.90609e-07 -0 6.22945e-08)
(1.04871e-06 -0.000953834 -0 -1.06091e-06 -0 1.22039e-08)
(-1.00377e-07 -0.000958919 -0 1.29134e-07 -0 -2.87569e-08)
(-9.96942e-07 -0.000951899 -0 9.74931e-07 -0 2.2011e-08)
(-4.80872e-08 -0.000954792 -0 2.53176e-08 -0 2.27696e-08)
(1.01199e-06 -0.000806057 -0 -1.06485e-06 -0 5.28539e-08)
(5.08294e-09 -0.000810636 -0 -2.37104e-08 -0 1.86275e-08)
(-9.11178e-07 -0.000802504 -0 9.39539e-07 -0 -2.83611e-08)
(-2.18278e-07 -0.000806216 -0 1.97151e-07 -0 2.11272e-08)
(9.66461e-07 -0.000677634 -0 -9.33946e-07 -0 -3.25153e-08)
(3.34733e-09 -0.000684026 -0 3.75248e-08 -0 -4.08721e-08)
(-8.97061e-07 -0.000673111 -0 9.18088e-07 -0 -2.1027e-08)
(-3.68449e-07 -0.000676407 -0 2.94996e-07 -0 7.34527e-08)
(8.55414e-07 -0.000562566 -0 -9.10547e-07 -0 5.51333e-08)
(1.51739e-07 -0.000568664 -0 -1.68854e-07 -0 1.71152e-08)
(-6.72286e-07 -0.000559773 -0 7.119e-07 -0 -3.96137e-08)
(-5.31632e-07 -0.000565306 -0 4.89991e-07 -0 4.16412e-08)
(8.36969e-07 -0.000463983 -0 -7.94338e-07 -0 -4.26312e-08)
(6.82843e-08 -0.000470834 -0 -1.77658e-09 -0 -6.65077e-08)
(-7.70531e-07 -0.000462522 -0 7.73464e-07 -0 -2.93281e-09)
(-7.91829e-07 -0.000467377 -0 7.32263e-07 -0 5.95664e-08)
(6.88147e-07 -0.00037427 -0 -7.77717e-07 -0 8.95705e-08)
(2.26937e-07 -0.000375757 -0 -2.7328e-07 -0 4.63439e-08)
(-5.68352e-07 -0.000372758 -0 6.16292e-07 -0 -4.79396e-08)
(-9.30228e-07 -0.000379967 -0 9.04911e-07 -0 2.53168e-08)
(8.64545e-07 -0.00029991 -0 -8.23206e-07 -0 -4.13384e-08)
(1.48718e-07 -0.000301748 -0 -1.14824e-07 -0 -3.38942e-08)
(-8.60819e-07 -0.000297625 -0 8.1103e-07 -0 4.9789e-08)
(-1.20595e-06 -0.000302328 -0 1.14506e-06 -0 6.0891e-08)
(5.33651e-07 -0.000232151 -0 -5.7789e-07 -0 4.42393e-08)
(2.23061e-07 -0.000232144 -0 -1.92376e-07 -0 -3.06851e-08)
(-6.78316e-07 -0.000229329 -0 8.14732e-07 -0 -1.36416e-07)
(-1.26601e-06 -0.00023354 -0 1.26927e-06 -0 -3.26407e-09)
(7.68487e-07 -0.000170827 -0 -7.42758e-07 -0 -2.57283e-08)
(2.88261e-07 -0.000170464 -0 -3.02611e-07 -0 1.43499e-08)
(-8.81821e-07 -0.000168568 -0 8.04716e-07 -0 7.7105e-08)
(-1.39199e-06 -0.000171208 -0 1.26194e-06 -0 1.30054e-07)
(3.98595e-07 -0.000116439 -0 -4.63521e-07 -0 6.49264e-08)
(2.99899e-07 -0.000114952 -0 -2.74106e-07 -0 -2.57931e-08)
(-6.59584e-07 -0.000112608 -0 7.51282e-07 -0 -9.16981e-08)
(-1.44807e-06 -0.000114072 -0 1.45524e-06 -0 -7.16652e-09)
(4.91658e-07 -6.23304e-05 -0 -4.22703e-07 -0 -6.89546e-08)
(3.72882e-07 -5.97747e-05 -0 -3.47307e-07 -0 -2.55752e-08)
(-9.40887e-07 -6.01561e-05 -0 9.51194e-07 -0 -1.03069e-08)
(-1.56304e-06 -6.02594e-05 -0 1.49408e-06 -0 6.89582e-08)
(2.35216e-07 -1.44826e-05 -0 -3.45588e-07 -0 1.10372e-07)
(3.87913e-07 -1.09229e-05 -0 -3.81463e-07 -0 -6.45032e-09)
(-5.26352e-07 -9.21615e-06 -0 4.68275e-07 -0 5.80768e-08)
(-1.42759e-06 -8.18401e-06 -0 1.37581e-06 -0 5.17791e-08)
)
;

boundaryField
{
    topWall
    {
        type            calculated;
        value           nonuniform List<symmTensor> 0();
    }
    botWall
    {
        type            calculated;
        value           nonuniform List<symmTensor> 0();
    }
    inlet
    {
        type            cyclic;
    }
    outlet
    {
        type            cyclic;
    }
    fixWall
    {
        type            empty;
    }
    procBoundary5to4
    {
        type            processor;
        value           nonuniform List<symmTensor> 8((1.35772e-07 -0.00177392 -0 -9.74267e-08 -0 -3.83449e-08) (-8.38386e-07 -0.00177096 -0 7.76315e-07 -0 6.20709e-08) (-2.0457e-07 -0.00176923 -0 1.66616e-07 -0 3.79545e-08) (4.03355e-07 -0.00176889 -0 -4.05131e-07 -0 1.77596e-09) (1.02435e-06 -0.0017695 -0 -1.04434e-06 -0 1.99901e-08) (1.91327e-08 -0.00176903 -0 -5.57598e-08 -0 3.66271e-08) (-1.00531e-06 -0.00177045 -0 1.07468e-06 -0 -6.93653e-08) (6.31007e-07 -0.00177482 -0 -7.45641e-07 -0 1.14634e-07));
    }
    procBoundary5to6
    {
        type            processor;
        value           nonuniform List<symmTensor> 8((3.8997e-07 4.39862e-05 -0 -3.29017e-07 -0 -6.09535e-08) (8.49859e-07 3.0867e-05 -0 -8.53205e-07 -0 3.34532e-09) (5.42346e-08 3.62343e-05 -0 -3.97576e-08 -0 -1.4477e-08) (1.65157e-07 4.60061e-05 -0 -1.38592e-07 -0 -2.65647e-08) (3.11494e-07 4.45442e-05 -0 -3.03204e-07 -0 -8.29004e-09) (5.63859e-07 4.73911e-05 -0 -5.57366e-07 -0 -6.49371e-09) (-8.81151e-07 4.27624e-05 -0 9.22882e-07 -0 -4.17312e-08) (-1.6837e-06 4.37709e-05 -0 1.75882e-06 -0 -7.51142e-08));
    }
}


// ************************************************************************* //
