/*--------------------------------*- C++ -*----------------------------------*\
  =========                 |
  \\      /  F ield         | OpenFOAM: The Open Source CFD Toolbox
   \\    /   O peration     | Website:  https://openfoam.org
    \\  /    A nd           | Version:  dev
     \\/     M anipulation  |

   OpenFOAM for Windows 20.09 (v1)
   Built by CFD Support, www.cfdsupport.com (based on Symscape).
\*---------------------------------------------------------------------------*/
FoamFile
{
    version     2.0;
    format      ascii;
    class       volScalarField;
    location    "8";
    object      epsilon;
}
// * * * * * * * * * * * * * * * * * * * * * * * * * * * * * * * * * * * * * //

dimensions      [0 2 -3 0 0 0 0];

internalField   nonuniform List<scalar> 
120
(
1.2948e-14
1.29588e-14
1.29715e-14
1.29752e-14
1.12732e-14
1.12745e-14
1.12871e-14
1.12915e-14
9.84394e-15
9.84158e-15
9.85016e-15
9.85497e-15
8.63102e-15
8.62715e-15
8.63214e-15
8.63673e-15
7.60528e-15
7.60081e-15
7.60319e-15
7.60717e-15
6.73881e-15
6.73428e-15
6.73458e-15
6.73786e-15
6.00603e-15
6.0018e-15
6.00037e-15
6.00296e-15
5.38441e-15
5.38073e-15
5.37794e-15
5.37989e-15
4.85482e-15
4.85181e-15
4.84803e-15
4.8494e-15
4.40134e-15
4.39895e-15
4.39452e-15
4.39538e-15
4.01079e-15
4.00891e-15
4.0041e-15
4.00451e-15
3.67222e-15
3.67084e-15
3.66588e-15
3.6658e-15
3.37692e-15
3.37591e-15
3.37097e-15
3.37031e-15
3.11771e-15
3.11699e-15
3.11218e-15
3.1108e-15
2.88878e-15
2.88831e-15
2.88368e-15
2.88138e-15
1.29787e-14
1.29545e-14
1.29577e-14
1.29736e-14
1.1295e-14
1.12778e-14
1.1277e-14
1.12887e-14
9.85861e-15
9.84682e-15
9.84291e-15
9.85154e-15
8.64079e-15
8.63312e-15
8.62683e-15
8.63335e-15
7.61156e-15
7.60689e-15
7.59872e-15
7.60435e-15
6.7424e-15
6.73964e-15
6.73087e-15
6.73582e-15
6.0074e-15
6.00592e-15
5.99716e-15
6.0018e-15
5.38411e-15
5.38351e-15
5.3749e-15
5.37954e-15
4.85327e-15
4.85328e-15
4.84466e-15
4.84973e-15
4.39887e-15
4.39948e-15
4.39025e-15
4.39634e-15
4.00757e-15
4.00874e-15
4.0016e-15
4.00595e-15
3.66859e-15
3.67022e-15
3.66476e-15
3.66766e-15
3.37311e-15
3.37506e-15
3.3709e-15
3.37267e-15
3.11392e-15
3.11604e-15
3.1129e-15
3.11382e-15
2.88518e-15
2.88734e-15
2.88499e-15
2.8853e-15
)
;

boundaryField
{
    topWall
    {
        type            epsilonWallFunction;
        value           nonuniform List<scalar> 0();
    }
    botWall
    {
        type            epsilonWallFunction;
        value           nonuniform List<scalar> 0();
    }
    inlet
    {
        type            cyclic;
    }
    outlet
    {
        type            cyclic;
    }
    fixWall
    {
        type            empty;
    }
    procBoundary5to4
    {
        type            processor;
        value           nonuniform List<scalar> 8(1.50042e-14 1.50284e-14 1.50412e-14 1.50449e-14 1.50472e-14 1.50134e-14 1.50224e-14 1.50434e-14);
    }
    procBoundary5to6
    {
        type            processor;
        value           nonuniform List<scalar> 8(2.68556e-15 2.68532e-15 2.68093e-15 2.67894e-15 2.68223e-15 2.68442e-15 2.68266e-15 2.68256e-15);
    }
}


// ************************************************************************* //
