/*--------------------------------*- C++ -*----------------------------------*\
  =========                 |
  \\      /  F ield         | OpenFOAM: The Open Source CFD Toolbox
   \\    /   O peration     | Website:  https://openfoam.org
    \\  /    A nd           | Version:  dev
     \\/     M anipulation  |

   OpenFOAM for Windows 20.09 (v1)
   Built by CFD Support, www.cfdsupport.com (based on Symscape).
\*---------------------------------------------------------------------------*/
FoamFile
{
    version     2.0;
    format      ascii;
    class       volTensorField;
    location    "8";
    object      gradU;
}
// * * * * * * * * * * * * * * * * * * * * * * * * * * * * * * * * * * * * * //

dimensions      [0 0 -1 0 0 0 0];

internalField   nonuniform List<tensor> 
120
(
(-0.000648823 -8.90505e-06 0 8.12711 0.000239758 0 0 0 0)
(0.00215315 -0.000195156 0 8.09438 -0.00162193 0 0 0 0)
(0.000652922 -0.000489268 0 8.09405 -0.000771368 0 0 0 0)
(-0.00104021 0.000159727 0 8.09768 0.00117162 0 0 0 0)
(-0.000839837 -2.71819e-05 0 6.99704 0.000518894 0 0 0 0)
(0.00183526 -0.000217718 0 6.94677 -0.00175606 0 0 0 0)
(0.000697733 -0.0004633 0 6.95612 -0.000787316 0 0 0 0)
(-0.00116298 0.000202503 0 6.96821 0.00127831 0 0 0 0)
(-0.00104186 -5.48281e-05 0 6.00024 0.000436821 0 0 0 0)
(0.0014711 -0.000216926 0 5.93524 -0.00115807 0 0 0 0)
(0.00101031 -0.000438695 0 5.94054 -0.000991267 0 0 0 0)
(-0.00123093 0.000224041 0 5.96742 0.00113085 0 0 0 0)
(-0.00118761 -6.20696e-05 0 5.10949 0.0010806 0 0 0 0)
(0.000840345 -0.000241519 0 5.04095 -0.000648823 0 0 0 0)
(0.00123412 -0.000425152 0 5.04507 -0.00150042 0 0 0 0)
(-0.00121791 0.0002629 0 5.07482 0.00122203 0 0 0 0)
(-0.00137254 -6.55293e-05 0 4.31224 0.000922524 0 0 0 0)
(0.000397287 -0.000259943 0 4.24636 -0.000391648 0 0 0 0)
(0.0015748 -0.000407514 0 4.26651 -0.00164686 0 0 0 0)
(-0.0010676 0.000296444 0 4.29007 0.00113184 0 0 0 0)
(-0.00163689 -6.08227e-05 0 3.62055 0.00135564 0 0 0 0)
(7.83012e-05 -0.000284342 0 3.55333 0.000309135 0 0 0 0)
(0.00196268 -0.00039976 0 3.58257 -0.00205994 0 0 0 0)
(-0.00113216 0.000339712 0 3.5998 0.00105848 0 0 0 0)
(-0.00190522 -5.05922e-05 0 3.03188 0.00156097 0 0 0 0)
(-0.000235776 -0.000316869 0 2.95855 0.000501385 0 0 0 0)
(0.00234939 -0.000395025 0 2.98359 -0.0023807 0 0 0 0)
(-0.000926644 0.00037059 0 2.99469 0.00101491 0 0 0 0)
(-0.00226818 -3.26642e-05 0 2.51215 0.00188063 0 0 0 0)
(-0.000726531 -0.000350037 0 2.44436 0.000934288 0 0 0 0)
(0.00256498 -0.000391202 0 2.45844 -0.00269442 0 0 0 0)
(-0.00117247 0.000422042 0 2.46315 0.00103059 0 0 0 0)
(-0.00245534 -5.31e-06 0 2.04168 0.00215165 0 0 0 0)
(-0.00113099 -0.00039312 0 1.99372 0.00134664 0 0 0 0)
(0.00266248 -0.00039342 0 1.99684 -0.00266336 0 0 0 0)
(-0.000922631 0.000448697 0 1.99551 0.00114131 0 0 0 0)
(-0.00260723 2.86286e-05 0 1.62632 0.0022002 0 0 0 0)
(-0.00147386 -0.000430287 0 1.59599 0.0015547 0 0 0 0)
(0.00259471 -0.000394624 0 1.58944 -0.00286161 0 0 0 0)
(-0.00139936 0.000504736 0 1.58177 0.00122683 0 0 0 0)
(-0.00256456 6.84859e-05 0 1.25608 0.00230724 0 0 0 0)
(-0.00174566 -0.000477483 0 1.2423 0.00210496 0 0 0 0)
(0.00242547 -0.000398885 0 1.22586 -0.00231906 0 0 0 0)
(-0.000928175 0.000530923 0 1.21249 0.000908283 0 0 0 0)
(-0.00253446 0.000119915 0 0.921856 0.00212665 0 0 0 0)
(-0.00197739 -0.000507392 0 0.923618 0.00222935 0 0 0 0)
(0.00209798 -0.000414568 0 0.897238 -0.00220544 0 0 0 0)
(-0.00133018 0.000570864 0 0.878633 0.00133126 0 0 0 0)
(-0.0022964 0.000155633 0 0.614426 0.00188008 0 0 0 0)
(-0.00215596 -0.000549685 0 0.631937 0.00228427 0 0 0 0)
(0.00167572 -0.000413853 0 0.594279 -0.00186446 0 0 0 0)
(-0.000799351 0.000599349 0 0.572051 0.000995405 0 0 0 0)
(-0.00208029 0.000222576 0 0.325139 0.00193828 0 0 0 0)
(-0.00231315 -0.000569801 0 0.358851 0.00278522 0 0 0 0)
(0.00109987 -0.000436049 0 0.308383 -0.000838618 0 0 0 0)
(-0.000955729 0.000625279 0 0.2836 0.000547776 0 0 0 0)
(-0.00163943 0.000264997 0 0.0453208 0.00149671 0 0 0 0)
(-0.00243524 -0.000595966 0 0.0965229 0.00237173 0 0 0 0)
(0.000421535 -0.000451143 0 0.0495143 -0.000705239 0 0 0 0)
(-0.000440025 0.00062895 0 0.0196055 0.000868433 0 0 0 0)
(-0.00265707 0.0004911 0 8.08813 0.00241898 0 0 0 0)
(7.06651e-05 0.000520034 0 8.09867 -0.000635476 0 0 0 0)
(0.00265297 7.07312e-06 0 8.09584 -0.00306003 0 0 0 0)
(-0.00118361 -0.000484606 0 8.11708 0.00208341 0 0 0 0)
(-0.0026451 0.000477996 0 6.94468 0.00307154 0 0 0 0)
(0.000174855 0.000463828 0 6.96805 0.000125156 0 0 0 0)
(0.00278721 1.24866e-05 0 6.95242 -0.00276446 0 0 0 0)
(-0.000847143 -0.000448613 0 6.97035 0.000999324 0 0 0 0)
(-0.0026598 0.000471881 0 5.93725 0.00263251 0 0 0 0)
(0.000199778 0.000422767 0 5.96133 -0.000346419 0 0 0 0)
(0.00269135 2.16426e-05 0 5.93814 -0.00306882 0 0 0 0)
(-0.000439952 -0.000429883 0 5.95611 0.000935193 0 0 0 0)
(-0.00274674 0.000453375 0 5.05487 0.00284376 0 0 0 0)
(0.000189794 0.000368805 0 5.0819 -0.000418411 0 0 0 0)
(0.00270022 3.38468e-05 0 5.04503 -0.00252524 0 0 0 0)
(0.00018777 -0.000390186 0 5.06079 -6.75224e-06 0 0 0 0)
(-0.00254172 0.00044454 0 4.27166 0.0029619 0 0 0 0)
(3.58931e-05 0.000333284 0 4.29604 0.000112196 0 0 0 0)
(0.00233946 2.85036e-05 0 4.25324 -0.00256493 0 0 0 0)
(0.000634424 -0.000369786 0 4.27331 -0.000466462 0 0 0 0)
(-0.00264729 0.00043638 0 3.59102 0.00238879 0 0 0 0)
(-0.000117181 0.000276691 0 3.62506 -0.000207752 0 0 0 0)
(0.00232149 2.42026e-05 0 3.56746 -0.00248866 0 0 0 0)
(0.00117104 -0.000332062 0 3.58529 -0.00058709 0 0 0 0)
(-0.00212074 0.000423436 0 2.98118 0.00255905 0 0 0 0)
(-0.000356754 0.000251993 0 3.01367 0.00049282 0 0 0 0)
(0.00167658 2.21813e-05 0 2.96677 -0.00199151 0 0 0 0)
(0.00151917 -0.000305714 0 2.99643 -0.00118813 0 0 0 0)
(-0.00233094 0.000427679 0 2.45868 0.00199202 0 0 0 0)
(-0.000357199 0.000200849 0 2.49522 -0.000171538 0 0 0 0)
(0.00203414 -3.81322e-06 0 2.45137 -0.00205745 0 0 0 0)
(0.0022562 -0.000272854 0 2.47737 -0.00178264 0 0 0 0)
(-0.00158623 0.000403401 0 1.98323 0.00229831 0 0 0 0)
(-0.000478571 0.000184502 0 1.99133 0.000847005 0 0 0 0)
(0.00137909 -4.67051e-06 0 1.97562 -0.00176021 0 0 0 0)
(0.00253219 -0.00024008 0 2.01406 -0.00233093 0 0 0 0)
(-0.00240059 0.000422774 0 1.5891 0.00207195 0 0 0 0)
(-0.000483923 0.000133207 0 1.59913 0.000214464 0 0 0 0)
(0.00241311 -5.67787e-05 0 1.57747 -0.00201729 0 0 0 0)
(0.00335714 -0.000207656 0 1.60255 -0.00287306 0 0 0 0)
(-0.00129694 0.000386528 0 1.23001 0.00164864 0 0 0 0)
(-0.000672427 0.000116348 0 1.23025 0.00042848 0 0 0 0)
(0.00143604 -5.61292e-05 0 1.2155 -0.00252054 0 0 0 0)
(0.00334627 -0.000169788 0 1.23793 -0.00337221 0 0 0 0)
(-0.00210467 0.000414777 0 0.904968 0.00190013 0 0 0 0)
(-0.000725864 6.37203e-05 0 0.903396 0.000839946 0 0 0 0)
(0.00254115 -0.000120124 0 0.893528 -0.00192817 0 0 0 0)
(0.00403343 -0.000127193 0 0.907528 -0.0029995 0 0 0 0)
(-0.000884222 0.000378339 0 0.616746 0.00140039 0 0 0 0)
(-0.000863083 5.25433e-05 0 0.609193 0.000658028 0 0 0 0)
(0.0015049 -0.00012012 0 0.596943 -0.0022339 0 0 0 0)
(0.0038184 -0.000102208 0 0.604686 -0.00387537 0 0 0 0)
(-0.00148562 0.000409154 0 0.329942 0.000937434 0 0 0 0)
(-0.00105591 3.14886e-06 0 0.316803 0.000852588 0 0 0 0)
(0.00246604 -0.00019568 0 0.319023 -0.00254798 0 0 0 0)
(0.00432479 -5.86266e-05 0 0.319433 -0.00377658 0 0 0 0)
(-0.000330838 0.000383419 0 0.0763743 0.00120829 0 0 0 0)
(-0.00104506 -5.54692e-06 0 0.0578972 0.000993784 0 0 0 0)
(0.00154874 -0.000197273 0 0.0490429 -0.00108702 0 0 0 0)
(0.00392033 -2.74371e-05 0 0.0434027 -0.00350868 0 0 0 0)
)
;

boundaryField
{
    topWall
    {
        type            extrapolatedCalculated;
        value           nonuniform List<tensor> 0();
    }
    botWall
    {
        type            extrapolatedCalculated;
        value           nonuniform List<tensor> 0();
    }
    inlet
    {
        type            cyclic;
    }
    outlet
    {
        type            cyclic;
    }
    fixWall
    {
        type            empty;
    }
    procBoundary5to4
    {
        type            processor;
        value           nonuniform List<tensor> 8((-0.000461409 3.45738e-05 0 9.40175 0.000156567 0 0 0 0) (0.00238621 -0.000200866 0 9.38626 -0.00189275 0 0 0 0) (0.00064269 -0.00050986 0 9.37742 -0.000340952 0 0 0 0) (-0.00106418 0.000149331 0 9.37498 0.0010783 0 0 0 0) (-0.00266155 0.000508114 0 9.37786 0.00282047 0 0 0 0) (4.63603e-05 0.000555144 0 9.37531 0.000244825 0 0 0 0) (0.00248027 -3.28281e-05 0 9.38344 -0.00303172 0 0 0 0) (-0.00136839 -0.00050361 0 9.40703 0.00227973 0 0 0 0));
    }
    procBoundary5to6
    {
        type            processor;
        value           nonuniform List<tensor> 8((-0.00119495 0.000320582 0 -0.233448 0.000710368 0 0 0 0) (-0.00224326 -0.0006065 0 -0.162989 0.00226986 0 0 0 0) (-0.000182086 -0.000461104 0 -0.191581 6.69937e-05 0 0 0 0) (-0.000508061 0.000657171 0 -0.24449 0.000296872 0 0 0 0) (-0.000847427 0.000411243 0 -0.236496 0.000781522 0 0 0 0) (-0.00151144 -3.51065e-05 0 -0.251138 0.00145981 0 0 0 0) (0.00222446 -0.000270721 0 -0.22637 -0.00255622 0 0 0 0) (0.00426276 -1.55644e-05 0 -0.23197 -0.00485992 0 0 0 0));
    }
}


// ************************************************************************* //
