/*--------------------------------*- C++ -*----------------------------------*\
  =========                 |
  \\      /  F ield         | OpenFOAM: The Open Source CFD Toolbox
   \\    /   O peration     | Website:  https://openfoam.org
    \\  /    A nd           | Version:  dev
     \\/     M anipulation  |

   OpenFOAM for Windows 20.09 (v1)
   Built by CFD Support, www.cfdsupport.com (based on Symscape).
\*---------------------------------------------------------------------------*/
FoamFile
{
    version     2.0;
    format      ascii;
    class       volVectorField;
    location    "8";
    object      gradp_rgh;
}
// * * * * * * * * * * * * * * * * * * * * * * * * * * * * * * * * * * * * * //

dimensions      [1 -2 -2 0 0 0 0];

internalField   nonuniform List<vector> 
120
(
(-1.25164 -0.00232079 0)
(-1.25211 0.00108287 0)
(-1.24765 0.000116707 0)
(-1.24686 0.00134391 0)
(-1.25166 -0.00280912 0)
(-1.25208 0.00138086 0)
(-1.24765 0.000224082 0)
(-1.24687 0.00146397 0)
(-1.25169 -0.00325792 0)
(-1.25206 0.00143874 0)
(-1.24764 0.000298013 0)
(-1.24687 0.00152695 0)
(-1.25171 -0.00351035 0)
(-1.25203 0.00134855 0)
(-1.24764 0.000229146 0)
(-1.24688 0.00153183 0)
(-1.25174 -0.00359347 0)
(-1.252 0.00109223 0)
(-1.24764 7.70903e-05 0)
(-1.24688 0.00157491 0)
(-1.25176 -0.0036725 0)
(-1.25196 0.000926485 0)
(-1.24764 -1.0952e-05 0)
(-1.24688 0.0015972 0)
(-1.25179 -0.0037313 0)
(-1.25193 0.000925394 0)
(-1.24763 -4.23674e-05 0)
(-1.24688 0.00161158 0)
(-1.25182 -0.00383645 0)
(-1.2519 0.000914182 0)
(-1.24762 -5.716e-05 0)
(-1.24687 0.00160282 0)
(-1.25184 -0.00394336 0)
(-1.25187 0.000875311 0)
(-1.24762 -6.05003e-05 0)
(-1.24687 0.00161766 0)
(-1.25187 -0.00403553 0)
(-1.25184 0.000829544 0)
(-1.24761 -8.17269e-05 0)
(-1.24687 0.00157654 0)
(-1.2519 -0.00406442 0)
(-1.25181 0.000907457 0)
(-1.24761 -1.56345e-05 0)
(-1.24687 0.00142919 0)
(-1.25192 -0.00401381 0)
(-1.25177 0.00109954 0)
(-1.2476 0.000139695 0)
(-1.24687 0.00133688 0)
(-1.25195 -0.00384619 0)
(-1.25174 0.00123371 0)
(-1.2476 0.000245647 0)
(-1.24687 0.00129858 0)
(-1.25197 -0.00336311 0)
(-1.2517 0.00134462 0)
(-1.2476 0.000447865 0)
(-1.24688 0.00111307 0)
(-1.252 -0.00260302 0)
(-1.25167 0.0012557 0)
(-1.24761 0.000542231 0)
(-1.24689 0.00094427 0)
(-1.24489 -7.27117e-05 0)
(-1.24759 -9.87522e-05 0)
(-1.25582 -0.00191898 0)
(-1.25344 0.00337982 0)
(-1.24491 -0.000287473 0)
(-1.24761 0.00015345 0)
(-1.25579 -0.00259298 0)
(-1.25344 0.00417784 0)
(-1.24491 -0.000279056 0)
(-1.24763 0.000535442 0)
(-1.25575 -0.00285935 0)
(-1.25344 0.00447258 0)
(-1.24492 -0.000228653 0)
(-1.24765 0.000752179 0)
(-1.25572 -0.00276652 0)
(-1.25344 0.00441367 0)
(-1.24493 -7.96607e-06 0)
(-1.24767 0.00099066 0)
(-1.25569 -0.00249912 0)
(-1.25345 0.00411122 0)
(-1.24493 9.74967e-05 0)
(-1.2477 0.00115752 0)
(-1.25567 -0.00236814 0)
(-1.25346 0.00396437 0)
(-1.24494 0.000137006 0)
(-1.24772 0.00124691 0)
(-1.25564 -0.00235663 0)
(-1.25347 0.00398723 0)
(-1.24494 0.0001384 0)
(-1.24774 0.0012488 0)
(-1.25562 -0.00235248 0)
(-1.25349 0.00402966 0)
(-1.24494 0.000215158 0)
(-1.24776 0.00133767 0)
(-1.2556 -0.00236731 0)
(-1.2535 0.004027 0)
(-1.24494 0.000226029 0)
(-1.24778 0.00146949 0)
(-1.25558 -0.00233557 0)
(-1.25351 0.00402276 0)
(-1.24494 2.79573e-05 0)
(-1.2478 0.00135415 0)
(-1.25556 -0.0025729 0)
(-1.25353 0.00403368 0)
(-1.24494 -0.000187038 0)
(-1.24782 0.00126081 0)
(-1.25553 -0.00273343 0)
(-1.25354 0.00427224 0)
(-1.24494 -0.000344107 0)
(-1.24784 0.0010891 0)
(-1.25551 -0.00266213 0)
(-1.25355 0.00442894 0)
(-1.24495 -0.000512577 0)
(-1.24786 0.000699557 0)
(-1.25548 -0.0025188 0)
(-1.25356 0.00420553 0)
(-1.24495 -0.00044812 0)
(-1.24788 0.000236629 0)
(-1.25545 -0.00181451 0)
(-1.25356 0.00374136 0)
)
;

boundaryField
{
    topWall
    {
        type            extrapolatedCalculated;
        value           nonuniform List<vector> 0();
    }
    botWall
    {
        type            extrapolatedCalculated;
        value           nonuniform List<vector> 0();
    }
    inlet
    {
        type            cyclic;
    }
    outlet
    {
        type            cyclic;
    }
    fixWall
    {
        type            empty;
    }
    procBoundary5to4
    {
        type            processor;
        value           nonuniform List<vector> 8((-1.25163 -0.00183384 0) (-1.25213 0.000600533 0) (-1.24765 -0.000162367 0) (-1.24686 0.00127109 0) (-1.24488 0.000251506 0) (-1.24758 -0.00031116 0) (-1.25584 -0.000910073 0) (-1.25343 0.00218357 0));
    }
    procBoundary5to6
    {
        type            processor;
        value           nonuniform List<vector> 8((-1.25201 -0.00184166 0) (-1.25165 0.000983915 0) (-1.24761 0.000453009 0) (-1.2469 0.000764343 0) (-1.24496 -0.000249755 0) (-1.24788 -0.000246361 0) (-1.25542 -0.00117776 0) (-1.25357 0.00273571 0));
    }
}


// ************************************************************************* //
