/*--------------------------------*- C++ -*----------------------------------*\
  =========                 |
  \\      /  F ield         | OpenFOAM: The Open Source CFD Toolbox
   \\    /   O peration     | Website:  https://openfoam.org
    \\  /    A nd           | Version:  dev
     \\/     M anipulation  |

   OpenFOAM for Windows 20.09 (v1)
   Built by CFD Support, www.cfdsupport.com (based on Symscape).
\*---------------------------------------------------------------------------*/
FoamFile
{
    version     2.0;
    format      ascii;
    class       volVectorField;
    location    "8";
    object      gradp;
}
// * * * * * * * * * * * * * * * * * * * * * * * * * * * * * * * * * * * * * //

dimensions      [1 -2 -2 0 0 0 0];

internalField   nonuniform List<vector> 
120
(
(3.74836 -9.81232 0)
(-1.25211 -9.80892 0)
(-1.24765 -9.80988 0)
(-1.24686 -9.80866 0)
(3.74834 -9.81281 0)
(-1.25208 -9.80862 0)
(-1.24765 -9.80978 0)
(-1.24687 -9.80854 0)
(3.74831 -9.81326 0)
(-1.25206 -9.80856 0)
(-1.24764 -9.8097 0)
(-1.24687 -9.80847 0)
(3.74829 -9.81351 0)
(-1.25203 -9.80865 0)
(-1.24764 -9.80977 0)
(-1.24688 -9.80847 0)
(3.74826 -9.81359 0)
(-1.252 -9.80891 0)
(-1.24764 -9.80992 0)
(-1.24688 -9.80843 0)
(3.74824 -9.81367 0)
(-1.25196 -9.80907 0)
(-1.24764 -9.81001 0)
(-1.24688 -9.8084 0)
(3.74821 -9.81373 0)
(-1.25193 -9.80907 0)
(-1.24763 -9.81004 0)
(-1.24688 -9.80839 0)
(3.74818 -9.81384 0)
(-1.2519 -9.80909 0)
(-1.24762 -9.81006 0)
(-1.24687 -9.8084 0)
(3.74816 -9.81394 0)
(-1.25187 -9.80912 0)
(-1.24762 -9.81006 0)
(-1.24687 -9.80838 0)
(3.74813 -9.81404 0)
(-1.25184 -9.80917 0)
(-1.24761 -9.81008 0)
(-1.24687 -9.80842 0)
(3.7481 -9.81406 0)
(-1.25181 -9.80909 0)
(-1.24761 -9.81002 0)
(-1.24687 -9.80857 0)
(3.74808 -9.81401 0)
(-1.25177 -9.8089 0)
(-1.2476 -9.80986 0)
(-1.24687 -9.80866 0)
(3.74805 -9.81385 0)
(-1.25174 -9.80877 0)
(-1.2476 -9.80975 0)
(-1.24687 -9.8087 0)
(3.74803 -9.81336 0)
(-1.2517 -9.80866 0)
(-1.2476 -9.80955 0)
(-1.24688 -9.80889 0)
(3.748 -9.8126 0)
(-1.25167 -9.80874 0)
(-1.24761 -9.80946 0)
(-1.24689 -9.80906 0)
(-1.24489 -9.81007 0)
(-1.24759 -9.8101 0)
(-1.25582 -9.81192 0)
(3.74656 -9.80662 0)
(-1.24491 -9.81029 0)
(-1.24761 -9.80985 0)
(-1.25579 -9.81259 0)
(3.74656 -9.80582 0)
(-1.24491 -9.81028 0)
(-1.24763 -9.80946 0)
(-1.25575 -9.81286 0)
(3.74656 -9.80553 0)
(-1.24492 -9.81023 0)
(-1.24765 -9.80925 0)
(-1.25572 -9.81277 0)
(3.74656 -9.80559 0)
(-1.24493 -9.81001 0)
(-1.24767 -9.80901 0)
(-1.25569 -9.8125 0)
(3.74655 -9.80589 0)
(-1.24493 -9.8099 0)
(-1.2477 -9.80884 0)
(-1.25567 -9.81237 0)
(3.74654 -9.80604 0)
(-1.24494 -9.80986 0)
(-1.24772 -9.80875 0)
(-1.25564 -9.81236 0)
(3.74653 -9.80601 0)
(-1.24494 -9.80986 0)
(-1.24774 -9.80875 0)
(-1.25562 -9.81235 0)
(3.74651 -9.80597 0)
(-1.24494 -9.80978 0)
(-1.24776 -9.80866 0)
(-1.2556 -9.81237 0)
(3.7465 -9.80597 0)
(-1.24494 -9.80977 0)
(-1.24778 -9.80853 0)
(-1.25558 -9.81234 0)
(3.74649 -9.80598 0)
(-1.24494 -9.80997 0)
(-1.2478 -9.80865 0)
(-1.25556 -9.81257 0)
(3.74647 -9.80597 0)
(-1.24494 -9.81019 0)
(-1.24782 -9.80874 0)
(-1.25553 -9.81273 0)
(3.74646 -9.80573 0)
(-1.24494 -9.81034 0)
(-1.24784 -9.80891 0)
(-1.25551 -9.81266 0)
(3.74645 -9.80557 0)
(-1.24495 -9.81051 0)
(-1.24786 -9.8093 0)
(-1.25548 -9.81252 0)
(3.74644 -9.80579 0)
(-1.24495 -9.81045 0)
(-1.24788 -9.80976 0)
(-1.25545 -9.81181 0)
(3.74644 -9.80626 0)
)
;

boundaryField
{
    topWall
    {
        type            extrapolatedCalculated;
        value           nonuniform List<vector> 0();
    }
    botWall
    {
        type            extrapolatedCalculated;
        value           nonuniform List<vector> 0();
    }
    inlet
    {
        type            cyclic;
    }
    outlet
    {
        type            cyclic;
    }
    fixWall
    {
        type            empty;
    }
    procBoundary5to4
    {
        type            processor;
        value           nonuniform List<vector> 8((3.74837 -9.81183 0) (-1.25213 -9.8094 0) (-1.24765 -9.81016 0) (-1.24686 -9.80873 0) (-1.24488 -9.80975 0) (-1.24758 -9.81031 0) (-1.25584 -9.81091 0) (3.74657 -9.80782 0));
    }
    procBoundary5to6
    {
        type            processor;
        value           nonuniform List<vector> 8((3.74799 -9.81184 0) (-1.25165 -9.80902 0) (-1.24761 -9.80955 0) (-1.2469 -9.80924 0) (-1.24496 -9.81025 0) (-1.24788 -9.81025 0) (-1.25542 -9.81118 0) (3.74643 -9.80726 0));
    }
}


// ************************************************************************* //
