/*--------------------------------*- C++ -*----------------------------------*\
  =========                 |
  \\      /  F ield         | OpenFOAM: The Open Source CFD Toolbox
   \\    /   O peration     | Website:  https://openfoam.org
    \\  /    A nd           | Version:  dev
     \\/     M anipulation  |

   OpenFOAM for Windows 20.09 (v1)
   Built by CFD Support, www.cfdsupport.com (based on Symscape).
\*---------------------------------------------------------------------------*/
FoamFile
{
    version     2.0;
    format      ascii;
    class       volScalarField;
    location    "8";
    object      k;
}
// * * * * * * * * * * * * * * * * * * * * * * * * * * * * * * * * * * * * * //

dimensions      [0 2 -2 0 0 0 0];

internalField   nonuniform List<scalar> 
120
(
6.32062e-15
6.31378e-15
6.31681e-15
6.32012e-15
5.72562e-15
5.71679e-15
5.72045e-15
5.72349e-15
5.16753e-15
5.159e-15
5.16128e-15
5.16417e-15
4.64968e-15
4.64208e-15
4.64299e-15
4.64561e-15
4.17346e-15
4.16691e-15
4.16679e-15
4.16905e-15
3.73851e-15
3.73302e-15
3.73209e-15
3.73397e-15
3.34322e-15
3.33875e-15
3.33715e-15
3.33865e-15
2.9852e-15
2.9817e-15
2.97959e-15
2.98073e-15
2.66177e-15
2.65913e-15
2.65667e-15
2.6575e-15
2.37016e-15
2.36824e-15
2.36558e-15
2.36614e-15
2.10761e-15
2.10627e-15
2.10354e-15
2.10385e-15
1.87149e-15
1.8706e-15
1.8679e-15
1.86796e-15
1.65935e-15
1.6588e-15
1.6562e-15
1.65597e-15
1.46893e-15
1.46862e-15
1.46618e-15
1.46563e-15
1.29817e-15
1.29805e-15
1.29578e-15
1.29484e-15
6.32314e-15
6.31484e-15
6.31358e-15
6.31736e-15
5.7264e-15
5.72001e-15
5.71807e-15
5.72121e-15
5.16695e-15
5.16227e-15
5.15963e-15
5.16229e-15
4.64837e-15
4.64511e-15
4.64186e-15
4.64416e-15
4.17182e-15
4.16966e-15
4.16603e-15
4.16806e-15
3.73671e-15
3.73541e-15
3.73159e-15
3.73345e-15
3.34131e-15
3.34064e-15
3.33677e-15
3.3386e-15
2.98327e-15
2.98306e-15
2.97915e-15
2.98108e-15
2.65986e-15
2.65998e-15
2.65593e-15
2.65817e-15
2.3683e-15
2.36871e-15
2.36425e-15
2.36707e-15
2.10578e-15
2.10646e-15
2.10307e-15
2.10496e-15
1.86973e-15
1.8706e-15
1.86806e-15
1.86923e-15
1.65773e-15
1.65868e-15
1.65681e-15
1.65743e-15
1.46747e-15
1.46845e-15
1.46707e-15
1.46731e-15
1.2969e-15
1.29785e-15
1.29685e-15
1.29681e-15
)
;

boundaryField
{
    topWall
    {
        type            kqRWallFunction;
        value           nonuniform List<scalar> 0();
    }
    botWall
    {
        type            kqRWallFunction;
        value           nonuniform List<scalar> 0();
    }
    inlet
    {
        type            cyclic;
    }
    outlet
    {
        type            cyclic;
    }
    fixWall
    {
        type            empty;
    }
    procBoundary5to4
    {
        type            processor;
        value           nonuniform List<scalar> 8(6.9514e-15 6.94643e-15 6.94937e-15 6.95304e-15 6.95608e-15 6.94563e-15 6.94509e-15 6.94961e-15);
    }
    procBoundary5to6
    {
        type            processor;
        value           nonuniform List<scalar> 8(1.1452e-15 1.14522e-15 1.14315e-15 1.14238e-15 1.14412e-15 1.14503e-15 1.14431e-15 1.14409e-15);
    }
}


// ************************************************************************* //
