/*--------------------------------*- C++ -*----------------------------------*\
  =========                 |
  \\      /  F ield         | OpenFOAM: The Open Source CFD Toolbox
   \\    /   O peration     | Website:  https://openfoam.org
    \\  /    A nd           | Version:  dev
     \\/     M anipulation  |

   OpenFOAM for Windows 20.09 (v1)
   Built by CFD Support, www.cfdsupport.com (based on Symscape).
\*---------------------------------------------------------------------------*/
FoamFile
{
    version     2.0;
    format      ascii;
    class       volScalarField;
    location    "8";
    object      nut;
}
// * * * * * * * * * * * * * * * * * * * * * * * * * * * * * * * * * * * * * //

dimensions      [0 2 -1 0 0 0 0];

internalField   nonuniform List<scalar> 
120
(
2.41094e-16
2.41812e-16
2.41947e-16
2.41946e-16
2.53671e-16
2.5512e-16
2.54949e-16
2.54618e-16
2.4414e-16
2.43393e-16
2.43397e-16
2.4355e-16
2.25437e-16
2.24802e-16
2.2476e-16
2.24894e-16
2.0612e-16
2.05594e-16
2.05518e-16
2.05634e-16
1.86663e-16
1.8624e-16
1.86139e-16
1.86235e-16
1.67489e-16
1.67159e-16
1.67039e-16
1.67116e-16
1.48954e-16
1.48706e-16
1.48573e-16
1.48633e-16
1.31344e-16
1.31165e-16
1.31025e-16
1.3107e-16
1.14871e-16
1.14748e-16
1.14606e-16
1.14637e-16
9.96763e-17
9.95961e-17
9.94576e-17
9.94773e-17
8.58398e-17
8.57903e-17
8.56586e-17
8.5666e-17
7.33837e-17
7.33564e-17
7.3234e-17
7.32285e-17
6.22889e-17
6.22772e-17
6.21658e-17
6.21465e-17
5.25036e-17
5.25023e-17
5.24033e-17
5.23688e-17
2.42337e-16
2.41703e-16
2.41755e-16
2.41281e-16
2.556e-16
2.5446e-16
2.54961e-16
2.54462e-16
2.43722e-16
2.43572e-16
2.4342e-16
2.43457e-16
2.25056e-16
2.2494e-16
2.24789e-16
2.24842e-16
2.05788e-16
2.05701e-16
2.05564e-16
2.05612e-16
1.86383e-16
1.86329e-16
1.86191e-16
1.8624e-16
1.67259e-16
1.67233e-16
1.67089e-16
1.67143e-16
1.48769e-16
1.48765e-16
1.48613e-16
1.48677e-16
1.31198e-16
1.31209e-16
1.31043e-16
1.31126e-16
1.14755e-16
1.1478e-16
1.14589e-16
1.14703e-16
9.95837e-17
9.96185e-17
9.94758e-17
9.95463e-17
8.57637e-17
8.5805e-17
8.57001e-17
8.57392e-17
7.33225e-17
7.33649e-17
7.32891e-17
7.33059e-17
6.22406e-17
6.22813e-17
6.22273e-17
6.22287e-17
5.24669e-17
5.25039e-17
5.24658e-17
5.24573e-17
)
;

boundaryField
{
    topWall
    {
        type            nutkWallFunction;
        Cmu             0.09;
        kappa           0.41;
        E               9.8;
        value           nonuniform List<scalar> 0();
    }
    botWall
    {
        type            nutkWallFunction;
        Cmu             0.09;
        kappa           0.41;
        E               9.8;
        value           nonuniform List<scalar> 0();
    }
    inlet
    {
        type            cyclic;
    }
    outlet
    {
        type            cyclic;
    }
    fixWall
    {
        type            empty;
    }
    procBoundary5to4
    {
        type            processor;
        value           nonuniform List<scalar> 8(2.29205e-16 2.29425e-16 2.29746e-16 2.29911e-16 2.29932e-16 2.29648e-16 2.29445e-16 2.29031e-16);
    }
    procBoundary5to6
    {
        type            processor;
        value           nonuniform List<scalar> 8(4.39514e-17 4.39567e-17 4.38698e-17 4.38429e-17 4.39227e-17 4.39567e-17 4.393e-17 4.39151e-17);
    }
}


// ************************************************************************* //
