/*--------------------------------*- C++ -*----------------------------------*\
  =========                 |
  \\      /  F ield         | OpenFOAM: The Open Source CFD Toolbox
   \\    /   O peration     | Website:  https://openfoam.org
    \\  /    A nd           | Version:  dev
     \\/     M anipulation  |

   OpenFOAM for Windows 20.09 (v1)
   Built by CFD Support, www.cfdsupport.com (based on Symscape).
\*---------------------------------------------------------------------------*/
FoamFile
{
    version     2.0;
    format      ascii;
    class       volScalarField;
    location    "8";
    object      omega;
}
// * * * * * * * * * * * * * * * * * * * * * * * * * * * * * * * * * * * * * //

dimensions      [0 0 -1 0 0 0 0];

internalField   nonuniform List<scalar> 
120
(
22.7614
22.8052
22.8166
22.8111
21.8768
21.9131
21.9234
21.9203
21.1662
21.1962
21.2052
21.2037
20.6251
20.6496
20.6575
20.6568
20.2477
20.2676
20.2745
20.2742
20.0282
20.0442
20.0501
20.0498
19.9609
19.9735
19.9783
19.978
20.0411
20.051
20.0548
20.0543
20.2656
20.2732
20.2761
20.2755
20.6332
20.6387
20.641
20.6402
21.1445
21.1481
21.1501
21.1491
21.8021
21.8043
21.8063
21.8051
22.612
22.6128
22.6152
22.6138
23.5826
23.5821
23.585
23.5834
24.7253
24.7236
24.7271
24.7253
22.8063
22.7937
22.8038
22.8182
21.916
21.907
21.913
21.9236
21.2002
21.194
21.1964
21.2041
20.6543
20.6504
20.6498
20.6552
20.2724
20.2705
20.2663
20.2715
20.0485
20.0473
20.0417
20.0465
19.9769
19.976
19.97
19.9745
20.053
20.0522
20.0464
20.0507
20.2737
20.2729
20.2677
20.2718
20.6378
20.637
20.6325
20.6365
21.1458
21.1453
21.1416
21.1456
21.801
21.8006
21.7977
21.8014
22.6087
22.6087
22.6064
22.6098
23.5774
23.5777
23.576
23.5793
24.7185
24.7191
24.718
24.7213
)
;

boundaryField
{
    topWall
    {
        beta1           0.075;
        blended         0;
        type            omegaWallFunction;
        value           nonuniform List<scalar> 0();
    }
    botWall
    {
        beta1           0.075;
        blended         0;
        type            omegaWallFunction;
        value           nonuniform List<scalar> 0();
    }
    inlet
    {
        type            cyclic;
    }
    outlet
    {
        type            cyclic;
    }
    fixWall
    {
        type            empty;
    }
    procBoundary5to4
    {
        type            processor;
        value           nonuniform List<scalar> 8(23.9827 24.0386 24.0489 24.0421 24.0352 24.0174 24.0335 24.0516);
    }
    procBoundary5to6
    {
        type            processor;
        value           nonuniform List<scalar> 8(26.0561 26.0534 26.0578 26.0562 26.0485 26.049 26.0484 26.0523);
    }
}


// ************************************************************************* //
