/*--------------------------------*- C++ -*----------------------------------*\
  =========                 |
  \\      /  F ield         | OpenFOAM: The Open Source CFD Toolbox
   \\    /   O peration     | Website:  https://openfoam.org
    \\  /    A nd           | Version:  dev
     \\/     M anipulation  |

   OpenFOAM for Windows 20.09 (v1)
   Built by CFD Support, www.cfdsupport.com (based on Symscape).
\*---------------------------------------------------------------------------*/
FoamFile
{
    version     2.0;
    format      ascii;
    class       volScalarField;
    location    "8";
    object      p;
}
// * * * * * * * * * * * * * * * * * * * * * * * * * * * * * * * * * * * * * //

dimensions      [1 -1 -2 0 0 0 0];

internalField   nonuniform List<scalar> 
120
(
-5.01072
-5.07355
-5.13593
-5.19832
-5.0189
-5.08173
-5.14411
-5.20649
-5.02708
-5.0899
-5.15228
-5.21467
-5.03526
-5.09808
-5.16046
-5.22284
-5.04343
-5.10625
-5.16863
-5.23101
-5.05161
-5.11442
-5.17681
-5.23919
-5.05979
-5.1226
-5.18498
-5.24736
-5.06797
-5.13077
-5.19316
-5.25553
-5.07615
-5.13895
-5.20133
-5.26371
-5.08432
-5.14712
-5.20951
-5.27188
-5.0925
-5.1553
-5.21768
-5.28006
-5.10068
-5.16347
-5.22586
-5.28823
-5.10886
-5.17164
-5.23403
-5.2964
-5.11704
-5.17982
-5.24221
-5.30458
-5.12522
-5.18799
-5.25038
-5.31275
-5.26062
-5.32281
-5.38538
-5.44839
-5.2688
-5.33098
-5.39356
-5.45656
-5.27697
-5.33916
-5.40173
-5.46473
-5.28515
-5.34733
-5.40991
-5.4729
-5.29332
-5.35551
-5.41809
-5.48108
-5.3015
-5.36368
-5.42627
-5.48925
-5.30967
-5.37185
-5.43444
-5.49742
-5.31785
-5.38003
-5.44262
-5.50559
-5.32602
-5.3882
-5.4508
-5.51376
-5.3342
-5.39638
-5.45897
-5.52193
-5.34237
-5.40455
-5.46715
-5.53011
-5.35055
-5.41272
-5.47533
-5.53828
-5.35872
-5.4209
-5.4835
-5.54645
-5.3669
-5.42907
-5.49168
-5.55462
-5.37507
-5.43725
-5.49986
-5.56279
)
;

boundaryField
{
    topWall
    {
        type            calculated;
        value           nonuniform List<scalar> 0();
    }
    botWall
    {
        type            calculated;
        value           nonuniform List<scalar> 0();
    }
    inlet
    {
        type            cyclic;
    }
    outlet
    {
        type            cyclic;
    }
    fixWall
    {
        type            empty;
    }
    procBoundary5to4
    {
        type            processor;
        value           nonuniform List<scalar> 8(-5.00255 -5.06538 -5.12776 -5.19014 -5.25245 -5.31463 -5.3772 -5.44022);
    }
    procBoundary5to6
    {
        type            processor;
        value           nonuniform List<scalar> 8(-5.13339 -5.19617 -5.25856 -5.32093 -5.38325 -5.44542 -5.50804 -5.57096);
    }
}


// ************************************************************************* //
