/*--------------------------------*- C++ -*----------------------------------*\
  =========                 |
  \\      /  F ield         | OpenFOAM: The Open Source CFD Toolbox
   \\    /   O peration     | Website:  https://openfoam.org
    \\  /    A nd           | Version:  dev
     \\/     M anipulation  |

   OpenFOAM for Windows 20.09 (v1)
   Built by CFD Support, www.cfdsupport.com (based on Symscape).
\*---------------------------------------------------------------------------*/
FoamFile
{
    version     2.0;
    format      ascii;
    class       volScalarField;
    location    "8";
    object      p_rgh;
}
// * * * * * * * * * * * * * * * * * * * * * * * * * * * * * * * * * * * * * //

dimensions      [1 -1 -2 0 0 0 0];

internalField   nonuniform List<scalar> 
120
(
-4.39351
-4.45634
-4.51872
-4.58111
-4.39351
-4.45634
-4.51872
-4.58111
-4.39352
-4.45634
-4.51872
-4.5811
-4.39352
-4.45634
-4.51872
-4.5811
-4.39352
-4.45634
-4.51872
-4.5811
-4.39352
-4.45634
-4.51872
-4.5811
-4.39353
-4.45634
-4.51872
-4.5811
-4.39353
-4.45633
-4.51872
-4.5811
-4.39353
-4.45633
-4.51872
-4.5811
-4.39354
-4.45633
-4.51872
-4.58109
-4.39354
-4.45633
-4.51872
-4.58109
-4.39354
-4.45633
-4.51872
-4.58109
-4.39355
-4.45633
-4.51872
-4.58109
-4.39355
-4.45633
-4.51872
-4.58109
-4.39355
-4.45633
-4.51872
-4.58109
-4.64341
-4.7056
-4.76817
-4.83118
-4.64341
-4.7056
-4.76817
-4.83117
-4.64341
-4.7056
-4.76817
-4.83117
-4.64341
-4.70559
-4.76817
-4.83117
-4.64341
-4.70559
-4.76818
-4.83116
-4.64341
-4.70559
-4.76818
-4.83116
-4.64341
-4.70559
-4.76818
-4.83116
-4.64341
-4.70559
-4.76818
-4.83115
-4.64341
-4.70559
-4.76818
-4.83115
-4.64341
-4.70559
-4.76819
-4.83115
-4.64341
-4.70559
-4.76819
-4.83114
-4.64341
-4.70559
-4.76819
-4.83114
-4.64341
-4.70559
-4.76819
-4.83114
-4.64341
-4.70558
-4.76819
-4.83113
-4.64341
-4.70558
-4.7682
-4.83113
)
;

boundaryField
{
    topWall
    {
        type            zeroGradient;
    }
    botWall
    {
        type            zeroGradient;
    }
    inlet
    {
        type            fixedJump;
        patchType       cyclic;
        jump            uniform -0.5;
        value           nonuniform List<scalar> 
15
(
-4.36234
-4.36234
-4.36234
-4.36234
-4.36234
-4.36234
-4.36234
-4.36234
-4.36234
-4.36234
-4.36234
-4.36234
-4.36234
-4.36234
-4.36234
)
;
    }
    outlet
    {
        type            fixedJump;
        patchType       cyclic;
        value           nonuniform List<scalar> 
15
(
-4.86234
-4.86234
-4.86234
-4.86234
-4.86234
-4.86234
-4.86234
-4.86234
-4.86234
-4.86234
-4.86234
-4.86234
-4.86234
-4.86234
-4.86234
)
;
    }
    fixWall
    {
        type            empty;
    }
    procBoundary5to4
    {
        type            processor;
        value           nonuniform List<scalar> 8(-4.39351 -4.45634 -4.51872 -4.58111 -4.64341 -4.7056 -4.76817 -4.83118);
    }
    procBoundary5to6
    {
        type            processor;
        value           nonuniform List<scalar> 8(-4.39355 -4.45633 -4.51872 -4.58109 -4.64341 -4.70558 -4.7682 -4.83113);
    }
}


// ************************************************************************* //
