/*--------------------------------*- C++ -*----------------------------------*\
  =========                 |
  \\      /  F ield         | OpenFOAM: The Open Source CFD Toolbox
   \\    /   O peration     | Website:  https://openfoam.org
    \\  /    A nd           | Version:  dev
     \\/     M anipulation  |

   OpenFOAM for Windows 20.09 (v1)
   Built by CFD Support, www.cfdsupport.com (based on Symscape).
\*---------------------------------------------------------------------------*/
FoamFile
{
    version     2.0;
    format      ascii;
    class       surfaceScalarField;
    location    "8";
    object      phi;
}
// * * * * * * * * * * * * * * * * * * * * * * * * * * * * * * * * * * * * * //

dimensions      [0 3 -1 0 0 0 0];

internalField   nonuniform List<scalar> 
217
(
3.17287e-07
-1.33395e-10
3.17366e-07
3.87506e-10
3.17397e-07
-1.16828e-09
-1.98393e-09
3.17353e-07
3.225e-07
-1.14304e-10
3.22566e-07
3.21372e-10
3.22599e-07
-1.20137e-09
-1.93516e-09
3.2255e-07
3.2697e-07
-8.65139e-11
3.27021e-07
2.70285e-10
3.27067e-07
-1.24735e-09
-1.88362e-09
3.27015e-07
3.30788e-07
-5.23851e-11
3.30813e-07
2.45377e-10
3.30868e-07
-1.30257e-09
-1.8327e-09
3.30817e-07
3.34018e-07
-1.02513e-11
3.34025e-07
2.38754e-10
3.34094e-07
-1.3719e-09
-1.78812e-09
3.3405e-07
3.36731e-07
4.32318e-11
3.36725e-07
2.45228e-10
3.3681e-07
-1.4573e-09
-1.74093e-09
3.36763e-07
3.39e-07
1.08236e-10
3.38981e-07
2.64587e-10
3.39082e-07
-1.5587e-09
-1.70237e-09
3.39044e-07
3.40891e-07
1.8859e-10
3.40851e-07
3.04242e-10
3.40962e-07
-1.66901e-09
-1.65365e-09
3.40913e-07
3.42442e-07
2.77037e-10
3.42385e-07
3.60577e-10
3.425e-07
-1.78328e-09
-1.61541e-09
3.42462e-07
3.43693e-07
3.72108e-10
3.43623e-07
4.31029e-10
3.43734e-07
-1.89463e-09
-1.55737e-09
3.43676e-07
3.44679e-07
4.65702e-10
3.44598e-07
5.12642e-10
3.44702e-07
-1.99884e-09
-1.51903e-09
3.44664e-07
3.45428e-07
5.58343e-10
3.45337e-07
6.03745e-10
3.45427e-07
-2.08931e-09
-1.464e-09
3.45372e-07
3.45961e-07
6.41385e-10
3.45862e-07
7.02153e-10
3.45935e-07
-2.16209e-09
-1.43121e-09
3.45902e-07
3.46293e-07
7.15757e-10
3.46188e-07
8.07011e-10
3.46237e-07
-2.21077e-09
-1.392e-09
3.46198e-07
3.46435e-07
3.46326e-07
3.46346e-07
3.46328e-07
3.17239e-07
-2.50151e-10
3.17245e-07
4.48754e-10
3.17364e-07
2.2114e-09
4.69966e-10
3.22436e-07
-1.35739e-10
3.22446e-07
4.38102e-10
3.22571e-07
2.08668e-09
5.22279e-10
3.269e-07
-2.06947e-11
3.26912e-07
4.26255e-10
3.27033e-07
1.96612e-09
5.57394e-10
3.30698e-07
9.80244e-11
3.3071e-07
4.14649e-10
3.30831e-07
1.84543e-09
5.66072e-10
3.3394e-07
2.08284e-10
3.33945e-07
4.09316e-10
3.3405e-07
1.74002e-09
5.55805e-10
3.36648e-07
3.23013e-10
3.36647e-07
4.1021e-10
3.36752e-07
1.63563e-09
5.22832e-10
3.38951e-07
4.15893e-10
3.3894e-07
4.2094e-10
3.39017e-07
1.55839e-09
4.74976e-10
3.40811e-07
5.1762e-10
3.40801e-07
4.31508e-10
3.40892e-07
1.46649e-09
3.9616e-10
3.42391e-07
5.88421e-10
3.42375e-07
4.46993e-10
3.4244e-07
1.40213e-09
3.05512e-10
3.43571e-07
6.93161e-10
3.43556e-07
4.62615e-10
3.43663e-07
1.29493e-09
1.80138e-10
3.44605e-07
7.52069e-10
3.44581e-07
4.85857e-10
3.44648e-07
1.22868e-09
5.48997e-11
3.4528e-07
8.44643e-10
3.45254e-07
5.11235e-10
3.45366e-07
1.11665e-09
-9.93297e-11
3.4586e-07
8.86474e-10
3.45829e-07
5.42034e-10
3.45898e-07
1.04798e-09
-2.44933e-10
3.46131e-07
9.5331e-10
3.46092e-07
5.80745e-10
3.462e-07
9.39471e-10
-4.11876e-10
3.46309e-07
3.46271e-07
3.46341e-07
)
;

boundaryField
{
    topWall
    {
        type            calculated;
        value           nonuniform List<scalar> 0();
    }
    botWall
    {
        type            calculated;
        value           nonuniform List<scalar> 0();
    }
    inlet
    {
        type            cyclic;
        value           nonuniform List<scalar> 
15
(
-3.17298e-07
-3.22519e-07
-3.26998e-07
-3.30822e-07
-3.34061e-07
-3.36785e-07
-3.39065e-07
-3.40971e-07
-3.4253e-07
-3.43788e-07
-3.44773e-07
-3.4552e-07
-3.46044e-07
-3.46367e-07
-3.46492e-07
)
;
    }
    outlet
    {
        type            cyclic;
        value           nonuniform List<scalar> 
15
(
3.17298e-07
3.22519e-07
3.26998e-07
3.30822e-07
3.34061e-07
3.36785e-07
3.39065e-07
3.40971e-07
3.4253e-07
3.43788e-07
3.44773e-07
3.4552e-07
3.46044e-07
3.46367e-07
3.46492e-07
)
;
    }
    fixWall
    {
        type            empty;
        value           nonuniform List<scalar> 0();
    }
    procBoundary5to4
    {
        type            processor;
        value           nonuniform List<scalar> 8(1.47718e-10 -4.64646e-10 1.14253e-09 2.03257e-09 3.69841e-10 -4.55338e-10 -2.32619e-09 -3.98659e-10);
    }
    procBoundary5to6
    {
        type            processor;
        value           nonuniform List<scalar> 8(7.71899e-10 9.17914e-10 -2.23022e-09 -1.37388e-09 9.71047e-10 6.21173e-10 8.68133e-10 -5.62268e-10);
    }
}


// ************************************************************************* //
