/*--------------------------------*- C++ -*----------------------------------*\
  =========                 |
  \\      /  F ield         | OpenFOAM: The Open Source CFD Toolbox
   \\    /   O peration     | Website:  https://openfoam.org
    \\  /    A nd           | Version:  dev
     \\/     M anipulation  |

   OpenFOAM for Windows 20.09 (v1)
   Built by CFD Support, www.cfdsupport.com (based on Symscape).
\*---------------------------------------------------------------------------*/
FoamFile
{
    version     2.0;
    format      ascii;
    class       volSymmTensorField;
    location    "8";
    object      R;
}
// * * * * * * * * * * * * * * * * * * * * * * * * * * * * * * * * * * * * * //

dimensions      [0 2 -2 0 0 0 0];

internalField   nonuniform List<symmTensor> 
120
(
(4.21399e-15 -1.95939e-15 -0 4.21356e-15 -0 4.21368e-15)
(4.20823e-15 -1.95727e-15 -0 4.21006e-15 -0 4.20927e-15)
(4.21087e-15 -1.95821e-15 -0 4.21156e-15 -0 4.21119e-15)
(4.21394e-15 -1.95924e-15 -0 4.21287e-15 -0 4.21344e-15)
(3.81745e-15 -1.77494e-15 -0 3.81676e-15 -0 3.81703e-15)
(3.81027e-15 -1.7722e-15 -0 3.8121e-15 -0 3.81121e-15)
(3.81326e-15 -1.77334e-15 -0 3.81402e-15 -0 3.81362e-15)
(3.81627e-15 -1.77428e-15 -0 3.81503e-15 -0 3.81568e-15)
(3.44543e-15 -1.46489e-15 -0 3.44471e-15 -0 3.44492e-15)
(3.43867e-15 -1.44454e-15 -0 3.43995e-15 -0 3.43938e-15)
(3.44037e-15 -1.4458e-15 -0 3.44134e-15 -0 3.44086e-15)
(3.44336e-15 -1.45342e-15 -0 3.44221e-15 -0 3.44276e-15)
(3.1003e-15 -1.15186e-15 -0 3.09928e-15 -0 3.09977e-15)
(3.09437e-15 -1.13316e-15 -0 3.09504e-15 -0 3.09475e-15)
(3.09473e-15 -1.13383e-15 -0 3.09596e-15 -0 3.09529e-15)
(3.09762e-15 -1.14136e-15 -0 3.09652e-15 -0 3.09707e-15)
(2.78281e-15 -8.88824e-16 -0 2.78186e-15 -0 2.78224e-15)
(2.77778e-15 -8.72973e-16 -0 2.7781e-15 -0 2.77794e-15)
(2.77721e-15 -8.76764e-16 -0 2.77853e-15 -0 2.77785e-15)
(2.77982e-15 -8.82244e-16 -0 2.77891e-15 -0 2.77938e-15)
(2.49292e-15 -6.7581e-16 -0 2.4918e-15 -0 2.49231e-15)
(2.4887e-15 -6.61718e-16 -0 2.48861e-15 -0 2.48873e-15)
(2.48732e-15 -6.6678e-16 -0 2.48882e-15 -0 2.48805e-15)
(2.48972e-15 -6.70472e-16 -0 2.48891e-15 -0 2.4893e-15)
(2.22941e-15 -5.07798e-16 -0 2.22825e-15 -0 2.22878e-15)
(2.22594e-15 -4.94495e-16 -0 2.2257e-15 -0 2.22586e-15)
(2.22398e-15 -4.98309e-16 -0 2.22556e-15 -0 2.22477e-15)
(2.22609e-15 -5.00523e-16 -0 2.22544e-15 -0 2.22578e-15)
(1.99077e-15 -3.74191e-16 -0 1.98954e-15 -0 1.9901e-15)
(1.98804e-15 -3.63439e-16 -0 1.98754e-15 -0 1.98782e-15)
(1.98562e-15 -3.65199e-16 -0 1.98718e-15 -0 1.98638e-15)
(1.98749e-15 -3.66168e-16 -0 1.98683e-15 -0 1.98714e-15)
(1.77513e-15 -2.68162e-16 -0 1.77392e-15 -0 1.77449e-15)
(1.77307e-15 -2.61455e-16 -0 1.77242e-15 -0 1.77277e-15)
(1.77042e-15 -2.61584e-16 -0 1.77181e-15 -0 1.77111e-15)
(1.77193e-15 -2.61609e-16 -0 1.77139e-15 -0 1.77169e-15)
(1.58067e-15 -1.8682e-16 -0 1.57957e-15 -0 1.58007e-15)
(1.57917e-15 -1.83087e-16 -0 1.57847e-15 -0 1.57883e-15)
(1.57644e-15 -1.82113e-16 -0 1.57769e-15 -0 1.57703e-15)
(1.57773e-15 -1.81388e-16 -0 1.57713e-15 -0 1.57741e-15)
(1.40556e-15 -1.25208e-16 -0 1.40459e-15 -0 1.40505e-15)
(1.40455e-15 -1.2368e-16 -0 1.40378e-15 -0 1.4042e-15)
(1.40188e-15 -1.21882e-16 -0 1.40283e-15 -0 1.40237e-15)
(1.40275e-15 -1.20668e-16 -0 1.40239e-15 -0 1.40257e-15)
(1.24807e-15 -7.91423e-17 -0 1.24727e-15 -0 1.24764e-15)
(1.24742e-15 -7.91939e-17 -0 1.2467e-15 -0 1.24708e-15)
(1.2449e-15 -7.68207e-17 -0 1.24564e-15 -0 1.24526e-15)
(1.24553e-15 -7.53179e-17 -0 1.24508e-15 -0 1.24531e-15)
(1.10655e-15 -4.51002e-17 -0 1.10594e-15 -0 1.10621e-15)
(1.10619e-15 -4.63163e-17 -0 1.10554e-15 -0 1.10587e-15)
(1.10388e-15 -4.34911e-17 -0 1.1044e-15 -0 1.10412e-15)
(1.10411e-15 -4.19343e-17 -0 1.10385e-15 -0 1.10399e-15)
(9.79541e-16 -2.02664e-17 -0 9.7904e-16 -0 9.79282e-16)
(9.79391e-16 -2.23127e-17 -0 9.78756e-16 -0 9.79103e-16)
(9.77327e-16 -1.91437e-17 -0 9.77568e-16 -0 9.77463e-16)
(9.77186e-16 -1.76636e-17 -0 9.76999e-16 -0 9.77067e-16)
(8.65612e-16 -2.39342e-18 -0 8.65283e-16 -0 8.6544e-16)
(8.65617e-16 -5.03638e-18 -0 8.65112e-16 -0 8.65361e-16)
(8.638e-16 -2.57107e-18 -0 8.63918e-16 -0 8.63844e-16)
(8.63286e-16 -1.05965e-18 -0 8.63149e-16 -0 8.6324e-16)
(4.21668e-15 -1.96017e-15 -0 4.21422e-15 -0 4.21539e-15)
(4.20977e-15 -1.9576e-15 -0 4.21011e-15 -0 4.2098e-15)
(4.20771e-15 -1.95721e-15 -0 4.21047e-15 -0 4.20899e-15)
(4.21229e-15 -1.95838e-15 -0 4.21071e-15 -0 4.21172e-15)
(3.81903e-15 -1.77518e-15 -0 3.8161e-15 -0 3.81767e-15)
(3.81331e-15 -1.7732e-15 -0 3.81333e-15 -0 3.81339e-15)
(3.81063e-15 -1.7726e-15 -0 3.81346e-15 -0 3.81205e-15)
(3.8146e-15 -1.77358e-15 -0 3.81366e-15 -0 3.81417e-15)
(3.44592e-15 -1.44715e-15 -0 3.44334e-15 -0 3.44463e-15)
(3.44139e-15 -1.45211e-15 -0 3.44166e-15 -0 3.44149e-15)
(3.43838e-15 -1.44547e-15 -0 3.44119e-15 -0 3.43969e-15)
(3.44182e-15 -1.44995e-15 -0 3.44115e-15 -0 3.4416e-15)
(3.10017e-15 -1.13773e-15 -0 3.09765e-15 -0 3.09893e-15)
(3.09662e-15 -1.14321e-15 -0 3.0969e-15 -0 3.09671e-15)
(3.09339e-15 -1.13408e-15 -0 3.09574e-15 -0 3.0946e-15)
(3.09605e-15 -1.13779e-15 -0 3.09613e-15 -0 3.09613e-15)
(2.78231e-15 -8.79147e-16 -0 2.78005e-15 -0 2.78127e-15)
(2.77978e-15 -8.83767e-16 -0 2.77974e-15 -0 2.77979e-15)
(2.77636e-15 -8.7432e-16 -0 2.77838e-15 -0 2.77733e-15)
(2.77847e-15 -8.78569e-16 -0 2.77892e-15 -0 2.77873e-15)
(2.49209e-15 -6.69387e-16 -0 2.49022e-15 -0 2.49111e-15)
(2.49027e-15 -6.75507e-16 -0 2.49031e-15 -0 2.49023e-15)
(2.48684e-15 -6.64235e-16 -0 2.48863e-15 -0 2.48771e-15)
(2.4886e-15 -6.67661e-16 -0 2.48926e-15 -0 2.48904e-15)
(2.2283e-15 -4.98699e-16 -0 2.22673e-15 -0 2.22759e-15)
(2.22723e-15 -5.04026e-16 -0 2.22694e-15 -0 2.22711e-15)
(2.22392e-15 -4.95721e-16 -0 2.22514e-15 -0 2.22448e-15)
(2.22526e-15 -5.00782e-16 -0 2.22617e-15 -0 2.22577e-15)
(1.98951e-15 -3.6584e-16 -0 1.98822e-15 -0 1.98881e-15)
(1.98876e-15 -3.71231e-16 -0 1.9887e-15 -0 1.98865e-15)
(1.98549e-15 -3.64304e-16 -0 1.98671e-15 -0 1.98609e-15)
(1.98676e-15 -3.68288e-16 -0 1.98796e-15 -0 1.98743e-15)
(1.77372e-15 -2.60248e-16 -0 1.7727e-15 -0 1.77331e-15)
(1.77348e-15 -2.61303e-16 -0 1.77313e-15 -0 1.77335e-15)
(1.77022e-15 -2.5889e-16 -0 1.77105e-15 -0 1.77059e-15)
(1.77147e-15 -2.64066e-16 -0 1.77274e-15 -0 1.77213e-15)
(1.57939e-15 -1.82407e-16 -0 1.57836e-15 -0 1.57884e-15)
(1.57923e-15 -1.83563e-16 -0 1.57907e-15 -0 1.57912e-15)
(1.57565e-15 -1.80754e-16 -0 1.57666e-15 -0 1.5762e-15)
(1.57731e-15 -1.83793e-16 -0 1.57874e-15 -0 1.57808e-15)
(1.40414e-15 -1.22528e-16 -0 1.40355e-15 -0 1.40388e-15)
(1.40442e-15 -1.22567e-16 -0 1.4042e-15 -0 1.40429e-15)
(1.40169e-15 -1.20907e-16 -0 1.40248e-15 -0 1.40198e-15)
(1.40264e-15 -1.23214e-16 -0 1.40398e-15 -0 1.40331e-15)
(1.24684e-15 -7.7649e-17 -0 1.24615e-15 -0 1.24648e-15)
(1.2472e-15 -7.75214e-17 -0 1.24693e-15 -0 1.24707e-15)
(1.24498e-15 -7.65652e-17 -0 1.24574e-15 -0 1.24541e-15)
(1.24552e-15 -7.77998e-17 -0 1.24673e-15 -0 1.24621e-15)
(1.10531e-15 -4.52491e-17 -0 1.10497e-15 -0 1.10518e-15)
(1.10591e-15 -4.46972e-17 -0 1.10568e-15 -0 1.10578e-15)
(1.10428e-15 -4.37406e-17 -0 1.10483e-15 -0 1.1045e-15)
(1.10439e-15 -4.43196e-17 -0 1.10552e-15 -0 1.10495e-15)
(9.78476e-16 -2.05612e-17 -0 9.78174e-16 -0 9.78291e-16)
(9.79089e-16 -1.97311e-17 -0 9.78851e-16 -0 9.78957e-16)
(9.77739e-16 -1.98398e-17 -0 9.78363e-16 -0 9.78046e-16)
(9.7769e-16 -1.98743e-17 -0 9.78698e-16 -0 9.78228e-16)
(8.64668e-16 -4.02724e-18 -0 8.64506e-16 -0 8.64633e-16)
(8.6534e-16 -3.03953e-18 -0 8.65126e-16 -0 8.6523e-16)
(8.64419e-16 -2.56272e-18 -0 8.64696e-16 -0 8.64582e-16)
(8.64144e-16 -2.27535e-18 -0 8.64924e-16 -0 8.64556e-16)
)
;

boundaryField
{
    topWall
    {
        type            kqRWallFunction;
        value           nonuniform List<symmTensor> 0();
    }
    botWall
    {
        type            kqRWallFunction;
        value           nonuniform List<symmTensor> 0();
    }
    inlet
    {
        type            cyclic;
    }
    outlet
    {
        type            cyclic;
    }
    fixWall
    {
        type            empty;
    }
    procBoundary5to4
    {
        type            processor;
        value           nonuniform List<symmTensor> 8((4.63443e-15 -2.15494e-15 -0 4.63415e-15 -0 4.63422e-15) (4.62994e-15 -2.15339e-15 -0 4.6319e-15 -0 4.63103e-15) (4.63266e-15 -2.15431e-15 -0 4.63312e-15 -0 4.63296e-15) (4.63585e-15 -2.15544e-15 -0 4.63486e-15 -0 4.63536e-15) (4.63863e-15 -2.15638e-15 -0 4.63611e-15 -0 4.63741e-15) (4.63044e-15 -2.15314e-15 -0 4.63035e-15 -0 4.63046e-15) (4.62884e-15 -2.15298e-15 -0 4.63137e-15 -0 4.62997e-15) (4.63384e-15 -2.15438e-15 -0 4.63217e-15 -0 4.63321e-15));
    }
    procBoundary5to6
    {
        type            processor;
        value           nonuniform List<symmTensor> 8((7.63561e-16 1.02463e-17 -0 7.63393e-16 -0 7.63456e-16) (7.63679e-16 7.1911e-18 -0 7.63282e-16 -0 7.63482e-16) (7.62114e-16 8.42484e-18 -0 7.62092e-16 -0 7.62098e-16) (7.61624e-16 1.06903e-17 -0 7.61553e-16 -0 7.61579e-16) (7.62818e-16 1.03694e-17 -0 7.62675e-16 -0 7.62743e-16) (7.63483e-16 1.10407e-17 -0 7.63222e-16 -0 7.63351e-16) (7.62666e-16 9.95633e-18 -0 7.63086e-16 -0 7.62861e-16) (7.62335e-16 1.01877e-17 -0 7.63136e-16 -0 7.62709e-16));
    }
}


// ************************************************************************* //
