/*--------------------------------*- C++ -*----------------------------------*\
  =========                 |
  \\      /  F ield         | OpenFOAM: The Open Source CFD Toolbox
   \\    /   O peration     | Website:  https://openfoam.org
    \\  /    A nd           | Version:  dev
     \\/     M anipulation  |

   OpenFOAM for Windows 20.09 (v1)
   Built by CFD Support, www.cfdsupport.com (based on Symscape).
\*---------------------------------------------------------------------------*/
FoamFile
{
    version     2.0;
    format      ascii;
    class       volVectorField;
    location    "8";
    object      U;
}
// * * * * * * * * * * * * * * * * * * * * * * * * * * * * * * * * * * * * * //

dimensions      [0 1 -1 0 0 0 0];

internalField   nonuniform List<vector> 
120
(
(0.380672 -3.14395e-06 0)
(0.380799 8.64094e-06 0)
(0.380887 -2.26595e-05 0)
(0.380864 -4.02859e-05 0)
(0.386945 -2.27716e-06 0)
(0.387038 7.22224e-06 0)
(0.387128 -2.40489e-05 0)
(0.387107 -3.91078e-05 0)
(0.392334 -2.27913e-06 0)
(0.392377 5.71418e-06 0)
(0.392481 -2.39717e-05 0)
(0.392478 -3.81553e-05 0)
(0.396945 -1.54913e-06 0)
(0.39693 5.29212e-06 0)
(0.397029 -2.5701e-05 0)
(0.397053 -3.72231e-05 0)
(0.40085 -4.78135e-07 0)
(0.400779 4.63281e-06 0)
(0.400889 -2.64724e-05 0)
(0.400936 -3.61186e-05 0)
(0.404132 -1.15884e-08 0)
(0.404007 4.63938e-06 0)
(0.40414 -2.84458e-05 0)
(0.404203 -3.53367e-05 0)
(0.406884 1.78127e-06 0)
(0.406701 5.14803e-06 0)
(0.40686 -2.99056e-05 0)
(0.406936 -3.43545e-05 0)
(0.409185 2.59003e-06 0)
(0.408938 5.47502e-06 0)
(0.409112 -3.24136e-05 0)
(0.409194 -3.36451e-05 0)
(0.411071 4.91565e-06 0)
(0.410775 6.70518e-06 0)
(0.410958 -3.43963e-05 0)
(0.411041 -3.26368e-05 0)
(0.412588 6.17611e-06 0)
(0.412261 7.71942e-06 0)
(0.412441 -3.68526e-05 0)
(0.41252 -3.1743e-05 0)
(0.413781 8.58264e-06 0)
(0.413435 9.29634e-06 0)
(0.413607 -3.91657e-05 0)
(0.413677 -3.05921e-05 0)
(0.414681 1.00215e-05 0)
(0.414331 1.12277e-05 0)
(0.414484 -4.07177e-05 0)
(0.414541 -3.02291e-05 0)
(0.415318 1.21271e-05 0)
(0.414974 1.30119e-05 0)
(0.415102 -4.28414e-05 0)
(0.415142 -2.83733e-05 0)
(0.415705 1.3155e-05 0)
(0.415384 1.50348e-05 0)
(0.415474 -4.38251e-05 0)
(0.415494 -2.85701e-05 0)
(0.41586 1.53575e-05 0)
(0.415572 1.7654e-05 0)
(0.415616 -4.42391e-05 0)
(0.415614 -2.74604e-05 0)
(0.380783 -6.68679e-06 0)
(0.380599 8.82414e-06 0)
(0.38079 4.53166e-05 0)
(0.380864 9.53145e-06 0)
(0.387012 -3.79859e-06 0)
(0.386843 8.69177e-06 0)
(0.387029 4.25842e-05 0)
(0.387122 9.94043e-06 0)
(0.392358 -1.56755e-06 0)
(0.392212 9.03273e-06 0)
(0.392378 4.07092e-05 0)
(0.392481 1.1197e-05 0)
(0.396907 5.88917e-07 0)
(0.396778 8.1144e-06 0)
(0.396926 3.74695e-05 0)
(0.397048 1.14991e-05 0)
(0.400782 3.17204e-06 0)
(0.400682 8.33538e-06 0)
(0.400786 3.65005e-05 0)
(0.400916 1.11857e-05 0)
(0.404027 5.52542e-06 0)
(0.403938 8.30139e-06 0)
(0.404015 3.31946e-05 0)
(0.404171 1.07217e-05 0)
(0.406768 7.15336e-06 0)
(0.406724 7.98912e-06 0)
(0.406732 3.23527e-05 0)
(0.406891 1.02073e-05 0)
(0.408995 9.79051e-06 0)
(0.408961 9.12276e-06 0)
(0.40896 2.98754e-05 0)
(0.409165 8.74144e-06 0)
(0.410865 1.04734e-05 0)
(0.410882 7.70323e-06 0)
(0.410817 2.89236e-05 0)
(0.41102 7.23618e-06 0)
(0.412301 1.3621e-05 0)
(0.41228 1.05344e-05 0)
(0.412252 2.69417e-05 0)
(0.412521 4.85656e-06 0)
(0.413514 1.39266e-05 0)
(0.413548 8.06067e-06 0)
(0.413447 2.55615e-05 0)
(0.413691 2.44775e-06 0)
(0.414351 1.63688e-05 0)
(0.414331 1.12486e-05 0)
(0.414278 2.27408e-05 0)
(0.414585 -7.63795e-07 0)
(0.415022 1.70935e-05 0)
(0.415053 9.46058e-06 0)
(0.414936 2.23479e-05 0)
(0.415204 -2.55141e-06 0)
(0.415379 1.87027e-05 0)
(0.415346 1.23453e-05 0)
(0.415273 1.90176e-05 0)
(0.415592 -7.22274e-06 0)
(0.415572 1.86559e-05 0)
(0.415581 1.08816e-05 0)
(0.415468 1.81012e-05 0)
(0.415736 -8.8457e-06 0)
)
;

boundaryField
{
    topWall
    {
        type            noSlip;
    }
    botWall
    {
        type            noSlip;
    }
    inlet
    {
        type            cyclic;
    }
    outlet
    {
        type            cyclic;
    }
    fixWall
    {
        type            empty;
    }
    procBoundary5to4
    {
        type            processor;
        value           nonuniform List<vector> 8((0.373399 -2.67676e-06 0) (0.373547 9.92546e-06 0) (0.373638 -2.27633e-05 0) (0.373611 -4.10605e-05 0) (0.373532 -7.83023e-06 0) (0.373345 9.7509e-06 0) (0.373536 4.76842e-05 0) (0.373593 6.46809e-06 0));
    }
    procBoundary5to6
    {
        type            processor;
        value           nonuniform List<vector> 8((0.415781 1.56495e-05 0) (0.415545 1.89877e-05 0) (0.415557 -4.50005e-05 0) (0.415527 -2.71227e-05 0) (0.415506 2.07166e-05 0) (0.415442 1.40016e-05 0) (0.415355 1.72059e-05 0) (0.415665 -1.30706e-05 0));
    }
}


// ************************************************************************* //
