/*--------------------------------*- C++ -*----------------------------------*\
  =========                 |
  \\      /  F ield         | OpenFOAM: The Open Source CFD Toolbox
   \\    /   O peration     | Website:  https://openfoam.org
    \\  /    A nd           | Version:  dev
     \\/     M anipulation  |

   OpenFOAM for Windows 20.09 (v1)
   Built by CFD Support, www.cfdsupport.com (based on Symscape).
\*---------------------------------------------------------------------------*/
FoamFile
{
    version     2.0;
    format      ascii;
    class       volVectorField;
    location    "8";
    object      UMean;
}
// * * * * * * * * * * * * * * * * * * * * * * * * * * * * * * * * * * * * * //

dimensions      [0 1 -1 0 0 0 0];

internalField   nonuniform List<vector> 
120
(
(0.243674 -4.83798e-06 0)
(0.243613 8.71883e-07 0)
(0.243707 -2.39269e-06 0)
(0.243737 -1.16665e-05 0)
(0.246265 -4.47771e-06 0)
(0.246173 2.22624e-06 0)
(0.246282 -2.97942e-06 0)
(0.246314 -8.42259e-06 0)
(0.248386 -2.94386e-06 0)
(0.248265 1.9587e-06 0)
(0.248388 -4.54658e-06 0)
(0.248427 -9.49847e-06 0)
(0.250116 -2.5948e-06 0)
(0.249967 1.33332e-06 0)
(0.250102 -5.91567e-06 0)
(0.250145 -7.73568e-06 0)
(0.251517 -7.28374e-07 0)
(0.251345 3.39597e-06 0)
(0.251489 -6.94085e-06 0)
(0.251537 -5.32198e-06 0)
(0.252644 6.42661e-08 0)
(0.252453 2.04073e-06 0)
(0.252607 -9.31097e-06 0)
(0.252657 -7.09819e-06 0)
(0.253547 1.4278e-06 0)
(0.25334 3.58878e-06 0)
(0.253501 -1.05883e-05 0)
(0.253552 -3.86883e-06 0)
(0.254267 2.93719e-06 0)
(0.254046 3.30582e-06 0)
(0.254209 -1.24005e-05 0)
(0.254262 -4.99245e-06 0)
(0.254834 3.88135e-06 0)
(0.254603 4.36768e-06 0)
(0.254766 -1.43824e-05 0)
(0.254816 -3.2583e-06 0)
(0.255272 5.75809e-06 0)
(0.255039 4.93981e-06 0)
(0.255196 -1.57756e-05 0)
(0.255245 -3.65771e-06 0)
(0.255605 6.81418e-06 0)
(0.255372 5.79541e-06 0)
(0.255521 -1.78694e-05 0)
(0.255566 -2.78821e-06 0)
(0.255847 7.62676e-06 0)
(0.255622 5.94696e-06 0)
(0.255758 -1.90984e-05 0)
(0.255801 -3.43265e-06 0)
(0.256013 9.69624e-06 0)
(0.255798 7.98847e-06 0)
(0.255921 -2.04014e-05 0)
(0.255955 -2.58556e-06 0)
(0.256109 9.90895e-06 0)
(0.255913 7.35771e-06 0)
(0.256019 -2.18566e-05 0)
(0.256044 -3.35943e-06 0)
(0.256144 1.10772e-05 0)
(0.255968 9.37925e-06 0)
(0.256054 -2.24617e-05 0)
(0.256064 -2.78948e-06 0)
(0.243587 8.24129e-06 0)
(0.243613 -1.22134e-05 0)
(0.243681 4.91323e-06 0)
(0.243692 1.4876e-05 0)
(0.246157 1.13758e-05 0)
(0.246182 -1.24999e-05 0)
(0.24624 3.98398e-06 0)
(0.24628 1.5799e-05 0)
(0.248264 9.258e-06 0)
(0.248281 -1.44871e-05 0)
(0.248322 2.63917e-06 0)
(0.248393 1.39897e-05 0)
(0.249978 1.37947e-05 0)
(0.249991 -1.33849e-05 0)
(0.250014 2.11875e-06 0)
(0.250112 1.40074e-05 0)
(0.251375 1.26836e-05 0)
(0.251384 -1.50885e-05 0)
(0.251378 3.05794e-07 0)
(0.2515 1.34636e-05 0)
(0.252498 1.53321e-05 0)
(0.2525 -1.38274e-05 0)
(0.25247 -4.82242e-07 0)
(0.252614 1.05394e-05 0)
(0.253411 1.55345e-05 0)
(0.253411 -1.46384e-05 0)
(0.253344 -1.03963e-06 0)
(0.253505 1.07794e-05 0)
(0.254131 1.79499e-05 0)
(0.254125 -1.24438e-05 0)
(0.254038 -1.86195e-06 0)
(0.254216 7.69347e-06 0)
(0.254713 1.76567e-05 0)
(0.254714 -1.33785e-05 0)
(0.254592 -2.52861e-06 0)
(0.254775 6.61535e-06 0)
(0.255149 1.9829e-05 0)
(0.255138 -1.0321e-05 0)
(0.255013 -2.87893e-06 0)
(0.25521 3.96502e-06 0)
(0.255498 1.94673e-05 0)
(0.255498 -1.12657e-05 0)
(0.255348 -3.45047e-06 0)
(0.255538 2.74759e-06 0)
(0.255738 2.0542e-05 0)
(0.255723 -8.13778e-06 0)
(0.255582 -4.553e-06 0)
(0.25578 -1.36876e-06 0)
(0.25592 2.12863e-05 0)
(0.255918 -7.89419e-06 0)
(0.25576 -2.70754e-06 0)
(0.255945 -9.50659e-07 0)
(0.256011 2.1001e-05 0)
(0.255994 -6.17488e-06 0)
(0.255857 -5.60655e-06 0)
(0.256044 -5.47787e-06 0)
(0.256059 2.17354e-05 0)
(0.256056 -4.73872e-06 0)
(0.255912 -3.68763e-06 0)
(0.256081 -6.02163e-06 0)
)
;

boundaryField
{
    topWall
    {
        type            calculated;
        value           nonuniform List<vector> 0();
    }
    botWall
    {
        type            calculated;
        value           nonuniform List<vector> 0();
    }
    inlet
    {
        type            cyclic;
    }
    outlet
    {
        type            cyclic;
    }
    fixWall
    {
        type            empty;
    }
    procBoundary5to4
    {
        type            processor;
        value           nonuniform List<vector> 8((0.240527 -5.7606e-06 0) (0.240499 3.61781e-06 0) (0.240573 -1.88046e-06 0) (0.240596 -1.21102e-05 0) (0.240457 6.83032e-06 0) (0.240488 -1.24058e-05 0) (0.24056 3.42659e-06 0) (0.240541 1.4486e-05 0));
    }
    procBoundary5to6
    {
        type            processor;
        value           nonuniform List<vector> 8((0.256117 1.25e-05 0) (0.255974 1.03408e-05 0) (0.256039 -2.33668e-05 0) (0.256037 -2.71488e-06 0) (0.25604 2.22215e-05 0) (0.256017 -3.67051e-06 0) (0.255891 -4.85904e-06 0) (0.256058 -6.95962e-06 0));
    }
}


// ************************************************************************* //
