/*--------------------------------*- C++ -*----------------------------------*\
  =========                 |
  \\      /  F ield         | OpenFOAM: The Open Source CFD Toolbox
   \\    /   O peration     | Website:  https://openfoam.org
    \\  /    A nd           | Version:  dev
     \\/     M anipulation  |

   OpenFOAM for Windows 20.09 (v1)
   Built by CFD Support, www.cfdsupport.com (based on Symscape).
\*---------------------------------------------------------------------------*/
FoamFile
{
    version     2.0;
    format      ascii;
    class       volSymmTensorField;
    location    "8";
    object      UPrime2Mean;
}
// * * * * * * * * * * * * * * * * * * * * * * * * * * * * * * * * * * * * * //

dimensions      [0 2 -2 0 0 0 0];

internalField   nonuniform List<symmTensor> 
120
(
(0.0047352 -4.31982e-08 0 1.31805e-11 0 0)
(0.0047443 1.54298e-07 0 1.0157e-11 0 0)
(0.00474288 -1.09303e-06 0 5.44512e-10 0 0)
(0.0047392 -9.61628e-07 0 2.70136e-10 0 0)
(0.00497278 -4.11074e-08 0 7.26448e-12 0 0)
(0.00498052 2.59072e-07 0 1.65986e-11 0 0)
(0.00497913 -1.00991e-06 0 4.07911e-10 0 0)
(0.00497549 -7.35806e-07 0 1.56606e-10 0 0)
(0.00518528 -3.7705e-08 0 1.75767e-11 0 0)
(0.00519135 1.17667e-07 0 4.59313e-12 0 0)
(0.00519058 -1.07182e-06 0 4.75554e-10 0 0)
(0.0051875 -1.01797e-06 0 2.76049e-10 0 0)
(0.00537405 -8.51279e-08 0 8.69953e-12 0 0)
(0.00537765 2.21131e-07 0 1.13019e-11 0 0)
(0.00537695 -1.05708e-06 0 4.01623e-10 0 0)
(0.00537485 -7.57707e-07 0 1.4955e-10 0 0)
(0.00553862 1.05303e-08 0 1.34094e-11 0 0)
(0.00554002 1.17572e-07 0 7.48562e-12 0 0)
(0.00553998 -1.02119e-06 0 3.6275e-10 0 0)
(0.00553873 -9.10425e-07 0 2.0105e-10 0 0)
(0.00568047 -1.03383e-07 0 1.06345e-11 0 0)
(0.00567975 2.09053e-07 0 1.1186e-11 0 0)
(0.00568084 -1.09586e-06 0 3.98559e-10 0 0)
(0.00568028 -8.34356e-07 0 1.59333e-10 0 0)
(0.00580183 2.68801e-08 0 1.20491e-11 0 0)
(0.00579883 1.17666e-07 0 6.493e-12 0 0)
(0.00580113 -1.07143e-06 0 3.53078e-10 0 0)
(0.00580111 -8.5403e-07 0 1.69344e-10 0 0)
(0.00590495 -4.60886e-08 0 8.1349e-12 0 0)
(0.0058994 1.94527e-07 0 1.03805e-11 0 0)
(0.00590236 -1.12776e-06 0 3.7109e-10 0 0)
(0.00590268 -8.09373e-07 0 1.45689e-10 0 0)
(0.00599069 3.44047e-08 0 1.11594e-11 0 0)
(0.00598307 1.65267e-07 0 8.30015e-12 0 0)
(0.00598641 -1.12454e-06 0 3.46221e-10 0 0)
(0.0059869 -8.17629e-07 0 1.47168e-10 0 0)
(0.00606051 1.65665e-08 0 1.24058e-11 0 0)
(0.00605146 2.04383e-07 0 1.04734e-11 0 0)
(0.00605449 -1.17101e-06 0 3.56118e-10 0 0)
(0.00605497 -7.92282e-07 0 1.32265e-10 0 0)
(0.00611598 5.14083e-08 0 1.19602e-11 0 0)
(0.00610591 2.2719e-07 0 1.14381e-11 0 0)
(0.0061086 -1.16948e-06 0 3.36908e-10 0 0)
(0.00610891 -7.79382e-07 0 1.26138e-10 0 0)
(0.00615824 9.50411e-08 0 1.35624e-11 0 0)
(0.00614766 2.84605e-07 0 1.76455e-11 0 0)
(0.00614936 -1.19683e-06 0 3.38466e-10 0 0)
(0.00614935 -7.63512e-07 0 1.17724e-10 0 0)
(0.00618836 8.57512e-08 0 1.88324e-11 0 0)
(0.00617773 2.70932e-07 0 1.46592e-11 0 0)
(0.00617857 -1.21702e-06 0 3.33441e-10 0 0)
(0.00617796 -7.44464e-07 0 1.07451e-10 0 0)
(0.00620702 1.32538e-07 0 1.75807e-11 0 0)
(0.00619674 3.7915e-07 0 2.65311e-11 0 0)
(0.00619614 -1.20131e-06 0 3.20944e-10 0 0)
(0.00619448 -7.33174e-07 0 1.03882e-10 0 0)
(0.00621465 1.54975e-07 0 1.83883e-11 0 0)
(0.00620548 3.71441e-07 0 2.78291e-11 0 0)
(0.00620359 -1.19743e-06 0 2.96538e-10 0 0)
(0.00620087 -7.03824e-07 0 9.60438e-11 0 0)
(0.00473846 6.42659e-08 0 1.00965e-10 0 0)
(0.0047321 8.52867e-08 0 1.70952e-10 0 0)
(0.00474129 1.19289e-06 0 4.51778e-10 0 0)
(0.00474173 3.50516e-07 0 1.31026e-10 0 0)
(0.00497435 1.73662e-07 0 1.43852e-10 0 0)
(0.00496856 1.7111e-07 0 1.83499e-10 0 0)
(0.00497887 1.19272e-06 0 4.42835e-10 0 0)
(0.00498013 4.36503e-07 0 1.82335e-10 0 0)
(0.00518557 8.65024e-08 0 6.457e-11 0 0)
(0.00518121 8.42819e-08 0 2.06039e-10 0 0)
(0.00519137 1.13262e-06 0 3.83356e-10 0 0)
(0.00519237 3.34306e-07 0 8.54778e-11 0 0)
(0.00537163 2.13543e-07 0 1.36139e-10 0 0)
(0.00536781 1.00153e-07 0 1.78273e-10 0 0)
(0.00537766 1.11386e-06 0 3.52627e-10 0 0)
(0.00537978 5.19819e-07 0 1.76159e-10 0 0)
(0.00553513 1.95266e-07 0 8.26695e-11 0 0)
(0.00553228 8.90471e-08 0 2.05379e-10 0 0)
(0.00554012 1.0952e-06 0 3.33937e-10 0 0)
(0.00554272 3.99258e-07 0 1.0587e-10 0 0)
(0.0056755 2.10185e-07 0 9.61996e-11 0 0)
(0.00567261 3.61367e-08 0 1.89058e-10 0 0)
(0.00567884 1.01926e-06 0 2.79102e-10 0 0)
(0.00568287 4.56082e-07 0 1.01067e-10 0 0)
(0.00579684 2.75654e-07 0 9.87854e-11 0 0)
(0.00579507 7.70107e-08 0 1.88341e-10 0 0)
(0.00579778 1.02159e-06 0 2.71173e-10 0 0)
(0.00580249 4.54808e-07 0 1.14916e-10 0 0)
(0.00589748 2.90997e-07 0 1.03979e-10 0 0)
(0.00589573 4.85743e-08 0 1.66324e-10 0 0)
(0.00589733 9.6022e-07 0 2.29751e-10 0 0)
(0.0059041 4.54536e-07 0 9.35043e-11 0 0)
(0.00598278 3.17574e-07 0 1.00929e-10 0 0)
(0.00598286 6.89271e-08 0 1.60172e-10 0 0)
(0.00598151 9.54193e-07 0 2.2171e-10 0 0)
(0.0059884 4.07128e-07 0 8.22134e-11 0 0)
(0.00604935 3.52502e-07 0 1.03936e-10 0 0)
(0.00604778 8.3416e-08 0 1.38019e-10 0 0)
(0.00604768 9.04636e-07 0 1.88227e-10 0 0)
(0.0060574 3.8407e-07 0 7.00271e-11 0 0)
(0.00610546 3.53974e-07 0 9.76864e-11 0 0)
(0.00610587 8.46878e-08 0 1.26063e-10 0 0)
(0.00610285 8.85225e-07 0 1.764e-10 0 0)
(0.00611184 3.05975e-07 0 5.32646e-11 0 0)
(0.00614488 4.25608e-07 0 1.10688e-10 0 0)
(0.00614306 1.16408e-07 0 1.05024e-10 0 0)
(0.00614204 8.38288e-07 0 1.56922e-10 0 0)
(0.00615377 3.08871e-07 0 5.67626e-11 0 0)
(0.00617549 3.70716e-07 0 9.05457e-11 0 0)
(0.00617559 1.03991e-07 0 8.82174e-11 0 0)
(0.00617264 7.67463e-07 0 1.17818e-10 0 0)
(0.00618317 1.86731e-07 0 2.93325e-11 0 0)
(0.00619177 4.62346e-07 0 1.06421e-10 0 0)
(0.00618979 1.62164e-07 0 8.53289e-11 0 0)
(0.00618888 7.65938e-07 0 1.29945e-10 0 0)
(0.00620187 1.80666e-07 0 4.1674e-11 0 0)
(0.00620007 4.32889e-07 0 1.02202e-10 0 0)
(0.00619975 1.15845e-07 0 6.13803e-11 0 0)
(0.00619765 6.5596e-07 0 8.33298e-11 0 0)
(0.00620907 8.91374e-08 0 2.24054e-11 0 0)
)
;

boundaryField
{
    topWall
    {
        type            calculated;
        value           nonuniform List<symmTensor> 0();
    }
    botWall
    {
        type            calculated;
        value           nonuniform List<symmTensor> 0();
    }
    inlet
    {
        type            cyclic;
    }
    outlet
    {
        type            cyclic;
    }
    fixWall
    {
        type            empty;
    }
    procBoundary5to4
    {
        type            processor;
        value           nonuniform List<symmTensor> 8((0.00447314 -5.18664e-08 0 1.81427e-11 0 0) (0.00448283 2.74436e-07 0 1.86884e-11 0 0) (0.00448156 -1.01162e-06 0 5.03073e-10 0 0) (0.00447782 -9.40561e-07 0 2.61576e-10 0 0) (0.00447655 -7.54252e-09 0 7.34316e-11 0 0) (0.00446978 1.37905e-07 0 2.04008e-10 0 0) (0.00447834 1.19903e-06 0 5.04963e-10 0 0) (0.00447878 1.68377e-07 0 6.84199e-11 0 0));
    }
    procBoundary5to6
    {
        type            processor;
        value           nonuniform List<symmTensor> 8((0.00621152 1.27512e-07 0 2.4439e-11 0 0) (0.00620373 4.12588e-07 0 2.98081e-11 0 0) (0.00620127 -1.16376e-06 0 2.76723e-10 0 0) (0.00619713 -7.10947e-07 0 9.57288e-11 0 0) (0.00619659 4.40973e-07 0 9.16296e-11 0 0) (0.00619385 1.74456e-07 0 7.17148e-11 0 0) (0.00619266 6.53765e-07 0 8.69564e-11 0 0) (0.00620626 -4.01774e-08 0 1.62389e-11 0 0));
    }
}


// ************************************************************************* //
