/*--------------------------------*- C++ -*----------------------------------*\
  =========                 |
  \\      /  F ield         | OpenFOAM: The Open Source CFD Toolbox
   \\    /   O peration     | Website:  https://openfoam.org
    \\  /    A nd           | Version:  dev
     \\/     M anipulation  |

   OpenFOAM for Windows 20.09 (v1)
   Built by CFD Support, www.cfdsupport.com (based on Symscape).
\*---------------------------------------------------------------------------*/
FoamFile
{
    version     2.0;
    format      ascii;
    class       volScalarField;
    location    "4";
    object      alpha.water;
}
// * * * * * * * * * * * * * * * * * * * * * * * * * * * * * * * * * * * * * //

dimensions      [0 0 0 0 0 0 0];

internalField   nonuniform List<scalar> 
960
(
1.00006
1.00001
1
0.999999
0.999999
1
1
1
0.999999
1
1
1
0.999999
1
1
1
1
1
1
1
1
1
1
1
1
1
1
1
1
1
1
1
1
1
1
1
1
1
1
1
1
1
0.999999
1
1
1
0.999999
1
1
0.999999
0.999999
1
1
0.999999
0.999999
1
1.00001
1
1.00001
0.999976
1.00003
1.00001
1.00001
0.999989
1
1
1
1
1
1
1
1
1
1
1
1
1
1
1
1
1
1
0.999999
1
0.999999
1
0.999999
1
0.999999
1
0.999999
1
0.999999
1
1
1
0.999999
1
1
1
0.999999
1
1
1
1
1
1
1
1
1
1
1
1
1
1
1
1.00001
1.00002
1.00002
0.999983
1
1.00003
1.00001
0.999997
1
1
1
1
1
1
1
1
1
1
1
1
1
1
1
1
1
1
1
1
1
1
1
1
1
1
1
1
1
1
1
1
1
1
1
1
1
1
1
1
1
1
1
1
1
1
1
1
1
1
1
1
0.999978
0.999986
1.00001
1.00002
0.999983
0.999986
1.00001
1.00002
1
1
1
1
1
1
1
0.999999
0.999999
1
1
0.999999
0.999999
0.999999
0.999999
0.999999
0.999999
0.999999
0.999999
0.999999
0.999999
0.999999
0.999999
0.999999
0.999999
0.999999
0.999999
0.999999
0.999999
1
0.999999
0.999999
1
1
0.999999
0.999999
1
1
0.999999
0.999999
1
1
1
1
1
1
1
1
0.999998
0.999999
0.999993
0.999997
0.989674
0.983588
0.984788
0.982221
1
1
1
1
1
1
1
1
1
0.999999
1
0.999999
1
0.999999
1
0.999998
1
0.999999
1
0.999999
1
1
1
0.999999
1
1
1
1
1
1
1
1
0.999999
1
1
1
0.999999
1
0.999999
1
0.999999
1
0.999999
1
0.999999
1
1
1
1
1
1
1
1
1
1
1
0.999985
1.00001
1.00001
1.00003
0.999993
1.00001
1.00001
1.00005
1
1
1
1
1
1
1
1
1
1
1
1
1
1
1
1
1
1
1
1
1
1
1
1
1
1
1
1
1
1
1
1
1
1
1
1
1
1
1
1
1
1
1
1
1
1
1
1
1
1
1
1
1
0.999996
1.00002
1.00002
1.00002
0.999991
1
1.00001
1
1
1
1
1
1
1
1
1
1
1
1
1
1
1
1
1
1
1
1
1
1
1
1
1
1
1
1
1
1
1
1
1
1
1
1
1
1
1
1
1
1
1
1
1
1
1
1
1
1
1
1
0.999987
0.999998
0.99999
0.999979
0.999998
1
1.00001
0.999992
1
1
1
1
0.999999
1
0.999999
1
0.999999
1
0.999999
1
0.999999
1
1
1
0.999999
1
0.999999
1
0.999999
1
1
1
0.999999
1
1
1
0.999999
1
1
1
0.999999
1
1
1
0.999999
1
1
1
0.999999
1
1
1
1
1
1
1
0.999996
0.999997
0.999989
0.999992
0.984764
0.980288
0.985211
0.990166
0.0216726
0.010133
0.0130122
0.0103784
4.24374e-06
1.89412e-05
1.14051e-05
9.28532e-06
3.11031e-08
5.81463e-08
3.53062e-08
3.20742e-08
1.72293e-10
1.61371e-10
4.62086e-11
9.01942e-11
6.66434e-13
4.50771e-13
4.36287e-14
2.64445e-13
2.43125e-15
1.54148e-15
5.91435e-17
8.78854e-16
8.67745e-18
6.14615e-18
1.62207e-19
3.02895e-18
3.18479e-20
2.5325e-20
4.79449e-22
1.20103e-20
1.24933e-22
1.08628e-22
4.09564e-25
5.32067e-23
5.17915e-25
4.70574e-25
1.87105e-27
2.40384e-25
2.22867e-27
2.08614e-27
8.50534e-30
1.10246e-27
9.68518e-30
9.31454e-30
3.78902e-32
4.98539e-30
4.18918e-32
4.08538e-32
1.62969e-34
2.16262e-32
1.7591e-34
1.74884e-34
6.66899e-37
9.03037e-35
7.1152e-37
7.32725e-37
1.32758e-39
3.57445e-37
1.50718e-39
8.73135e-41
5.27384e-42
5.72253e-40
7.30021e-42
7.63356e-42
2.01269e-44
2.81999e-42
2.60558e-44
3.03915e-44
2.62523e-46
9.83458e-45
8.42965e-47
1.00521e-46
3.57258e-48
2.85689e-47
2.47369e-49
3.04693e-49
3.3731e-50
6.96434e-50
6.6382e-52
7.55862e-52
1.62474e-52
2.21571e-52
1.71398e-54
1.62834e-54
6.18721e-55
5.71913e-55
4.15852e-57
2.98831e-57
2.02233e-57
1.65882e-57
9.72735e-60
5.1499e-60
5.87202e-60
4.65954e-60
2.1677e-62
1.03035e-62
1.55334e-62
1.34139e-62
4.78387e-65
2.17309e-65
3.75787e-65
3.69831e-65
1.47537e-67
4.87127e-68
9.12165e-68
1.00296e-67
4.58437e-70
6.96986e-71
2.29969e-70
2.73482e-70
1.31239e-72
4.3156e-74
6.04098e-73
7.69759e-73
3.45274e-75
4.82052e-78
1.64205e-75
2.23431e-75
2.23893e-81
9.72487e-81
3.40865e-78
2.92217e-78
1.8042e-81
2.03665e-83
6.97712e-81
8.36395e-81
6.68424e-84
4.45223e-86
1.48717e-83
1.89537e-83
2.01432e-86
1.00252e-88
3.29032e-86
4.40541e-86
5.5628e-89
2.23772e-91
7.44153e-89
1.0357e-88
1.47694e-91
4.82977e-94
1.6586e-91
2.38429e-91
3.81017e-94
9.84985e-97
3.55741e-94
5.25931e-94
9.07859e-97
1.86175e-99
7.18455e-97
1.09174e-96
1.96587e-99
3.2643e-102
1.33917e-99
2.0979e-99
3.84913e-102
5.32258e-105
2.26976e-102
3.6589e-102
6.72582e-105
7.7732e-108
3.49035e-105
5.71805e-105
9.86152e-108
8.8154e-110
5.11043e-108
8.16954e-108
1.14876e-110
2.32039e-111
6.80871e-111
1.01269e-110
1.06084e-113
6.75619e-114
9.80496e-114
1.14502e-113
9.87144e-117
7.27643e-117
1.54434e-116
1.14994e-116
2.33233e-123
5.74513e-120
9.73087e-120
2.26037e-120
1.50278e-126
7.72771e-123
1.07765e-122
3.40865e-123
1.06521e-129
8.06895e-126
1.0448e-125
3.72163e-126
7.92836e-133
7.54169e-129
1.01439e-128
4.60301e-129
5.93184e-136
7.04457e-132
9.12213e-132
4.10581e-132
5.36134e-138
6.39888e-135
7.46748e-135
3.26928e-135
5.82997e-141
5.27551e-138
5.65336e-138
2.31064e-138
3.59521e-144
3.71593e-141
3.81466e-141
1.42966e-141
2.26748e-147
2.20586e-144
2.14775e-144
7.3035e-145
2.67126e-148
1.28371e-147
9.9609e-148
4.83574e-148
1.93361e-150
1.25597e-150
6.19547e-151
5.53815e-151
8.36812e-154
4.02693e-154
1.64853e-154
1.58214e-154
1.78276e-157
6.682e-158
2.23364e-158
2.2609e-158
1.73969e-161
4.41876e-162
1.09846e-162
1.284e-162
4.42033e-166
6.435e-167
1.01218e-167
3.05059e-167
0.0121726
0.0177581
0.0144419
0.0194408
7.20054e-06
3.48437e-06
6.46051e-06
4.10513e-06
3.29887e-08
1.5823e-08
1.45977e-08
4.69826e-10
1.29593e-10
9.59005e-11
6.42456e-11
1.55084e-12
4.71716e-13
4.17697e-13
3.87899e-13
4.98342e-15
1.8319e-15
1.85565e-15
2.03921e-15
1.62755e-17
7.62612e-18
8.53693e-18
1.01064e-17
5.3788e-19
3.36786e-20
3.98678e-20
4.80066e-20
9.36104e-21
1.5235e-22
1.87765e-22
2.23821e-22
6.4453e-23
7.05932e-25
8.8079e-25
1.02329e-24
3.56163e-25
3.23982e-27
4.00852e-27
4.56065e-27
1.83424e-27
1.4397e-29
1.75073e-29
2.01684e-29
8.56443e-30
6.07423e-32
7.29985e-32
8.60872e-32
3.63798e-32
2.4356e-34
2.88276e-34
3.4826e-34
1.44059e-34
9.1564e-37
1.04875e-36
1.34011e-36
5.4684e-37
1.67982e-39
2.4391e-39
4.19704e-39
5.71891e-40
7.50018e-42
9.28435e-42
1.44185e-41
3.24905e-42
2.22318e-44
2.56861e-44
4.47833e-44
9.37469e-45
5.51259e-47
6.10287e-47
1.30776e-46
2.55814e-47
7.78916e-50
1.4953e-49
3.48907e-49
6.92237e-50
1.44827e-54
3.86251e-52
9.0873e-52
1.8836e-52
3.75291e-57
9.77102e-55
2.31916e-54
5.76354e-55
9.42943e-60
2.44047e-57
5.71134e-57
2.01564e-57
2.33743e-62
6.11024e-60
1.45723e-59
6.73596e-60
5.80913e-65
1.51537e-62
3.66565e-62
2.38178e-62
1.46669e-67
3.76855e-65
9.32115e-65
8.37511e-65
3.72682e-70
9.5381e-68
2.37138e-67
2.2051e-67
9.67159e-73
2.43051e-70
6.19586e-70
6.0436e-70
2.54384e-75
6.33671e-73
1.64356e-72
1.68372e-72
5.23523e-78
1.67935e-75
4.44836e-75
4.6451e-75
1.29553e-80
3.58729e-78
5.68181e-78
3.52884e-78
3.1811e-83
8.87264e-81
1.41473e-80
9.73548e-81
7.67406e-86
2.17158e-83
3.55426e-83
2.55106e-83
1.80991e-88
5.21686e-86
8.81485e-86
6.61686e-86
4.09754e-91
1.22298e-88
2.12753e-88
1.66596e-88
8.84601e-94
2.74878e-91
4.93301e-91
4.03277e-91
1.79255e-96
5.88197e-94
1.08741e-93
9.21377e-94
3.38011e-99
1.17992e-96
2.24781e-96
1.97581e-96
5.84341e-102
2.19841e-99
4.29989e-99
3.91832e-99
9.16198e-105
3.72167e-102
7.58065e-102
7.15444e-102
1.28949e-107
5.77585e-105
1.23858e-104
1.16487e-104
1.60883e-110
8.17365e-108
1.7925e-107
1.68642e-107
1.76438e-113
1.03125e-110
2.27411e-110
2.13411e-110
1.67995e-116
1.15213e-113
2.50468e-113
2.33399e-113
1.16367e-119
1.10344e-116
2.37802e-116
2.20864e-116
7.64178e-123
8.36881e-120
1.0643e-119
2.69268e-120
4.72366e-126
5.54397e-123
7.26678e-123
1.92919e-123
5.716e-128
3.37775e-126
4.55912e-126
1.16405e-126
1.45659e-129
2.32599e-129
2.62009e-129
7.65445e-130
1.79238e-132
2.4936e-132
1.62713e-132
4.31339e-133
1.59023e-135
2.24614e-135
1.11766e-135
2.81969e-136
1.25266e-138
1.71613e-138
7.22787e-139
1.69677e-139
8.31934e-142
1.09003e-141
4.07029e-142
8.54525e-143
4.44877e-145
5.55556e-145
1.83704e-145
3.21175e-146
4.6612e-148
2.61551e-148
1.16377e-148
8.43643e-149
2.70198e-151
1.15368e-151
4.67834e-152
3.81432e-152
6.64299e-155
2.48068e-155
8.81627e-156
9.85025e-156
8.39784e-159
2.72227e-159
8.21283e-160
1.67496e-159
5.15195e-163
1.36689e-163
3.13526e-164
1.78225e-163
1.48759e-167
1.88191e-168
1.87124e-169
8.2299e-168
)
;

boundaryField
{
    topWall
    {
        type            zeroGradient;
    }
    botWall
    {
        type            zeroGradient;
    }
    inlet
    {
        type            cyclic;
    }
    outlet
    {
        type            cyclic;
    }
    fixWall
    {
        type            empty;
    }
}


// ************************************************************************* //
