/*--------------------------------*- C++ -*----------------------------------*\
  =========                 |
  \\      /  F ield         | OpenFOAM: The Open Source CFD Toolbox
   \\    /   O peration     | Website:  https://openfoam.org
    \\  /    A nd           | Version:  dev
     \\/     M anipulation  |

   OpenFOAM for Windows 20.09 (v1)
   Built by CFD Support, www.cfdsupport.com (based on Symscape).
\*---------------------------------------------------------------------------*/
FoamFile
{
    version     2.0;
    format      ascii;
    class       surfaceScalarField;
    location    "4";
    object      alphaPhi0.water;
}
// * * * * * * * * * * * * * * * * * * * * * * * * * * * * * * * * * * * * * //

dimensions      [0 3 -1 0 0 0 0];

internalField   nonuniform List<scalar> 
1792
(
1.51815e-09
5.61738e-12
1.521e-09
-2.965e-12
1.52518e-09
-4.22746e-12
1.35785e-11
1.51162e-09
4.19631e-09
8.21885e-12
4.19828e-09
-4.94839e-12
4.20646e-09
-1.24395e-11
4.31983e-11
4.17686e-09
6.53141e-09
1.82838e-11
6.53887e-09
-1.23917e-11
6.54633e-09
-1.99158e-11
8.31214e-11
6.50642e-09
8.56086e-09
3.13818e-11
8.5732e-09
-2.47114e-11
8.57772e-09
-2.44528e-11
1.30623e-10
8.53023e-09
1.03126e-08
4.58552e-11
1.03294e-08
-4.14957e-11
1.03303e-08
-2.54177e-11
1.83498e-10
1.02775e-08
1.18144e-08
6.07558e-11
1.18348e-08
-6.19052e-11
1.1833e-08
-2.35807e-11
2.40248e-10
1.17762e-08
1.3093e-08
7.57549e-11
1.31165e-08
-8.54093e-11
1.31127e-08
-1.98491e-11
2.99589e-10
1.30534e-08
1.41741e-08
9.05562e-11
1.42003e-08
-1.11614e-10
1.41954e-08
-1.49239e-11
3.60676e-10
1.41343e-08
1.50817e-08
1.05103e-10
1.511e-08
-1.39914e-10
1.51049e-08
-9.82608e-12
4.22404e-10
1.50431e-08
1.58377e-08
1.1925e-10
1.58684e-08
-1.70656e-10
1.58633e-08
-4.6714e-12
4.83943e-10
1.58018e-08
1.64626e-08
1.32826e-10
1.64952e-08
-2.03291e-10
1.64912e-08
-5.73318e-13
5.44193e-10
1.64309e-08
1.69746e-08
1.45933e-10
1.70098e-08
-2.3844e-10
1.70067e-08
2.52684e-12
6.02364e-10
1.69485e-08
1.73904e-08
1.59162e-10
1.74273e-08
-2.75355e-10
1.74263e-08
3.64446e-12
6.5671e-10
1.73719e-08
1.77243e-08
1.71294e-10
1.77644e-08
-3.15439e-10
1.77641e-08
4.06263e-12
7.0513e-10
1.77157e-08
1.79912e-08
1.79924e-10
1.80291e-08
-3.55158e-10
1.80363e-08
-2.38855e-12
7.51235e-10
1.79887e-08
1.81997e-08
1.76837e-10
1.82478e-08
-4.05125e-10
1.82369e-08
8.69361e-12
7.64572e-10
1.82218e-08
1.83638e-08
1.81028e-10
1.84144e-08
-4.55704e-10
1.84107e-08
1.24356e-11
7.75083e-10
1.84001e-08
1.84956e-08
1.84673e-10
1.85469e-08
-5.07012e-10
1.85449e-08
1.44644e-11
7.80898e-10
1.85391e-08
1.85977e-08
1.88754e-10
1.86488e-08
-5.5817e-10
1.86494e-08
1.38576e-11
7.83137e-10
1.86472e-08
1.86769e-08
1.929e-10
1.87281e-08
-6.09345e-10
1.87297e-08
1.21736e-11
7.83186e-10
1.87297e-08
1.87372e-08
1.97944e-10
1.87878e-08
-6.60034e-10
1.8791e-08
9.01961e-12
7.81114e-10
1.87931e-08
1.87831e-08
2.03444e-10
1.88333e-08
-7.10164e-10
1.88375e-08
4.82733e-12
7.77783e-10
1.88408e-08
1.88174e-08
2.10293e-10
1.88667e-08
-7.59471e-10
1.8872e-08
-4.07116e-13
7.73142e-10
1.88766e-08
1.88434e-08
2.17981e-10
1.88915e-08
-8.07597e-10
1.88974e-08
-6.31344e-12
7.67259e-10
1.89033e-08
1.88627e-08
2.26859e-10
1.89091e-08
-8.53929e-10
1.89157e-08
-1.29028e-11
7.60369e-10
1.89226e-08
1.88776e-08
2.36621e-10
1.89217e-08
-8.9809e-10
1.8929e-08
-2.00988e-11
7.52279e-10
1.89371e-08
1.88889e-08
2.47741e-10
1.89304e-08
-9.39571e-10
1.89379e-08
-2.76143e-11
7.43743e-10
1.89464e-08
1.88987e-08
2.59879e-10
1.89366e-08
-9.77465e-10
1.89443e-08
-3.53888e-11
7.34263e-10
1.89538e-08
1.89075e-08
2.73003e-10
1.8941e-08
-1.01104e-09
1.89483e-08
-4.2671e-11
7.2518e-10
1.89574e-08
1.89201e-08
2.80981e-10
1.89441e-08
-1.03685e-09
1.89526e-08
-5.27599e-11
7.17764e-10
1.89594e-08
1.89286e-08
2.96674e-10
1.89453e-08
-1.05439e-09
1.89503e-08
-5.66829e-11
7.07404e-10
1.89615e-08
1.89381e-08
3.14952e-10
1.89481e-08
-1.06435e-09
1.89512e-08
-5.98402e-11
6.94593e-10
1.8964e-08
1.89468e-08
3.35468e-10
1.8952e-08
-1.06962e-09
1.89537e-08
-6.15255e-11
6.81889e-10
1.89664e-08
1.8957e-08
3.56736e-10
1.89581e-08
-1.07066e-09
1.89589e-08
-6.23848e-11
6.68691e-10
1.89721e-08
1.89682e-08
3.79441e-10
1.89663e-08
-1.06872e-09
1.89667e-08
-6.28477e-11
6.55375e-10
1.898e-08
1.89825e-08
4.03144e-10
1.8978e-08
-1.06423e-09
1.89783e-08
-6.31607e-11
6.41234e-10
1.89925e-08
1.90007e-08
4.28041e-10
1.8994e-08
-1.0575e-09
1.89945e-08
-6.36765e-11
6.26496e-10
1.90092e-08
1.9025e-08
4.53851e-10
1.90163e-08
-1.04883e-09
1.90166e-08
-6.39946e-11
6.10639e-10
1.90324e-08
1.90568e-08
4.80551e-10
1.90462e-08
-1.03819e-09
1.90465e-08
-6.43253e-11
5.93648e-10
1.90635e-08
1.90993e-08
5.07831e-10
1.90862e-08
-1.02515e-09
1.90863e-08
-6.44322e-11
5.75169e-10
1.91048e-08
1.91548e-08
5.35355e-10
1.91393e-08
-1.00962e-09
1.91391e-08
-6.43114e-11
5.5511e-10
1.91592e-08
1.92281e-08
5.62608e-10
1.92089e-08
-9.90347e-10
1.9208e-08
-6.34684e-11
5.32924e-10
1.92302e-08
1.93229e-08
5.8891e-10
1.92995e-08
-9.66986e-10
1.92978e-08
-6.17887e-11
5.08495e-10
1.93223e-08
1.94462e-08
6.12961e-10
1.94177e-08
-9.38428e-10
1.94138e-08
-5.79016e-11
4.81893e-10
1.94404e-08
1.96029e-08
6.31846e-10
1.95679e-08
-9.0321e-10
1.95618e-08
-5.17138e-11
4.49499e-10
1.95939e-08
1.98029e-08
6.39021e-10
1.97614e-08
-8.61922e-10
1.97549e-08
-4.50296e-11
4.32831e-10
1.97716e-08
2.00523e-08
6.38646e-10
1.99998e-08
-8.09377e-10
1.99874e-08
-3.26315e-11
4.11123e-10
2.00091e-08
2.03565e-08
6.35589e-10
2.02976e-08
-7.50457e-10
2.02819e-08
-1.69492e-11
3.87421e-10
2.03056e-08
2.0727e-08
6.32103e-10
2.06636e-08
-6.87029e-10
2.06467e-08
-6.16456e-14
3.61692e-10
2.06724e-08
2.11791e-08
6.2925e-10
2.11117e-08
-6.19642e-10
2.10941e-08
1.76421e-11
3.34233e-10
2.11215e-08
2.1726e-08
6.26955e-10
2.1656e-08
-5.49749e-10
2.16385e-08
3.51812e-11
3.05107e-10
2.16676e-08
2.23842e-08
6.25858e-10
2.2312e-08
-4.77575e-10
2.22947e-08
5.25268e-11
2.73965e-10
2.23258e-08
2.31711e-08
6.25582e-10
2.30975e-08
-4.04044e-10
2.3081e-08
6.91389e-11
2.40764e-10
2.31142e-08
2.41059e-08
6.27229e-10
2.40313e-08
-3.29418e-10
2.40153e-08
8.51922e-11
2.05373e-10
2.40506e-08
2.52094e-08
6.29647e-10
2.51339e-08
-2.54008e-10
2.51187e-08
1.00447e-10
1.67757e-10
2.51563e-08
2.6503e-08
6.3485e-10
2.64271e-08
-1.78203e-10
2.64124e-08
1.15221e-10
1.28544e-10
2.64516e-08
2.80107e-08
6.41093e-10
2.79343e-08
-1.01759e-10
2.79203e-08
1.2924e-10
8.82581e-11
2.79605e-08
2.97576e-08
6.51309e-10
2.968e-08
-2.42067e-11
2.96658e-08
1.43418e-10
4.93492e-11
2.97047e-08
3.17722e-08
6.63014e-10
3.16888e-08
5.91336e-11
3.16736e-08
1.58443e-10
1.28876e-11
3.17102e-08
3.37156e-08
6.63293e-10
3.34433e-08
1.40312e-10
3.34679e-08
1.64566e-10
3.34112e-08
-4.29923e-13
1.50879e-09
2.88698e-12
1.51248e-09
-3.71439e-12
1.51443e-09
-2.03233e-12
-7.77347e-12
4.16883e-09
1.0935e-11
4.17906e-09
-1.39256e-11
4.19395e-09
-1.69196e-11
-1.26002e-11
6.49414e-09
2.3197e-11
6.50954e-09
-2.92815e-11
6.5358e-09
-4.31244e-11
-1.81178e-11
8.51518e-09
3.82394e-11
8.53285e-09
-4.69279e-11
8.5679e-09
-7.81391e-11
-2.40219e-11
1.02595e-08
5.61655e-11
1.02793e-08
-6.6647e-11
1.03198e-08
-1.18671e-10
-3.1163e-11
1.17561e-08
7.62518e-11
1.17766e-08
-8.7125e-11
1.18215e-08
-1.63547e-10
-3.89278e-11
1.30317e-08
9.7966e-11
1.30525e-08
-1.07955e-10
1.31e-08
-2.11059e-10
-4.69067e-11
1.41114e-08
1.20857e-10
1.41322e-08
-1.28776e-10
1.41809e-08
-2.59801e-10
-5.4941e-11
1.50196e-08
1.44414e-10
1.50402e-08
-1.49406e-10
1.50888e-08
-3.08404e-10
-6.24734e-11
1.57777e-08
1.68443e-10
1.57984e-08
-1.70126e-10
1.58452e-08
-3.55261e-10
-6.91766e-11
1.64076e-08
1.91729e-10
1.64275e-08
-1.9e-10
1.6473e-08
-4.00785e-10
-7.24922e-11
1.69263e-08
2.13974e-10
1.69464e-08
-2.10163e-10
1.6988e-08
-4.42372e-10
-7.23258e-11
1.73519e-08
2.33925e-10
1.73728e-08
-2.31056e-10
1.7409e-08
-4.78537e-10
-6.70558e-11
1.76981e-08
2.51464e-10
1.77198e-08
-2.52831e-10
1.77514e-08
-5.10037e-10
-5.22204e-11
1.79787e-08
2.62316e-10
1.80029e-08
-2.77846e-10
1.80309e-08
-5.36681e-10
-2.09947e-11
1.82062e-08
2.79753e-10
1.82296e-08
-3.0216e-10
1.82582e-08
-5.64384e-10
4.05638e-11
1.83873e-08
2.92598e-10
1.8407e-08
-3.21887e-10
1.84273e-08
-5.84601e-10
9.97927e-11
1.85274e-08
3.04207e-10
1.85448e-08
-3.39245e-10
1.85609e-08
-6.007e-10
1.61459e-10
1.86369e-08
3.14457e-10
1.86527e-08
-3.55006e-10
1.86649e-08
-6.12872e-10
2.24591e-10
1.87206e-08
3.23561e-10
1.87348e-08
-3.69203e-10
1.87443e-08
-6.22343e-10
2.87828e-10
1.8785e-08
3.31651e-10
1.87981e-08
-3.82253e-10
1.88053e-08
-6.29543e-10
3.5088e-10
1.88336e-08
3.38878e-10
1.88456e-08
-3.9424e-10
1.88512e-08
-6.35165e-10
4.13449e-10
1.88702e-08
3.45275e-10
1.88817e-08
-4.05716e-10
1.88863e-08
-6.39788e-10
4.75533e-10
1.88976e-08
3.51049e-10
1.89086e-08
-4.16781e-10
1.89122e-08
-6.43412e-10
5.36739e-10
1.89175e-08
3.56167e-10
1.89288e-08
-4.28049e-10
1.89323e-08
-6.46985e-10
5.97471e-10
1.89326e-08
3.60638e-10
1.8944e-08
-4.39483e-10
1.89471e-08
-6.50032e-10
6.57236e-10
1.89426e-08
3.64419e-10
1.89555e-08
-4.52278e-10
1.89588e-08
-6.53364e-10
7.16055e-10
1.89508e-08
3.67426e-10
1.89644e-08
-4.6585e-10
1.89675e-08
-6.56438e-10
7.72717e-10
1.89546e-08
3.7015e-10
1.89706e-08
-4.81762e-10
1.89747e-08
-6.606e-10
8.26841e-10
1.89585e-08
3.70856e-10
1.8975e-08
-4.97575e-10
1.89815e-08
-6.67442e-10
8.78435e-10
1.89606e-08
3.70304e-10
1.89724e-08
-5.08745e-10
1.89879e-08
-6.8114e-10
9.20779e-10
1.89619e-08
3.72412e-10
1.89793e-08
-5.2613e-10
1.89946e-08
-6.96393e-10
9.58951e-10
1.89647e-08
3.74188e-10
1.89845e-08
-5.45945e-10
1.90026e-08
-7.14468e-10
9.94217e-10
1.89712e-08
3.7513e-10
1.89923e-08
-5.67073e-10
1.90116e-08
-7.33757e-10
1.02748e-09
1.89794e-08
3.75802e-10
1.9002e-08
-5.89743e-10
1.90227e-08
-7.54425e-10
1.05923e-09
1.89922e-08
3.76058e-10
1.90154e-08
-6.12971e-10
1.90369e-08
-7.75974e-10
1.08995e-09
1.90094e-08
3.75793e-10
1.90332e-08
-6.36714e-10
1.90557e-08
-7.98474e-10
1.12002e-09
1.90333e-08
3.74879e-10
1.90572e-08
-6.60571e-10
1.90799e-08
-8.21183e-10
1.14912e-09
1.90652e-08
3.73167e-10
1.90889e-08
-6.84336e-10
1.91118e-08
-8.44056e-10
1.17741e-09
1.91078e-08
3.70159e-10
1.91311e-08
-7.07651e-10
1.91535e-08
-8.66425e-10
1.20431e-09
1.91637e-08
3.65641e-10
1.91863e-08
-7.30177e-10
1.92076e-08
-8.8777e-10
1.22955e-09
1.9237e-08
3.58863e-10
1.9258e-08
-7.51168e-10
1.92776e-08
-9.07448e-10
1.25178e-09
1.9331e-08
3.50101e-10
1.93501e-08
-7.70217e-10
1.93678e-08
-9.25235e-10
1.27046e-09
1.94521e-08
3.38421e-10
1.94686e-08
-7.86764e-10
1.94834e-08
-9.40045e-10
1.28364e-09
1.96007e-08
3.30146e-10
1.96198e-08
-8.07007e-10
1.96303e-08
-9.50937e-10
1.29137e-09
1.97983e-08
3.02592e-10
1.98127e-08
-8.22628e-10
1.98119e-08
-9.49947e-10
1.29197e-09
2.0039e-08
2.72724e-10
2.00531e-08
-8.3684e-10
2.0044e-08
-9.40863e-10
1.28415e-09
2.03388e-08
2.39535e-10
2.03513e-08
-8.49385e-10
2.03394e-08
-9.28918e-10
1.27012e-09
2.07073e-08
2.04636e-10
2.07186e-08
-8.60609e-10
2.07049e-08
-9.15265e-10
1.25148e-09
2.11581e-08
1.68076e-10
2.11687e-08
-8.71184e-10
2.11546e-08
-9.0119e-10
1.22977e-09
2.17056e-08
1.30133e-10
2.17151e-08
-8.80626e-10
2.17004e-08
-8.86483e-10
1.20646e-09
2.23653e-08
9.06861e-11
2.23742e-08
-8.89475e-10
2.23592e-08
-8.71451e-10
1.1825e-09
2.31549e-08
4.99713e-11
2.31626e-08
-8.97157e-10
2.31464e-08
-8.55232e-10
1.15809e-09
2.40934e-08
7.22672e-12
2.41004e-08
-9.04114e-10
2.40835e-08
-8.38363e-10
1.13408e-09
2.52014e-08
-3.78887e-11
2.52066e-08
-9.09304e-10
2.5188e-08
-8.19656e-10
1.11032e-09
2.65e-08
-8.63287e-11
2.65052e-08
-9.14446e-10
2.64853e-08
-7.99728e-10
1.08751e-09
2.80121e-08
-1.37897e-10
2.8016e-08
-9.18302e-10
2.79935e-08
-7.7724e-10
1.06412e-09
2.97605e-08
-1.93653e-10
2.9767e-08
-9.24808e-10
2.97444e-08
-7.54633e-10
1.04082e-09
3.17679e-08
-2.51786e-10
3.17758e-08
-9.32793e-10
3.17536e-08
-7.31944e-10
1.01156e-09
3.35571e-08
-8.74868e-12
3.34165e-08
-3.95875e-11
3.36476e-08
-2.34707e-11
9.59893e-10
8.31646e-10
3.11648e-13
3.8901e-10
2.39594e-14
5.00527e-10
3.28562e-14
-1.35869e-15
3.99419e-10
2.5144e-12
4.79488e-17
1.67534e-12
1.33426e-17
8.19165e-13
8.74467e-18
-1.62409e-18
5.726e-13
7.31488e-15
2.85751e-21
5.8696e-15
2.24549e-20
3.75884e-15
8.90643e-20
5.97331e-21
2.92336e-15
2.5432e-17
-7.5985e-22
1.24312e-17
4.26617e-23
1.28204e-17
2.41075e-21
6.43313e-23
1.34223e-17
9.98816e-20
-3.46486e-24
3.29183e-20
3.74195e-25
4.07221e-20
3.25745e-23
6.00141e-25
5.41435e-20
4.03347e-22
-1.63284e-26
1.24015e-22
1.94949e-27
1.60262e-22
1.62047e-25
2.97792e-27
2.22733e-22
1.61785e-24
-7.19421e-29
5.26625e-25
1.03911e-29
6.80544e-25
7.8194e-28
1.37094e-29
9.64861e-25
6.58356e-27
-3.17424e-31
2.31148e-27
5.24287e-32
3.11193e-27
3.9147e-30
6.20467e-32
4.39524e-27
2.81336e-29
-1.42058e-33
1.07575e-29
2.70879e-34
1.51483e-29
2.01917e-32
2.60487e-34
2.0597e-29
1.25131e-31
-6.39679e-36
5.38171e-32
1.37546e-36
7.62289e-32
1.0058e-34
1.02489e-36
9.68524e-32
5.7034e-34
-2.83667e-38
2.67735e-34
6.79715e-39
3.78324e-34
4.75677e-37
3.98474e-39
4.50832e-34
2.60035e-36
-1.2249e-40
1.29588e-36
3.19872e-41
1.81503e-36
2.15052e-39
1.61164e-41
2.0355e-36
1.16511e-38
-5.05618e-43
6.07112e-39
1.44267e-43
8.40256e-39
9.00356e-42
6.79619e-44
8.82301e-39
5.0484e-41
-1.99212e-45
2.71646e-41
6.12406e-46
3.68823e-41
3.43118e-44
2.95628e-46
3.68922e-41
2.10583e-43
-3.98281e-48
1.13877e-43
7.60906e-47
1.50293e-43
5.90761e-46
9.99949e-49
1.45719e-43
4.30349e-46
-1.8117e-50
2.88605e-46
3.91701e-51
2.86735e-46
7.77032e-50
2.4787e-51
2.87454e-46
2.04472e-48
-6.24689e-53
1.05116e-48
2.65478e-52
1.14538e-48
3.55726e-53
1.47022e-53
1.2474e-48
8.02535e-51
-1.90909e-55
4.37438e-51
9.2612e-56
4.41307e-51
1.06026e-55
5.11886e-56
4.57158e-51
2.77491e-53
-5.21125e-58
1.47562e-53
2.92049e-58
1.42676e-53
2.92362e-58
1.53602e-58
1.48998e-53
8.7092e-56
-1.27008e-60
4.74422e-56
8.39775e-61
4.10971e-56
7.28017e-61
3.93218e-61
4.26253e-56
2.48531e-58
-2.81564e-63
1.56391e-58
2.18868e-63
1.24229e-58
1.65261e-63
8.49658e-64
9.4515e-59
6.43146e-61
-5.623e-66
4.63103e-61
5.33506e-66
3.39093e-61
2.69714e-66
1.90823e-66
2.53925e-61
1.56291e-63
-1.02367e-68
1.25685e-63
1.25134e-67
8.78089e-64
3.10936e-69
3.84548e-69
6.01945e-64
3.66018e-66
-1.61843e-71
3.1748e-66
7.18212e-70
2.13529e-66
1.43476e-73
7.89461e-72
1.30807e-66
8.16291e-69
-2.08414e-74
7.43902e-69
2.34409e-72
4.87446e-69
-1.50012e-74
1.91818e-74
2.89449e-69
1.77721e-71
-1.54449e-77
1.73258e-71
6.60007e-75
1.17277e-71
-7.31631e-77
4.76152e-77
7.00937e-72
4.00421e-74
3.46429e-80
4.07035e-74
1.62481e-77
2.88598e-74
-2.73595e-79
1.13055e-79
1.75791e-74
8.55087e-77
2.38886e-82
9.94217e-77
4.00466e-80
7.33158e-77
-9.45059e-82
2.75364e-82
4.58196e-77
1.85261e-79
9.49818e-85
2.53011e-79
1.10008e-82
1.93761e-79
-3.14605e-84
6.8438e-85
1.24043e-79
4.55795e-82
7.42963e-86
6.64391e-82
1.03373e-84
5.30509e-82
-7.40902e-87
1.27778e-87
3.46654e-82
4.34378e-85
3.61432e-90
1.2427e-84
1.74481e-87
1.01861e-84
-1.72688e-89
1.4609e-90
6.35646e-85
7.31289e-88
3.83253e-93
2.47282e-87
3.34582e-90
2.14173e-87
-4.03933e-92
3.62653e-93
1.25817e-87
1.78255e-90
4.45894e-95
5.12253e-90
6.40817e-93
4.61342e-90
-9.43507e-95
6.58898e-96
2.76592e-90
4.71447e-93
3.71091e-98
1.11116e-92
1.27031e-95
1.02747e-92
-2.15046e-97
1.40765e-98
6.26182e-93
1.21983e-95
8.97501e-101
2.48806e-95
2.51997e-98
2.34172e-95
-4.69589e-100
3.279e-101
1.45413e-95
3.00938e-98
1.99018e-103
5.52562e-98
4.79657e-101
5.27801e-98
-9.63463e-103
7.91911e-104
3.34658e-98
7.07221e-101
4.17067e-106
1.18628e-100
8.50471e-104
1.14926e-100
-1.82921e-105
1.84356e-106
7.45803e-101
1.55407e-103
7.78056e-109
2.40374e-103
1.3677e-106
2.36586e-103
-3.16066e-108
4.04386e-109
1.57308e-103
3.13355e-106
1.32979e-111
4.5011e-106
1.72665e-109
4.52867e-106
-4.8996e-111
8.07387e-112
3.1004e-106
5.68658e-109
2.10612e-114
7.85259e-109
1.44404e-112
7.9383e-109
-6.80893e-114
1.44722e-114
5.6263e-109
9.05845e-112
2.92578e-117
1.28475e-111
5.54812e-116
1.26946e-111
-8.75723e-117
2.31037e-117
9.2919e-112
1.19265e-114
3.50582e-120
1.83863e-114
5.49785e-120
1.89272e-114
-9.9889e-120
3.21073e-120
1.37401e-114
1.57581e-117
3.69859e-123
2.31241e-117
1.42291e-122
2.51612e-117
-1.09247e-122
3.84313e-123
1.79824e-117
1.92287e-120
3.49822e-126
2.57151e-120
4.87044e-126
3.22988e-120
-1.01625e-125
4.05593e-126
2.08566e-120
1.81652e-123
8.32124e-127
3.35604e-123
2.65345e-129
3.62951e-123
-4.62523e-129
2.73812e-127
2.24372e-123
8.50441e-127
3.38867e-130
2.3404e-126
8.44773e-133
2.16425e-126
-3.38034e-132
1.712e-132
1.94066e-126
4.79945e-130
1.7022e-133
2.06687e-129
2.38515e-136
1.98925e-129
-2.37946e-135
1.60545e-135
1.29519e-129
3.01302e-133
1.05961e-136
1.79541e-132
-1.67496e-139
1.80254e-132
-1.79428e-138
2.11484e-138
1.05309e-132
2.12351e-136
7.12439e-140
1.65979e-135
-4.24326e-142
1.68348e-135
-1.27421e-141
1.65101e-141
8.2818e-136
1.55276e-139
5.02195e-143
1.45216e-138
-5.31749e-145
1.47017e-138
-8.86982e-145
1.18253e-144
7.2488e-139
1.12829e-142
3.27991e-146
1.16297e-141
-5.08593e-148
1.16605e-141
-5.52984e-148
8.44351e-148
5.7834e-142
7.55896e-146
1.88935e-149
8.47174e-145
-3.54847e-151
8.35727e-145
-3.03359e-151
4.92661e-151
4.20752e-145
4.39638e-149
8.86426e-153
5.54043e-148
-1.88323e-154
5.14912e-148
-1.31968e-154
2.22843e-154
2.56572e-148
2.09407e-152
1.28759e-155
3.00542e-151
-8.70415e-158
2.58045e-151
-4.38842e-158
2.68144e-155
1.2508e-151
5.2401e-155
2.51252e-158
1.50587e-154
-3.29167e-161
1.04495e-154
-1.00237e-161
5.13359e-158
9.91127e-155
1.99076e-157
8.47716e-161
1.29203e-157
-7.12639e-165
6.37729e-158
-1.67421e-165
1.89182e-161
5.70359e-158
7.15099e-161
2.08738e-164
3.44089e-161
-6.2691e-169
1.40854e-161
-1.26776e-169
2.70061e-165
1.35209e-161
1.16233e-164
2.10667e-168
4.35606e-165
-9.54863e-174
1.45606e-165
-2.43801e-174
9.93487e-170
1.47411e-165
7.2835e-169
6.2976e-173
1.84984e-169
5.16248e-174
4.59831e-170
-3.31777e-180
-3.3012e-179
5.3757e-170
6.70049e-174
9.75515e-175
1.53438e-175
4.62413e-175
5.27351e-10
-7.6117e-15
6.83387e-10
-1.07849e-14
5.56606e-10
-1.31664e-14
1.68207e-12
3.13645e-13
-6.05011e-18
2.24309e-13
-4.60933e-17
4.69428e-13
-3.45563e-17
1.0913e-14
2.22758e-15
2.51365e-20
1.2042e-15
-3.0006e-19
1.16478e-15
-1.56551e-19
5.52266e-17
1.31501e-17
2.26131e-22
8.48313e-18
-1.33313e-21
5.05231e-18
-8.81503e-22
1.88008e-19
6.17555e-20
1.84017e-24
5.19584e-20
-5.00432e-24
3.53955e-20
-3.84624e-24
5.13333e-22
2.83364e-22
8.61717e-27
2.76785e-22
-2.43723e-26
2.14206e-22
-1.98111e-26
1.199e-24
1.32475e-24
3.8277e-29
1.42693e-24
-1.16885e-28
1.18423e-24
-9.57046e-29
2.87648e-27
6.24772e-27
1.63369e-31
7.15505e-27
-5.50853e-31
6.25825e-27
-4.43641e-31
5.81867e-30
2.93919e-29
6.87855e-34
3.50653e-29
-2.52767e-33
3.17142e-29
-1.99759e-33
7.8416e-33
1.39554e-31
2.89867e-36
1.67854e-31
-1.12848e-35
1.55124e-31
-8.78949e-36
6.00862e-36
6.4723e-34
1.21383e-38
7.79966e-34
-4.95123e-38
7.38833e-34
-3.77133e-38
2.74675e-38
2.89336e-36
4.99059e-41
3.52235e-36
-2.11235e-40
3.34697e-36
-1.5743e-40
1.20463e-40
1.22939e-38
2.05361e-43
1.52428e-38
-8.5974e-43
1.46329e-38
-6.34214e-43
8.41914e-43
4.96617e-41
8.28359e-46
6.24599e-41
-3.32871e-45
6.13835e-41
-2.42311e-45
1.311e-44
1.87596e-43
2.54977e-48
2.41482e-43
-9.629e-48
2.42679e-43
-7.28195e-48
1.20614e-46
4.09879e-46
6.273e-51
7.1553e-46
-3.34486e-50
7.69403e-46
-2.485e-50
4.42447e-49
1.65328e-48
3.33973e-53
2.43548e-48
-1.02967e-52
2.66421e-48
-7.67916e-53
2.12058e-51
5.25537e-51
9.29543e-56
7.43663e-51
-2.92469e-55
8.32523e-51
-2.23073e-55
8.13013e-54
1.52045e-53
2.65769e-58
2.1352e-53
-7.59212e-58
2.44292e-53
-5.9645e-58
2.69631e-56
4.54997e-56
1.53848e-59
5.65667e-56
-1.90382e-60
6.55299e-56
-1.55466e-60
7.6442e-59
1.28491e-58
8.93107e-62
1.46483e-58
-4.58888e-63
1.71272e-58
-3.93153e-63
1.76244e-61
3.45637e-61
3.15366e-64
3.7145e-61
-1.07728e-65
4.38056e-61
-9.65442e-66
3.07238e-64
9.15748e-64
1.01214e-66
9.27948e-64
-2.49444e-68
1.08032e-63
-2.4065e-68
2.44867e-67
2.31575e-66
2.88458e-69
2.33109e-66
-5.64612e-71
2.7564e-66
-5.93521e-71
3.24372e-71
5.76732e-69
7.4541e-72
5.80365e-69
-1.26086e-73
6.9227e-69
-1.46581e-73
1.67816e-73
1.44331e-71
1.88453e-74
1.45255e-71
-2.8224e-76
1.75303e-71
-3.65908e-76
1.33372e-76
3.66357e-74
4.81203e-77
3.69774e-74
-6.25315e-79
4.43614e-74
-9.38673e-79
1.8809e-79
9.43009e-77
1.22595e-79
9.5513e-77
-1.3893e-81
1.17966e-76
-2.47781e-81
1.73813e-82
2.47909e-79
3.09584e-82
2.52625e-79
-3.08532e-84
3.18091e-79
-6.54023e-84
-3.03784e-85
6.56783e-82
1.49374e-84
6.76362e-82
-4.99838e-87
8.5912e-82
-7.45142e-87
-7.65732e-88
1.34332e-84
2.05528e-87
1.13023e-84
-1.01585e-89
8.00864e-85
-1.85602e-89
-3.46519e-90
3.30646e-87
5.3293e-90
2.83996e-87
-1.92742e-92
2.14556e-87
-4.58352e-92
-1.22107e-92
8.07847e-90
1.31407e-92
7.07018e-90
-3.47943e-95
5.55654e-90
-1.10759e-94
-3.79013e-95
1.93637e-92
3.09487e-95
1.73312e-92
-5.83973e-98
1.41935e-92
-2.59809e-97
-1.08809e-97
4.54051e-95
6.88004e-98
4.14175e-95
-8.82446e-101
3.51962e-95
-5.7708e-100
-2.77477e-100
1.02089e-97
1.44688e-100
9.50847e-98
-1.09252e-103
8.39164e-98
-1.21253e-102
-6.43182e-103
2.18924e-100
2.835e-103
2.07675e-100
-8.90627e-107
1.8951e-100
-2.38016e-105
-1.34219e-105
4.40186e-103
5.14454e-106
4.25686e-103
2.24274e-110
4.01605e-103
-4.3394e-108
-2.51283e-108
8.23462e-106
8.57226e-109
8.09946e-106
2.62361e-112
7.86675e-106
-7.35649e-111
-4.14158e-111
1.41829e-108
1.30447e-111
1.42829e-108
5.02546e-115
1.42222e-108
-1.14835e-113
-5.83737e-114
2.23155e-111
1.75849e-114
2.29437e-111
6.16361e-118
2.31109e-111
-1.60326e-116
-6.8739e-117
3.12999e-114
2.0775e-117
3.24677e-114
4.88379e-121
3.31371e-114
-1.97419e-119
-6.62588e-120
3.87319e-117
2.10157e-120
4.02913e-117
8.73552e-125
4.15883e-117
-2.10719e-122
-4.95602e-123
4.18518e-120
1.67352e-123
4.34463e-120
-1.38112e-127
4.52284e-120
-1.9405e-125
-2.7309e-126
3.91513e-123
1.65044e-126
4.09182e-123
-5.48188e-130
4.25378e-123
-6.83956e-129
-1.17053e-130
2.81531e-126
4.98014e-130
2.26573e-126
-4.33877e-133
9.92154e-127
-4.57024e-132
5.17378e-134
1.79319e-129
1.55811e-135
1.50495e-129
-4.19942e-136
6.85725e-130
-2.75865e-135
1.34916e-136
1.04373e-132
7.26026e-139
9.21584e-133
-2.5185e-139
4.31082e-133
-1.63165e-138
1.15585e-139
7.31104e-136
2.6754e-141
5.36572e-136
-2.50568e-142
2.74457e-136
-1.04267e-141
9.44634e-143
6.09885e-139
3.23441e-145
3.70258e-139
-1.87884e-145
1.66298e-139
-7.00643e-145
7.22583e-146
4.88012e-142
1.71564e-148
2.66897e-142
-1.45672e-148
1.1191e-142
-4.26314e-148
5.49005e-149
3.5229e-145
7.83148e-152
1.73847e-145
-8.23351e-152
7.10279e-146
-2.13968e-151
3.41194e-152
2.12752e-148
2.83326e-155
9.69038e-149
-3.79879e-155
3.85836e-149
-8.3056e-155
1.70112e-155
1.02896e-151
1.47273e-156
4.30434e-152
-1.20665e-158
1.67614e-152
-2.51756e-158
1.07821e-155
5.93299e-155
2.6849e-159
2.92831e-155
-2.76229e-162
1.44157e-155
-5.77882e-162
6.12506e-159
2.78126e-158
4.82964e-163
1.18756e-158
-4.01732e-166
4.81396e-159
-7.73786e-166
1.98764e-162
5.67724e-162
-8.45171e-171
2.11987e-162
-2.51727e-170
7.53119e-163
-4.62272e-170
3.90351e-166
5.47561e-166
-1.67964e-174
1.77484e-166
-5.24696e-175
5.35238e-167
-9.43971e-175
4.2565e-170
2.15693e-170
-3.90852e-179
5.72224e-171
-1.37005e-180
1.3119e-171
-1.90872e-180
1.81837e-174
2.25451e-175
2.85199e-176
2.83391e-177
)
;

boundaryField
{
    topWall
    {
        type            calculated;
        value           uniform 0;
    }
    botWall
    {
        type            calculated;
        value           uniform 0;
    }
    inlet
    {
        type            cyclic;
        value           nonuniform List<scalar> 
120
(
-2.23014e-12
-8.09292e-10
-3.37549e-08
-3.17837e-08
-2.97677e-08
-2.80169e-08
-2.65081e-08
-2.52117e-08
-2.41075e-08
-2.31708e-08
-2.23831e-08
-2.17237e-08
-2.11763e-08
-2.07235e-08
-2.03534e-08
-2.00519e-08
-1.98114e-08
-1.96229e-08
-1.94703e-08
-1.93492e-08
-1.92554e-08
-1.91823e-08
-1.91266e-08
-1.90835e-08
-1.90508e-08
-1.90256e-08
-1.90062e-08
-1.89909e-08
-1.89783e-08
-1.89673e-08
-1.89564e-08
-1.89449e-08
-1.89288e-08
-1.89206e-08
-1.89108e-08
-1.89e-08
-1.88873e-08
-1.88716e-08
-1.88511e-08
-1.88242e-08
-1.87886e-08
-1.87422e-08
-1.8681e-08
-1.86017e-08
-1.84992e-08
-1.8368e-08
-1.81972e-08
-1.80004e-08
-1.77365e-08
-1.74037e-08
-1.69878e-08
-1.64763e-08
-1.58519e-08
-1.50963e-08
-1.41889e-08
-1.3108e-08
-1.18292e-08
-1.0327e-08
-8.57385e-09
-6.54135e-09
-4.19878e-09
-1.52217e-09
-1.36237e-14
-6.09112e-17
-2.38232e-19
-8.56518e-22
-3.04333e-24
-1.12096e-26
-4.4102e-29
-1.84394e-31
-8.06664e-34
-3.58564e-36
-1.58747e-38
-6.8403e-41
-2.84983e-43
-1.23835e-45
-4.27859e-48
-1.43712e-50
-4.55534e-53
-1.34165e-55
-3.63953e-58
-9.07641e-61
-2.09661e-63
-4.50678e-66
-9.12059e-69
-1.87632e-71
-4.76796e-74
-1.24551e-76
-3.27749e-79
-8.7641e-82
-5.26562e-85
-1.53332e-87
-4.12695e-90
-1.09494e-92
-2.81585e-95
-6.96021e-98
-1.61497e-100
-3.51821e-103
-7.07362e-106
-1.29512e-108
-2.1287e-111
-3.07641e-114
-3.87394e-117
-4.1968e-120
-3.91138e-123
-4.98139e-127
-3.32244e-130
-2.19828e-133
-1.38576e-136
-9.36401e-140
-6.53701e-143
-4.35879e-146
-2.51418e-149
-1.19753e-152
-1.12211e-155
-3.92548e-159
-8.41568e-163
-1.09183e-166
-7.46025e-171
-1.24722e-175
)
;
    }
    outlet
    {
        type            cyclic;
        value           nonuniform List<scalar> 
120
(
2.23014e-12
8.09292e-10
3.37549e-08
3.17837e-08
2.97677e-08
2.80169e-08
2.65081e-08
2.52117e-08
2.41075e-08
2.31708e-08
2.23831e-08
2.17237e-08
2.11763e-08
2.07235e-08
2.03534e-08
2.00519e-08
1.98114e-08
1.96229e-08
1.94703e-08
1.93492e-08
1.92554e-08
1.91823e-08
1.91266e-08
1.90835e-08
1.90508e-08
1.90256e-08
1.90062e-08
1.89909e-08
1.89783e-08
1.89673e-08
1.89564e-08
1.89449e-08
1.89288e-08
1.89206e-08
1.89108e-08
1.89e-08
1.88873e-08
1.88716e-08
1.88511e-08
1.88242e-08
1.87886e-08
1.87422e-08
1.8681e-08
1.86017e-08
1.84992e-08
1.8368e-08
1.81972e-08
1.80004e-08
1.77365e-08
1.74037e-08
1.69878e-08
1.64763e-08
1.58519e-08
1.50963e-08
1.41889e-08
1.3108e-08
1.18292e-08
1.0327e-08
8.57385e-09
6.54135e-09
4.19878e-09
1.52217e-09
1.36237e-14
6.09112e-17
2.38232e-19
8.56518e-22
3.04333e-24
1.12096e-26
4.4102e-29
1.84394e-31
8.06664e-34
3.58564e-36
1.58747e-38
6.8403e-41
2.84983e-43
1.23835e-45
4.27859e-48
1.43712e-50
4.55534e-53
1.34165e-55
3.63953e-58
9.07641e-61
2.09661e-63
4.50678e-66
9.12059e-69
1.87632e-71
4.76796e-74
1.24551e-76
3.27749e-79
8.7641e-82
5.26562e-85
1.53332e-87
4.12695e-90
1.09494e-92
2.81585e-95
6.96021e-98
1.61497e-100
3.51821e-103
7.07362e-106
1.29512e-108
2.1287e-111
3.07641e-114
3.87394e-117
4.1968e-120
3.91138e-123
4.98139e-127
3.32244e-130
2.19828e-133
1.38576e-136
9.36401e-140
6.53701e-143
4.35879e-146
2.51418e-149
1.19753e-152
1.12211e-155
3.92548e-159
8.41568e-163
1.09183e-166
7.46025e-171
1.24722e-175
)
;
    }
    fixWall
    {
        type            empty;
        value           nonuniform List<scalar> 0();
    }
}


// ************************************************************************* //
