/*--------------------------------*- C++ -*----------------------------------*\
  =========                 |
  \\      /  F ield         | OpenFOAM: The Open Source CFD Toolbox
   \\    /   O peration     | Website:  https://openfoam.org
    \\  /    A nd           | Version:  dev
     \\/     M anipulation  |

   OpenFOAM for Windows 20.09 (v1)
   Built by CFD Support, www.cfdsupport.com (based on Symscape).
\*---------------------------------------------------------------------------*/
FoamFile
{
    version     2.0;
    format      ascii;
    class       volSymmTensorField;
    location    "4";
    object      devReff;
}
// * * * * * * * * * * * * * * * * * * * * * * * * * * * * * * * * * * * * * //

dimensions      [0 2 -2 0 0 0 0];

internalField   nonuniform List<symmTensor> 
960
(
(8.47629e-07 -0.000788775 0 -1.58719e-06 0 7.39563e-07)
(-7.2903e-08 -0.000786025 0 1.30712e-07 0 -5.78089e-08)
(-3.29899e-08 -0.000791305 0 2.79946e-08 0 4.99525e-09)
(7.66252e-08 -0.000787635 0 -8.12618e-08 0 4.6366e-09)
(-1.38484e-07 -0.000693187 0 3.99758e-07 0 -2.61274e-07)
(-1.32277e-07 -0.000693967 0 1.95302e-07 0 -6.30254e-08)
(-1.25353e-08 -0.000696411 0 1.01392e-08 0 2.39611e-09)
(2.11842e-07 -0.000692535 0 -2.12741e-07 0 8.99195e-10)
(3.43491e-07 -0.000604931 0 -5.59749e-07 0 2.16258e-07)
(-1.7697e-07 -0.000605747 0 2.31439e-07 0 -5.44692e-08)
(1.03216e-08 -0.00060783 0 -1.0961e-08 0 6.39398e-10)
(3.21484e-07 -0.000604559 0 -3.21412e-07 0 -7.21998e-11)
(-1.82139e-07 -0.000524818 0 5.14316e-07 0 -3.32177e-07)
(-2.20124e-07 -0.00052555 0 2.74495e-07 0 -5.43711e-08)
(2.96238e-08 -0.000527145 0 -3.39854e-08 0 4.36155e-09)
(4.03741e-07 -0.000524535 0 -4.0612e-07 0 2.37869e-09)
(2.8522e-07 -0.000452527 0 -4.06851e-07 0 1.21631e-07)
(-2.55418e-07 -0.000453457 0 3.11012e-07 0 -5.55943e-08)
(4.19464e-08 -0.000454418 0 -4.01636e-08 0 -1.78279e-09)
(4.59912e-07 -0.000452373 0 -4.61686e-07 0 1.77396e-09)
(2.56625e-07 -0.000387698 0 -3.44388e-07 0 8.77631e-08)
(-2.77626e-07 -0.00038878 0 3.26859e-07 0 -4.92327e-08)
(6.66836e-08 -0.000389312 0 -7.15688e-08 0 4.88525e-09)
(4.99813e-07 -0.000387781 0 -5.02005e-07 0 2.19214e-09)
(2.86168e-07 -0.000329991 0 -4.06933e-07 0 1.20765e-07)
(-3.05338e-07 -0.000331046 0 3.57577e-07 0 -5.22396e-08)
(7.31187e-08 -0.000331366 0 -6.88338e-08 0 -4.28492e-09)
(5.26892e-07 -0.000330336 0 -5.2898e-07 0 2.0879e-09)
(2.20491e-07 -0.000278925 0 -2.81268e-07 0 6.07776e-08)
(-3.18188e-07 -0.000279921 0 3.62785e-07 0 -4.4597e-08)
(9.07575e-08 -0.000280148 0 -9.5525e-08 0 4.76751e-09)
(5.41483e-07 -0.000279558 0 -5.43063e-07 0 1.57965e-09)
(2.4733e-07 -0.000234071 0 -3.43881e-07 0 9.65514e-08)
(-3.39909e-07 -0.000235008 0 3.86794e-07 0 -4.68855e-08)
(8.53581e-08 -0.000235175 0 -8.06421e-08 0 -4.71597e-09)
(5.49074e-07 -0.000235022 0 -5.51016e-07 0 1.94199e-09)
(2.09523e-07 -0.000194879 0 -2.76191e-07 0 6.66681e-08)
(-3.49693e-07 -0.000195915 0 3.89975e-07 0 -4.02814e-08)
(9.14611e-08 -0.000195986 0 -9.67376e-08 0 5.27654e-09)
(5.44022e-07 -0.00019616 0 -5.45614e-07 0 1.59225e-09)
(2.1837e-07 -0.000160932 0 -3.05474e-07 0 8.71045e-08)
(-3.71241e-07 -0.000162068 0 4.13733e-07 0 -4.24923e-08)
(7.61425e-08 -0.000161998 0 -6.96352e-08 0 -6.50733e-09)
(5.33242e-07 -0.000162539 0 -5.35627e-07 0 2.38524e-09)
(1.87909e-07 -0.000131662 0 -2.51724e-07 0 6.38156e-08)
(-3.84252e-07 -0.00013315 0 4.24898e-07 0 -4.0646e-08)
(6.90819e-08 -0.000132774 0 -6.6867e-08 0 -2.21484e-09)
(5.06816e-07 -0.000133651 0 -5.08285e-07 0 1.46965e-09)
(1.89676e-07 -0.000106373 0 -2.70409e-07 0 8.07328e-08)
(-3.88408e-07 -0.000108343 0 4.12556e-07 0 -2.41475e-08)
(7.38655e-08 -0.000107795 0 -8.08737e-08 0 7.00817e-09)
(4.74553e-07 -0.000109021 0 -4.80219e-07 0 5.66535e-09)
(1.79108e-07 -8.47225e-05 0 -2.48785e-07 0 6.9677e-08)
(-4.40298e-07 -8.74614e-05 0 4.91292e-07 0 -5.09936e-08)
(3.05425e-08 -8.66231e-05 0 -1.14734e-08 0 -1.90691e-08)
(4.15756e-07 -8.81068e-05 0 -4.169e-07 0 1.14367e-09)
(1.54338e-07 -6.63725e-05 0 -2.1091e-07 0 5.65721e-08)
(-4.56782e-07 -6.98685e-05 0 4.87866e-07 0 -3.10837e-08)
(6.34879e-08 -6.8696e-05 0 -8.06196e-08 0 1.71317e-08)
(3.3245e-07 -7.05315e-05 0 -3.19309e-07 0 -1.31404e-08)
(1.58419e-07 -5.32081e-05 0 -2.03284e-07 0 4.48651e-08)
(-5.10344e-07 -5.57906e-05 0 5.56046e-07 0 -4.57022e-08)
(2.89263e-08 -5.44404e-05 0 -2.92596e-08 0 3.33258e-10)
(2.28784e-07 -5.65295e-05 0 -2.26538e-07 0 -2.24597e-09)
(1.36552e-07 -4.33509e-05 0 -1.87686e-07 0 5.11336e-08)
(-5.09874e-07 -4.43729e-05 0 5.55332e-07 0 -4.54587e-08)
(4.00592e-08 -4.34318e-05 0 -5.73115e-08 0 1.72522e-08)
(1.40202e-07 -4.52962e-05 0 -1.23234e-07 0 -1.69681e-08)
(1.20928e-07 -3.41877e-05 0 -1.59613e-07 0 3.86851e-08)
(-5.00386e-07 -3.46339e-05 0 5.36071e-07 0 -3.56844e-08)
(1.3866e-08 -3.42429e-05 0 -2.87552e-08 0 1.48892e-08)
(9.41994e-08 -3.5712e-05 0 -8.52553e-08 0 -8.94409e-09)
(1.30274e-07 -2.67987e-05 0 -1.89687e-07 0 5.94129e-08)
(-4.94971e-07 -2.68898e-05 0 5.26543e-07 0 -3.1572e-08)
(-1.59809e-09 -2.67416e-05 0 -8.80091e-09 0 1.0399e-08)
(5.89242e-08 -2.78454e-05 0 -5.20974e-08 0 -6.82679e-09)
(1.14611e-07 -2.0846e-05 0 -1.55805e-07 0 4.11933e-08)
(-4.9348e-07 -2.06211e-05 0 5.27289e-07 0 -3.38083e-08)
(-1.54299e-08 -2.06954e-05 0 -8.02451e-10 0 1.62323e-08)
(2.56421e-08 -2.15391e-05 0 -1.42453e-08 0 -1.13968e-08)
(1.16365e-07 -1.61243e-05 0 -1.60873e-07 0 4.45073e-08)
(-4.91336e-07 -1.57432e-05 0 5.27622e-07 0 -3.6286e-08)
(-3.18523e-08 -1.58267e-05 0 2.23163e-08 0 9.53605e-09)
(6.91732e-09 -1.64457e-05 0 3.98323e-09 0 -1.09006e-08)
(1.17826e-07 -1.23942e-05 0 -1.58044e-07 0 4.02182e-08)
(-4.74171e-07 -1.18631e-05 0 5.02179e-07 0 -2.80083e-08)
(-3.45379e-08 -1.19483e-05 0 1.52746e-08 0 1.92633e-08)
(-5.91811e-09 -1.25082e-05 0 1.30587e-08 0 -7.14062e-09)
(1.1893e-07 -9.49276e-06 0 -1.57834e-07 0 3.89043e-08)
(-4.7474e-07 -8.86909e-06 0 5.13095e-07 0 -3.83549e-08)
(-5.47608e-08 -8.90776e-06 0 4.79133e-08 0 6.84747e-09)
(-2.49249e-08 -9.40067e-06 0 3.81932e-08 0 -1.32683e-08)
(1.30059e-07 -7.33252e-06 0 -1.71074e-07 0 4.10153e-08)
(-4.46896e-07 -6.58556e-06 0 4.71167e-07 0 -2.42707e-08)
(-5.11268e-08 -6.50868e-06 0 3.2078e-08 0 1.90488e-08)
(-2.98854e-08 -7.03718e-06 0 3.72531e-08 0 -7.36767e-09)
(1.31505e-07 -5.73767e-06 0 -1.70109e-07 0 3.8604e-08)
(-4.32627e-07 -4.88798e-06 0 4.60577e-07 0 -2.795e-08)
(-6.63784e-08 -4.67389e-06 0 5.74643e-08 0 8.91413e-09)
(-4.33596e-08 -5.19373e-06 0 5.27095e-08 0 -9.34989e-09)
(1.24902e-07 -4.6612e-06 0 -1.47695e-07 0 2.2793e-08)
(-4.21154e-07 -3.62479e-06 0 4.59601e-07 0 -3.84463e-08)
(-6.56889e-08 -3.27554e-06 0 5.24304e-08 0 1.32585e-08)
(-5.39439e-08 -3.84295e-06 0 6.73076e-08 0 -1.33636e-08)
(1.40237e-07 -4.02779e-06 0 -1.73715e-07 0 3.34776e-08)
(-3.87319e-07 -2.73933e-06 0 4.20813e-07 0 -3.34943e-08)
(-6.52561e-08 -2.12245e-06 0 4.94038e-08 0 1.58523e-08)
(-6.21859e-08 -2.76379e-06 0 7.40202e-08 0 -1.18343e-08)
(1.32947e-07 -3.8546e-06 0 -1.49234e-07 0 1.62871e-08)
(-3.40966e-07 -2.17823e-06 0 3.67587e-07 0 -2.6621e-08)
(-6.54192e-08 -1.21012e-06 0 5.25738e-08 0 1.28454e-08)
(-7.36283e-08 -2.0762e-06 0 9.14665e-08 0 -1.78382e-08)
(1.53736e-07 -4.09584e-06 0 -1.87443e-07 0 3.37069e-08)
(-2.88625e-07 -1.76706e-06 0 3.16626e-07 0 -2.80002e-08)
(-6.29361e-08 -2.03952e-07 0 4.97125e-08 0 1.32236e-08)
(-7.52382e-08 -1.57008e-06 0 8.00522e-08 0 -4.81399e-09)
(1.73338e-07 -4.66401e-06 0 -2.15094e-07 0 4.17559e-08)
(-1.68206e-07 -1.52419e-06 0 1.56983e-07 0 1.12234e-08)
(-7.32606e-08 1.82696e-08 0 7.63897e-08 0 -3.12906e-09)
(-9.62555e-08 -1.69709e-06 0 1.01641e-07 0 -5.38504e-09)
(1.64662e-07 -4.6145e-06 0 -1.80526e-07 0 1.58642e-08)
(-8.23103e-08 -1.3141e-06 0 6.54148e-08 0 1.68955e-08)
(-8.27856e-08 -1.09101e-07 0 8.52843e-08 0 -2.49867e-09)
(-1.09465e-07 -1.63284e-06 0 1.03978e-07 0 5.48635e-09)
(2.01763e-07 -4.03759e-06 0 -2.25713e-07 0 2.39503e-08)
(-3.65792e-08 -1.451e-06 0 4.93045e-08 0 -1.27253e-08)
(-9.76309e-08 -3.05559e-07 0 1.16175e-07 0 -1.85441e-08)
(-1.31804e-07 -1.30312e-06 0 1.38511e-07 0 -6.70659e-09)
(2.0232e-07 -3.78729e-06 0 -2.12018e-07 0 9.6981e-09)
(4.77485e-08 -1.98806e-06 0 -6.48752e-08 0 1.71267e-08)
(-8.19648e-08 -1.07254e-06 0 9.03025e-08 0 -8.33774e-09)
(-1.37127e-07 -1.62658e-06 0 1.39935e-07 0 -2.808e-09)
(2.04939e-07 -3.92802e-06 0 -2.00766e-07 0 -4.17303e-09)
(6.59868e-08 -2.60379e-06 0 -5.98627e-08 0 -6.12412e-09)
(-7.88103e-08 -1.8515e-06 0 9.24079e-08 0 -1.35977e-08)
(-1.49623e-07 -2.21827e-06 0 1.61607e-07 0 -1.19837e-08)
(2.35311e-07 -4.48338e-06 0 -2.53271e-07 0 1.79595e-08)
(1.0665e-07 -3.45535e-06 0 -1.08039e-07 0 1.38887e-09)
(-6.9683e-08 -2.89723e-06 0 8.04519e-08 0 -1.07689e-08)
(-1.51716e-07 -3.21856e-06 0 1.59234e-07 0 -7.51866e-09)
(2.45084e-07 -5.42089e-06 0 -2.61333e-07 0 1.62488e-08)
(1.48121e-07 -4.54439e-06 0 -1.65816e-07 0 1.7695e-08)
(-6.62697e-08 -4.12718e-06 0 7.71739e-08 0 -1.09042e-08)
(-1.46831e-07 -4.43498e-06 0 1.44893e-07 0 1.93783e-09)
(2.41413e-07 -6.86499e-06 0 -2.4621e-07 0 4.79676e-09)
(1.57049e-07 -6.08472e-06 0 -1.60325e-07 0 3.27641e-09)
(-6.79506e-08 -5.72644e-06 0 8.26397e-08 0 -1.46891e-08)
(-1.71899e-07 -6.04074e-06 0 1.86186e-07 0 -1.42871e-08)
(2.62347e-07 -8.88072e-06 0 -2.79767e-07 0 1.74207e-08)
(1.86404e-07 -8.12248e-06 0 -1.99068e-07 0 1.2664e-08)
(-5.87785e-08 -7.77405e-06 0 6.57389e-08 0 -6.96046e-09)
(-1.60929e-07 -8.07027e-06 0 1.55464e-07 0 5.4648e-09)
(2.52253e-07 -1.15724e-05 0 -2.54244e-07 0 1.99075e-09)
(1.99989e-07 -1.07902e-05 0 -2.04019e-07 0 4.02964e-09)
(-6.64961e-08 -1.03986e-05 0 8.36087e-08 0 -1.71126e-08)
(-1.9568e-07 -1.0716e-05 0 2.12823e-07 0 -1.71434e-08)
(2.6711e-07 -1.51293e-05 0 -2.80097e-07 0 1.29872e-08)
(2.24468e-07 -1.42546e-05 0 -2.3081e-07 0 6.34154e-09)
(-5.06298e-08 -1.37433e-05 0 5.41241e-08 0 -3.49431e-09)
(-1.92452e-07 -1.40618e-05 0 1.9325e-07 0 -7.98451e-10)
(2.58408e-07 -1.96484e-05 0 -2.63449e-07 0 5.04134e-09)
(2.56523e-07 -1.8678e-05 0 -2.65716e-07 0 9.19331e-09)
(-5.94716e-08 -1.80175e-05 0 7.82517e-08 0 -1.87801e-08)
(-2.1507e-07 -1.83543e-05 0 2.22085e-07 0 -7.01527e-09)
(2.55784e-07 -2.53565e-05 0 -2.63171e-07 0 7.38748e-09)
(3.02589e-07 -2.42998e-05 0 -3.27571e-07 0 2.49814e-08)
(-3.54555e-08 -2.34618e-05 0 3.68912e-08 0 -1.4357e-09)
(-2.28479e-07 -2.3762e-05 0 2.32802e-07 0 -4.32316e-09)
(2.20533e-07 -3.24156e-05 0 -2.06448e-07 0 -1.40853e-08)
(3.25215e-07 -3.14182e-05 0 -3.34947e-07 0 9.73191e-09)
(-3.81202e-08 -3.03898e-05 0 5.58574e-08 0 -1.77372e-08)
(-2.36823e-07 -3.05635e-05 0 2.31789e-07 0 5.03406e-09)
(2.31413e-07 -4.09712e-05 0 -2.53551e-07 0 2.21376e-08)
(3.56904e-07 -4.02294e-05 0 -3.63766e-07 0 6.8627e-09)
(-1.04649e-08 -3.91818e-05 0 1.78093e-08 0 -7.34436e-09)
(-2.77216e-07 -3.90021e-05 0 3.02874e-07 0 -2.5658e-08)
(1.89799e-07 -5.14633e-05 0 -2.11945e-07 0 2.2146e-08)
(3.85661e-07 -5.15456e-05 0 -3.91427e-07 0 5.76543e-09)
(2.39978e-08 -5.04157e-05 0 -2.50076e-08 0 1.00977e-09)
(-2.45215e-07 -4.86682e-05 0 2.37958e-07 0 7.25734e-09)
(7.21355e-08 -6.41872e-05 0 -6.8576e-08 0 -3.55952e-09)
(3.71599e-07 -6.41331e-05 0 -3.53605e-07 0 -1.79945e-08)
(6.72784e-08 -6.24843e-05 0 -3.9278e-08 0 -2.80003e-08)
(-2.24839e-07 -6.04877e-05 0 2.49687e-07 0 -2.48485e-08)
(5.63592e-08 -7.92173e-05 0 -9.2205e-08 0 3.58458e-08)
(4.58843e-07 -7.82547e-05 0 -4.7655e-07 0 1.77065e-08)
(1.46353e-07 -7.63227e-05 0 -1.45711e-07 0 -6.42122e-10)
(-1.84136e-07 -7.57996e-05 0 1.67662e-07 0 1.64739e-08)
(-2.98608e-08 -9.69361e-05 0 4.58521e-08 0 -1.59912e-08)
(5.027e-07 -9.57597e-05 0 -5.15002e-07 0 1.23018e-08)
(1.65888e-07 -9.41903e-05 0 -1.52195e-07 0 -1.36931e-08)
(-2.06285e-07 -9.4226e-05 0 1.99682e-07 0 6.60383e-09)
(-4.43544e-08 -0.000117767 0 6.12445e-08 0 -1.689e-08)
(5.53782e-07 -0.000116597 0 -5.7076e-07 0 1.69783e-08)
(1.81905e-07 -0.00011547 0 -1.63319e-07 0 -1.8586e-08)
(-2.1857e-07 -0.000115768 0 2.08343e-07 0 1.02272e-08)
(-1.99518e-08 -0.000142249 0 6.987e-09 0 1.29648e-08)
(5.91574e-07 -0.000141206 0 -6.1226e-07 0 2.06865e-08)
(2.10729e-07 -0.00014044 0 -2.11953e-07 0 1.22444e-09)
(-2.34127e-07 -0.000140831 0 2.20998e-07 0 1.31291e-08)
(-4.13619e-08 -0.000170836 0 5.52917e-08 0 -1.39298e-08)
(6.01862e-07 -0.00016997 0 -6.02923e-07 0 1.06117e-09)
(1.94143e-07 -0.000169486 0 -1.73126e-07 0 -2.10177e-08)
(-2.68532e-07 -0.000169896 0 2.71771e-07 0 -3.23944e-09)
(-1.55262e-08 -0.000203938 0 7.28584e-09 0 8.24033e-09)
(6.3374e-07 -0.000203224 0 -6.48141e-07 0 1.44014e-08)
(2.14669e-07 -0.000202989 0 -2.15291e-07 0 6.22403e-10)
(-2.75561e-07 -0.00020337 0 2.67249e-07 0 8.31216e-09)
(-2.99557e-08 -0.000242107 0 4.989e-08 0 -1.99343e-08)
(6.41972e-07 -0.000241451 0 -6.48327e-07 0 6.35448e-09)
(1.92368e-07 -0.000241387 0 -1.72472e-07 0 -1.98957e-08)
(-2.97389e-07 -0.000241723 0 2.92164e-07 0 5.22474e-09)
(1.43057e-08 -0.000285663 0 -3.12993e-08 0 1.69937e-08)
(6.63041e-07 -0.00028499 0 -6.79823e-07 0 1.6782e-08)
(2.07715e-07 -0.000285161 0 -2.08577e-07 0 8.62094e-10)
(-3.21857e-07 -0.000285301 0 3.21706e-07 0 1.5099e-10)
(-1.29892e-08 -0.000335182 0 4.4312e-08 0 -3.13228e-08)
(6.56917e-07 -0.000334278 0 -6.58794e-07 0 1.87704e-09)
(1.84444e-07 -0.000334605 0 -1.65203e-07 0 -1.92414e-08)
(-3.25879e-07 -0.000334542 0 3.14814e-07 0 1.10653e-08)
(7.62522e-08 -0.000390786 0 -1.24633e-07 0 4.83806e-08)
(6.91554e-07 -0.000389577 0 -7.15232e-07 0 2.36775e-08)
(2.05079e-07 -0.000390171 0 -2.10427e-07 0 5.34847e-09)
(-3.53668e-07 -0.000389748 0 3.5793e-07 0 -4.2627e-09)
(3.56885e-08 -0.00045354 0 -1.56149e-08 0 -2.00736e-08)
(7.13038e-07 -0.000451564 0 -7.48384e-07 0 3.53462e-08)
(1.85758e-07 -0.000452068 0 -1.71965e-07 0 -1.37937e-08)
(-3.332e-07 -0.000451344 0 3.18626e-07 0 1.4574e-08)
(1.57019e-07 -0.000522878 0 -2.50304e-07 0 9.32853e-08)
(7.86842e-07 -0.000520467 0 -8.54947e-07 0 6.81048e-08)
(2.12723e-07 -0.000520498 0 -2.16928e-07 0 4.20412e-09)
(-3.32455e-07 -0.000519354 0 3.28665e-07 0 3.79027e-09)
(4.2793e-07 -0.000600414 0 -7.53575e-07 0 3.25646e-07)
(9.3185e-07 -0.000597865 0 -1.10513e-06 0 1.73278e-07)
(2.31481e-07 -0.000597399 0 -2.24989e-07 0 -6.49238e-09)
(-2.74338e-07 -0.000596326 0 2.52053e-07 0 2.22854e-08)
(-7.61097e-08 -0.000935898 0 2.14925e-07 0 -1.38815e-07)
(7.09388e-07 -0.000939332 0 -5.98406e-07 0 -1.10982e-07)
(1.76312e-07 -0.000935508 0 -9.15032e-08 0 -8.48088e-08)
(-2.08798e-07 -0.000936032 0 1.59531e-07 0 4.92675e-08)
(4.9382e-08 -0.000782817 0 -5.70127e-08 0 7.63071e-09)
(-4.34475e-08 -0.000783143 0 4.61831e-08 0 -2.73556e-09)
(-1.07031e-07 -0.000786851 0 1.02231e-07 0 4.80041e-09)
(-7.60891e-08 -0.000792995 0 1.35996e-07 0 -5.99065e-08)
(1.13146e-07 -0.000688921 0 -1.18315e-07 0 5.16903e-09)
(-9.26349e-08 -0.000689023 0 9.15247e-08 0 1.11016e-09)
(-2.10538e-07 -0.000691512 0 2.0524e-07 0 5.29761e-09)
(-1.133e-07 -0.000694537 0 1.78654e-07 0 -6.53534e-08)
(1.67659e-07 -0.000602111 0 -1.76573e-07 0 8.91406e-09)
(-1.28356e-07 -0.000601897 0 1.2963e-07 0 -1.27345e-09)
(-2.91801e-07 -0.000603907 0 2.87941e-07 0 3.85929e-09)
(-1.24634e-07 -0.000606599 0 1.77295e-07 0 -5.2661e-08)
(2.03812e-07 -0.000523036 0 -2.11063e-07 0 7.25093e-09)
(-1.54091e-07 -0.000522641 0 1.54612e-07 0 -5.20509e-10)
(-3.70918e-07 -0.00052436 0 3.69974e-07 0 9.43996e-10)
(-1.36891e-07 -0.000526652 0 1.91742e-07 0 -5.48516e-08)
(2.30532e-07 -0.000451512 0 -2.3942e-07 0 8.8874e-09)
(-1.73117e-07 -0.000451002 0 1.75107e-07 0 -1.99008e-09)
(-4.26297e-07 -0.000452408 0 4.23629e-07 0 2.66711e-09)
(-1.41827e-07 -0.000454046 0 1.96466e-07 0 -5.46387e-08)
(2.49985e-07 -0.000387287 0 -2.58053e-07 0 8.06815e-09)
(-1.84092e-07 -0.000386702 0 1.84922e-07 0 -8.29958e-10)
(-4.71634e-07 -0.000387817 0 4.70691e-07 0 9.43056e-10)
(-1.37676e-07 -0.000388857 0 1.89386e-07 0 -5.17101e-08)
(2.64537e-07 -0.000330067 0 -2.71945e-07 0 7.40821e-09)
(-1.90553e-07 -0.000329534 0 1.92584e-07 0 -2.03087e-09)
(-4.97844e-07 -0.000330297 0 4.95752e-07 0 2.0921e-09)
(-1.33972e-07 -0.000330805 0 1.84759e-07 0 -5.07876e-08)
(2.77623e-07 -0.00027944 0 -2.87186e-07 0 9.56267e-09)
(-1.90573e-07 -0.000279018 0 1.9057e-07 0 3.85675e-12)
(-5.13188e-07 -0.000279508 0 5.12612e-07 0 5.75512e-10)
(-1.21808e-07 -0.000279517 0 1.67881e-07 0 -4.60729e-08)
(2.80532e-07 -0.000235054 0 -2.86689e-07 0 6.1572e-09)
(-1.92654e-07 -0.00023476 0 1.94963e-07 0 -2.30943e-09)
(-5.15572e-07 -0.000235046 0 5.15916e-07 0 -3.44452e-10)
(-1.09642e-07 -0.000234545 0 1.55521e-07 0 -4.58782e-08)
(2.85527e-07 -0.000196422 0 -2.95151e-07 0 9.62441e-09)
(-1.9193e-07 -0.000196269 0 1.94109e-07 0 -2.17833e-09)
(-5.03709e-07 -0.000196448 0 5.02477e-07 0 1.23242e-09)
(-8.23483e-08 -0.000195375 0 1.21431e-07 0 -3.90827e-08)
(2.78228e-07 -0.000163051 0 -2.86756e-07 0 8.52833e-09)
(-1.90061e-07 -0.000163058 0 1.89559e-07 0 5.01798e-10)
(-4.88085e-07 -0.000163264 0 4.92555e-07 0 -4.47011e-09)
(-5.34916e-08 -0.000161558 0 9.54378e-08 0 -4.19463e-08)
(2.65452e-07 -0.000134566 0 -2.73474e-07 0 8.02168e-09)
(-1.9737e-07 -0.000134545 0 1.98672e-07 0 -1.30188e-09)
(-4.46663e-07 -0.000134905 0 4.40505e-07 0 6.15763e-09)
(-9.38205e-09 -0.000132536 0 5.30928e-08 0 -4.37108e-08)
(2.43336e-07 -0.000110443 0 -2.48112e-07 0 4.77649e-09)
(-2.0846e-07 -0.000110382 0 2.1593e-07 0 -7.47001e-09)
(-4.21476e-07 -0.000111123 0 4.28592e-07 0 -7.11597e-09)
(7.37643e-08 -0.000107964 0 -5.11665e-08 0 -2.25978e-08)
(2.12957e-07 -9.02416e-05 0 -2.15265e-07 0 2.30748e-09)
(-2.14905e-07 -8.99491e-05 0 2.12077e-07 0 2.8281e-09)
(-3.66386e-07 -9.11402e-05 0 3.6308e-07 0 3.30608e-09)
(1.39439e-07 -8.71908e-05 0 -8.64534e-08 0 -5.29857e-08)
(1.7386e-07 -7.41171e-05 0 -1.72136e-07 0 -1.72351e-09)
(-2.20237e-07 -7.3379e-05 0 2.10663e-07 0 9.57377e-09)
(-3.21095e-07 -7.46645e-05 0 3.22484e-07 0 -1.38956e-09)
(2.94231e-07 -7.00614e-05 0 -2.78542e-07 0 -1.56886e-08)
(1.08007e-07 -6.00014e-05 0 -1.0193e-07 0 -6.07775e-09)
(-2.17029e-07 -5.90644e-05 0 1.99309e-07 0 1.77194e-08)
(-2.92562e-07 -5.92228e-05 0 3.28893e-07 0 -3.63302e-08)
(4.61975e-07 -5.54913e-05 0 -4.5559e-07 0 -6.38513e-09)
(9.20196e-08 -4.71717e-05 0 -9.46762e-08 0 2.65654e-09)
(-1.75323e-07 -4.65025e-05 0 1.48189e-07 0 2.71337e-08)
(-2.16162e-07 -4.57152e-05 0 2.34735e-07 0 -1.85732e-08)
(4.96508e-07 -4.35097e-05 0 -4.83315e-07 0 -1.31927e-08)
(7.68369e-08 -3.68861e-05 0 -8.15886e-08 0 4.75166e-09)
(-1.75559e-07 -3.65205e-05 0 1.66439e-07 0 9.11974e-09)
(-1.78573e-07 -3.58123e-05 0 2.03841e-07 0 -2.52682e-08)
(5.45757e-07 -3.42738e-05 0 -5.45277e-07 0 -4.79995e-10)
(5.90656e-08 -2.86208e-05 0 -5.75461e-08 0 -1.51947e-09)
(-1.55293e-07 -2.84415e-05 0 1.4555e-07 0 9.74254e-09)
(-1.46387e-07 -2.77135e-05 0 1.73325e-07 0 -2.69382e-08)
(5.6066e-07 -2.6706e-05 0 -5.58636e-07 0 -2.02371e-09)
(5.48879e-08 -2.20275e-05 0 -5.94523e-08 0 4.56436e-09)
(-1.35844e-07 -2.20369e-05 0 1.19029e-07 0 1.68148e-08)
(-1.09291e-07 -2.13573e-05 0 1.26503e-07 0 -1.72119e-08)
(5.63332e-07 -2.07333e-05 0 -5.51372e-07 0 -1.19597e-08)
(4.23934e-08 -1.67916e-05 0 -4.27048e-08 0 3.11336e-10)
(-1.32335e-07 -1.68955e-05 0 1.23847e-07 0 8.48766e-09)
(-9.84336e-08 -1.62942e-05 0 1.24315e-07 0 -2.58817e-08)
(5.76208e-07 -1.59542e-05 0 -5.7436e-07 0 -1.84709e-09)
(3.88999e-08 -1.27212e-05 0 -4.44321e-08 0 5.53213e-09)
(-1.1855e-07 -1.28984e-05 0 1.0301e-07 0 1.55405e-08)
(-7.92886e-08 -1.24002e-05 0 1.01403e-07 0 -2.21146e-08)
(5.76326e-07 -1.21951e-05 0 -5.73621e-07 0 -2.70498e-09)
(2.79891e-08 -9.50558e-06 0 -2.88812e-08 0 8.92093e-10)
(-1.1777e-07 -9.72295e-06 0 1.07508e-07 0 1.02623e-08)
(-6.92264e-08 -9.38768e-06 0 9.29382e-08 0 -2.37118e-08)
(5.70996e-07 -9.30179e-06 0 -5.65917e-07 0 -5.07912e-09)
(2.4811e-08 -7.0634e-06 0 -2.90195e-08 0 4.20846e-09)
(-1.11997e-07 -7.33024e-06 0 9.60206e-08 0 1.59759e-08)
(-6.01002e-08 -7.11063e-06 0 8.073e-08 0 -2.06298e-08)
(5.72824e-07 -7.06345e-06 0 -5.72532e-07 0 -2.91954e-10)
(1.19529e-08 -5.09734e-06 0 -8.61614e-09 0 -3.33674e-09)
(-1.21513e-07 -5.44157e-06 0 1.15706e-07 0 5.80713e-09)
(-5.72609e-08 -5.38658e-06 0 8.16242e-08 0 -2.43632e-08)
(5.71661e-07 -5.37405e-06 0 -5.77316e-07 0 5.65474e-09)
(1.76113e-08 -3.64597e-06 0 -2.4954e-08 0 7.34264e-09)
(-1.20807e-07 -4.06861e-06 0 1.06379e-07 0 1.44277e-08)
(-6.68409e-08 -4.08858e-06 0 1.00252e-07 0 -3.34107e-08)
(5.39268e-07 -4.13696e-06 0 -5.20013e-07 0 -1.92549e-08)
(2.23152e-08 -2.45674e-06 0 -3.89473e-08 0 1.66321e-08)
(-1.13724e-07 -2.94645e-06 0 8.78657e-08 0 2.58579e-08)
(-3.13799e-08 -3.11559e-06 0 3.14257e-08 0 -4.58206e-11)
(5.51634e-07 -3.27424e-06 0 -5.59511e-07 0 7.87666e-09)
(1.88478e-09 -1.6896e-06 0 -1.72847e-09 0 -1.56315e-10)
(-1.52919e-07 -2.18134e-06 0 1.51189e-07 0 1.73005e-09)
(-6.90045e-08 -2.35779e-06 0 9.75728e-08 0 -2.85683e-08)
(5.24437e-07 -2.67671e-06 0 -5.24089e-07 0 -3.47807e-10)
(7.72643e-09 -1.13165e-06 0 -1.5408e-08 0 7.68161e-09)
(-1.36108e-07 -1.52035e-06 0 1.13021e-07 0 2.30864e-08)
(-7.03119e-08 -1.74324e-06 0 9.67099e-08 0 -2.6398e-08)
(4.77611e-07 -2.31726e-06 0 -4.64978e-07 0 -1.26326e-08)
(-1.43431e-08 -1.19263e-06 0 3.01993e-08 0 -1.58562e-08)
(-1.61343e-07 -1.04421e-06 0 1.50397e-07 0 1.09465e-08)
(-6.3452e-08 -9.21092e-07 0 6.39406e-08 0 -4.88655e-10)
(4.85869e-07 -2.49267e-06 0 -5.29148e-07 0 4.32789e-08)
(2.40809e-09 -1.01061e-06 0 1.48006e-08 0 -1.72087e-08)
(-1.52632e-07 -7.44337e-07 0 1.57934e-07 0 -5.30196e-09)
(-1.50474e-07 -7.69754e-07 0 2.12821e-07 0 -6.23469e-08)
(3.41584e-07 -2.80903e-06 0 -3.2168e-07 0 -1.99034e-08)
(3.29319e-08 -7.61566e-07 0 -3.69341e-08 0 4.00222e-09)
(-1.38105e-07 -1.00939e-06 0 1.14901e-07 0 2.3204e-08)
(-1.33275e-07 -1.54281e-06 0 1.38895e-07 0 -5.62005e-09)
(3.06701e-07 -2.87744e-06 0 -3.0314e-07 0 -3.56042e-09)
(3.69189e-08 -1.32462e-06 0 -4.67041e-08 0 9.78514e-09)
(-1.54009e-07 -1.69862e-06 0 1.37605e-07 0 1.64034e-08)
(-1.54308e-07 -2.17992e-06 0 1.62488e-07 0 -8.18013e-09)
(2.78661e-07 -3.04156e-06 0 -2.83214e-07 0 4.55232e-09)
(3.49431e-08 -2.02487e-06 0 -4.56581e-08 0 1.0715e-08)
(-1.80901e-07 -2.40036e-06 0 1.75029e-07 0 5.87209e-09)
(-1.98418e-07 -2.88791e-06 0 2.28708e-07 0 -3.02899e-08)
(2.2645e-07 -3.46336e-06 0 -2.00599e-07 0 -2.58512e-08)
(3.30415e-08 -3.10887e-06 0 -4.73989e-08 0 1.43574e-08)
(-1.69679e-07 -3.41477e-06 0 1.43245e-07 0 2.64337e-08)
(-1.7066e-07 -3.77003e-06 0 1.64199e-07 0 6.46147e-09)
(2.44619e-07 -4.16786e-06 0 -2.54189e-07 0 9.57012e-09)
(1.16259e-08 -4.40938e-06 0 -7.99712e-09 0 -3.62875e-09)
(-2.03183e-07 -4.63742e-06 0 2.00695e-07 0 2.48858e-09)
(-2.13959e-07 -4.9095e-06 0 2.39194e-07 0 -2.52347e-08)
(2.20817e-07 -5.24658e-06 0 -2.17621e-07 0 -3.19644e-09)
(1.62117e-08 -6.13521e-06 0 -2.29706e-08 0 6.75899e-09)
(-1.97038e-07 -6.32435e-06 0 1.84451e-07 0 1.25864e-08)
(-2.12014e-07 -6.42297e-06 0 2.31221e-07 0 -1.92067e-08)
(2.11463e-07 -6.69582e-06 0 -2.09462e-07 0 -2.00082e-09)
(7.35122e-09 -8.2848e-06 0 -1.1435e-08 0 4.08379e-09)
(-2.03481e-07 -8.46863e-06 0 1.94967e-07 0 8.51321e-09)
(-2.10989e-07 -8.38966e-06 0 2.25603e-07 0 -1.4614e-08)
(2.04152e-07 -8.66319e-06 0 -2.03656e-07 0 -4.95744e-10)
(-1.63287e-09 -1.10391e-05 0 -3.15674e-09 0 4.78961e-09)
(-1.95986e-07 -1.12425e-05 0 1.8211e-07 0 1.38763e-08)
(-2.11818e-07 -1.09452e-05 0 2.2918e-07 0 -1.73616e-08)
(1.90067e-07 -1.1202e-05 0 -1.87695e-07 0 -2.37209e-09)
(-5.12168e-09 -1.45161e-05 0 -6.66948e-09 0 1.17912e-08)
(-1.89493e-07 -1.47832e-05 0 1.7351e-07 0 1.59827e-08)
(-1.97594e-07 -1.42027e-05 0 2.05113e-07 0 -7.51904e-09)
(1.72864e-07 -1.44862e-05 0 -1.66725e-07 0 -6.13875e-09)
(-3.53815e-08 -1.88792e-05 0 3.75972e-08 0 -2.21571e-09)
(-1.95198e-07 -1.92215e-05 0 1.94318e-07 0 8.80146e-10)
(-2.04794e-07 -1.83616e-05 0 2.30079e-07 0 -2.52848e-08)
(1.57122e-07 -1.86492e-05 0 -1.57441e-07 0 3.18954e-10)
(-4.83851e-08 -2.43676e-05 0 4.8237e-08 0 1.481e-10)
(-1.75575e-07 -2.48669e-05 0 1.66393e-07 0 9.18211e-09)
(-1.88091e-07 -2.36278e-05 0 2.10339e-07 0 -2.22476e-08)
(1.49606e-07 -2.38832e-05 0 -1.67907e-07 0 1.83008e-08)
(-6.96059e-08 -3.11041e-05 0 6.64439e-08 0 3.16199e-09)
(-1.59421e-07 -3.183e-05 0 1.50848e-07 0 8.57288e-09)
(-1.5205e-07 -3.02874e-05 0 1.62633e-07 0 -1.05829e-08)
(8.9727e-08 -3.03944e-05 0 -8.50869e-08 0 -4.6401e-09)
(-8.13109e-08 -3.93974e-05 0 6.91105e-08 0 1.22004e-08)
(-1.43627e-07 -4.05701e-05 0 1.3326e-07 0 1.03677e-08)
(-1.40772e-07 -3.86021e-05 0 1.68901e-07 0 -2.81287e-08)
(6.24656e-08 -3.83716e-05 0 -6.94197e-08 0 6.95412e-09)
(-1.10013e-07 -4.87684e-05 0 9.21858e-08 0 1.78274e-08)
(-1.32225e-07 -5.13028e-05 0 1.2643e-07 0 5.79487e-09)
(-6.2045e-08 -4.852e-05 0 6.12899e-08 0 7.55101e-10)
(1.46255e-09 -4.76945e-05 0 7.67119e-09 0 -9.13375e-09)
(-1.60802e-07 -6.08317e-05 0 1.37481e-07 0 2.33216e-08)
(-1.14859e-07 -6.37338e-05 0 8.7542e-08 0 2.73167e-08)
(2.23905e-08 -6.06793e-05 0 -3.16307e-08 0 9.24021e-09)
(-9.12389e-08 -5.98743e-05 0 1.3505e-07 0 -4.38107e-08)
(-2.49391e-07 -7.66163e-05 0 2.5996e-07 0 -1.05695e-08)
(-1.56044e-07 -7.83533e-05 0 1.82611e-07 0 -2.65665e-08)
(5.62245e-08 -7.59095e-05 0 -4.11364e-08 0 -1.50881e-08)
(-9.98358e-08 -7.57247e-05 0 8.8622e-08 0 1.12139e-08)
(-2.73926e-07 -9.49441e-05 0 2.7589e-07 0 -1.96381e-09)
(-1.02969e-07 -9.59565e-05 0 9.07703e-08 0 1.21987e-08)
(1.23505e-07 -9.42809e-05 0 -1.4076e-07 0 1.72547e-08)
(-1.75904e-07 -9.44765e-05 0 1.89466e-07 0 -1.35624e-08)
(-3.12128e-07 -0.000116415 0 3.25174e-07 0 -1.30459e-08)
(-1.17658e-07 -0.000117011 0 1.31462e-07 0 -1.38039e-08)
(1.21376e-07 -0.000115796 0 -1.16697e-07 0 -4.67902e-09)
(-2.0259e-07 -0.000116179 0 2.01029e-07 0 1.56148e-09)
(-3.19369e-07 -0.000141451 0 3.22862e-07 0 -3.49314e-09)
(-9.7436e-08 -0.000141792 0 1.03703e-07 0 -6.26709e-09)
(1.42944e-07 -0.000140941 0 -1.46599e-07 0 3.65531e-09)
(-2.26818e-07 -0.00014136 0 2.21175e-07 0 5.64311e-09)
(-3.36044e-07 -0.000170506 0 3.38667e-07 0 -2.62312e-09)
(-7.33705e-08 -0.000170756 0 6.33491e-08 0 1.00214e-08)
(1.58901e-07 -0.000170042 0 -1.72111e-07 0 1.32098e-08)
(-2.67912e-07 -0.000170395 0 2.83707e-07 0 -1.57952e-08)
(-3.43749e-07 -0.000204033 0 3.40768e-07 0 2.98036e-09)
(-8.98851e-08 -0.000204238 0 1.07375e-07 0 -1.74896e-08)
(1.64307e-07 -0.000203634 0 -1.72165e-07 0 7.85774e-09)
(-2.71646e-07 -0.000203895 0 2.80222e-07 0 -8.57618e-09)
(-3.72447e-07 -0.000242462 0 3.80497e-07 0 -8.04973e-09)
(-4.07156e-08 -0.00024269 0 1.47177e-08 0 2.59979e-08)
(1.69399e-07 -0.000242031 0 -1.76643e-07 0 7.24416e-09)
(-2.71721e-07 -0.000242231 0 2.77151e-07 0 -5.43029e-09)
(-3.81789e-07 -0.000286126 0 3.82731e-07 0 -9.41763e-10)
(-1.00028e-07 -0.000286498 0 1.45257e-07 0 -4.52285e-08)
(1.76526e-07 -0.000285822 0 -1.76371e-07 0 -1.55915e-10)
(-2.75645e-07 -0.000285986 0 2.81838e-07 0 -6.19301e-09)
(-4.0141e-07 -0.000335367 0 3.96792e-07 0 4.61798e-09)
(8.00006e-09 -0.000335896 0 -6.93913e-08 0 6.13913e-08)
(2.12355e-07 -0.000335174 0 -2.40701e-07 0 2.83464e-08)
(-2.71679e-07 -0.00033534 0 2.78654e-07 0 -6.97506e-09)
(-4.39642e-07 -0.000390442 0 4.5172e-07 0 -1.20787e-08)
(-1.0817e-07 -0.000391299 0 1.71135e-07 0 -6.29642e-08)
(1.90983e-07 -0.000390573 0 -1.82004e-07 0 -8.97866e-09)
(-2.68241e-07 -0.00039084 0 2.63216e-07 0 5.02483e-09)
(-4.69184e-07 -0.000451623 0 4.79243e-07 0 -1.00588e-08)
(-4.18952e-08 -0.000452723 0 2.89906e-08 0 1.29046e-08)
(1.90028e-07 -0.000452194 0 -1.76245e-07 0 -1.37832e-08)
(-2.80934e-07 -0.000452784 0 2.86751e-07 0 -5.81635e-09)
(-4.65636e-07 -0.000518921 0 4.56536e-07 0 9.0998e-09)
(-3.8161e-08 -0.000520447 0 1.52171e-08 0 2.29439e-08)
(2.81814e-07 -0.00052051 0 -3.61145e-07 0 7.93312e-08)
(-2.74126e-07 -0.000522 0 2.26865e-07 0 4.72613e-08)
(-5.10852e-07 -0.000595017 0 5.25124e-07 0 -1.42721e-08)
(-1.30212e-07 -0.000597397 0 1.55481e-07 0 -2.52688e-08)
(1.67201e-07 -0.000596813 0 -1.78079e-07 0 1.08786e-08)
(-1.77524e-07 -0.000597978 0 -1.95712e-09 0 1.79481e-07)
(-4.54951e-07 -0.000931826 0 3.98694e-07 0 5.62574e-08)
(-2.31923e-08 -0.000934875 0 -7.15978e-08 0 9.47901e-08)
(1.8268e-07 -0.000934585 0 -1.77977e-07 0 -4.70235e-09)
(-3.70036e-07 -0.000933685 0 2.95749e-07 0 7.42865e-08)
(-9.95104e-07 -0.00354633 0 1.89919e-06 0 -9.04085e-07)
(1.76793e-07 -0.00366582 0 4.18798e-07 0 -5.95591e-07)
(4.93141e-07 -0.00362486 0 -6.36938e-07 0 1.43797e-07)
(-3.5562e-07 -0.00364953 0 5.36373e-07 0 -1.80753e-07)
(-3.39963e-06 -0.0057589 0 3.34096e-06 0 5.86723e-08)
(-1.27783e-06 -0.00584591 0 7.59174e-07 0 5.18658e-07)
(5.90214e-07 -0.00580786 0 -3.75e-07 0 -2.15214e-07)
(1.42114e-08 -0.00582105 0 -1.91055e-07 0 1.76844e-07)
(-2.10124e-06 -0.00528696 0 1.39314e-06 0 7.08103e-07)
(-7.81561e-07 -0.00523356 0 7.04027e-07 0 7.7534e-08)
(1.35364e-06 -0.00523885 0 -1.52893e-06 0 1.75293e-07)
(1.13792e-07 -0.00522048 0 1.66092e-08 0 -1.30401e-07)
(-2.56378e-06 -0.00458343 0 2.83349e-06 0 -2.69706e-07)
(-3.19384e-07 -0.00454107 0 4.47044e-07 0 -1.2766e-07)
(1.19415e-06 -0.00455314 0 -1.14642e-06 0 -4.77296e-08)
(4.43909e-07 -0.00453967 0 -4.87381e-07 0 4.34721e-08)
(-1.72649e-06 -0.00394852 0 1.67807e-06 0 4.84149e-08)
(2.66234e-07 -0.00391818 0 -3.80509e-07 0 1.14275e-07)
(1.22559e-06 -0.00393214 0 -1.22626e-06 0 6.70507e-10)
(4.94739e-07 -0.00392413 0 -5.05049e-07 0 1.03101e-08)
(-1.36201e-06 -0.00337992 0 1.30922e-06 0 5.27902e-08)
(2.82374e-07 -0.00335843 0 -2.08888e-07 0 -7.34857e-08)
(1.05883e-06 -0.00337342 0 -1.07467e-06 0 1.5847e-08)
(3.20196e-07 -0.00336987 0 -2.52862e-07 0 -6.73337e-08)
(-1.17238e-06 -0.00287646 0 1.27606e-06 0 -1.03686e-07)
(3.97603e-07 -0.00286249 0 -4.25463e-07 0 2.78606e-08)
(8.29004e-07 -0.0028751 0 -8.15339e-07 0 -1.36644e-08)
(3.19081e-07 -0.00287473 0 -3.54203e-07 0 3.51221e-08)
(-6.37078e-07 -0.00243411 0 4.72192e-07 0 1.64887e-07)
(4.3593e-07 -0.00242453 0 -4.69226e-07 0 3.32958e-08)
(6.91693e-07 -0.00243438 0 -7.50291e-07 0 5.85979e-08)
(5.04247e-08 -0.00243665 0 5.22386e-09 0 -5.56485e-08)
(-7.21626e-07 -0.00204568 0 8.893e-07 0 -1.67674e-07)
(3.4247e-07 -0.00203904 0 -3.23163e-07 0 -1.93069e-08)
(3.60382e-07 -0.00204865 0 -2.84145e-07 0 -7.62366e-08)
(-4.72309e-08 -0.00205184 0 3.24476e-08 0 1.47834e-08)
(-1.83796e-07 -0.00170853 0 4.32989e-08 0 1.40497e-07)
(2.94966e-07 -0.0017037 0 -2.85335e-07 0 -9.63114e-09)
(3.18577e-07 -0.00171361 0 -4.32833e-07 0 1.14256e-07)
(-1.87741e-07 -0.00171598 0 2.25742e-07 0 -3.80008e-08)
(-2.86143e-07 -0.00141831 0 4.23555e-07 0 -1.37412e-07)