/*--------------------------------*- C++ -*----------------------------------*\
  =========                 |
  \\      /  F ield         | OpenFOAM: The Open Source CFD Toolbox
   \\    /   O peration     | Website:  https://openfoam.org
    \\  /    A nd           | Version:  dev
     \\/     M anipulation  |

   OpenFOAM for Windows 20.09 (v1)
   Built by CFD Support, www.cfdsupport.com (based on Symscape).
\*---------------------------------------------------------------------------*/
FoamFile
{
    version     2.0;
    format      ascii;
    class       volScalarField;
    location    "4";
    object      epsilon;
}
// * * * * * * * * * * * * * * * * * * * * * * * * * * * * * * * * * * * * * //

dimensions      [0 2 -3 0 0 0 0];

internalField   nonuniform List<scalar> 
960
(
1.73748e-12
1.73748e-12
1.73748e-12
1.73748e-12
2.99643e-13
2.99641e-13
2.99641e-13
2.99641e-13
1.01972e-13
1.0197e-13
1.01971e-13
1.01971e-13
4.79212e-14
4.79202e-14
4.79205e-14
4.79206e-14
2.70291e-14
2.70284e-14
2.70287e-14
2.70288e-14
1.71881e-14
1.71876e-14
1.71878e-14
1.71879e-14
1.18448e-14
1.18444e-14
1.18446e-14
1.18448e-14
8.64008e-15
8.63972e-15
8.63991e-15
8.6401e-15
6.57352e-15
6.57319e-15
6.57339e-15
6.57358e-15
5.16582e-15
5.16551e-15
5.16572e-15
5.16589e-15
4.165e-15
4.16472e-15
4.16493e-15
4.16509e-15
3.42868e-15
3.42842e-15
3.42864e-15
3.42878e-15
2.87159e-15
2.87135e-15
2.87158e-15
2.8717e-15
2.44022e-15
2.44001e-15
2.44023e-15
2.44034e-15
2.09961e-15
2.09943e-15
2.09965e-15
2.09974e-15
1.82611e-15
1.82594e-15
1.82616e-15
1.82624e-15
1.6034e-15
1.60323e-15
1.60344e-15
1.60352e-15
1.41983e-15
1.41966e-15
1.41987e-15
1.41995e-15
1.26692e-15
1.26676e-15
1.26696e-15
1.26703e-15
1.13839e-15
1.13824e-15
1.13843e-15
1.1385e-15
1.02951e-15
1.02937e-15
1.02955e-15
1.02961e-15
9.36659e-16
9.36517e-16
9.36689e-16
9.3675e-16
8.57017e-16
8.56882e-16
8.57042e-16
8.571e-16
7.88382e-16
7.88252e-16
7.88402e-16
7.88456e-16
7.29001e-16
7.28876e-16
7.29013e-16
7.29064e-16
6.77464e-16
6.77344e-16
6.7747e-16
6.77518e-16
6.32631e-16
6.32517e-16
6.3263e-16
6.32675e-16
5.93569e-16
5.9346e-16
5.9356e-16
5.93603e-16
5.59506e-16
5.59403e-16
5.59491e-16
5.59531e-16
5.29804e-16
5.29706e-16
5.29781e-16
5.29819e-16
5.02963e-16
5.02864e-16
5.02931e-16
5.02967e-16
4.79063e-16
4.78962e-16
4.7902e-16
4.79057e-16
4.5815e-16
4.58046e-16
4.58096e-16
4.58133e-16
4.39896e-16
4.3979e-16
4.39831e-16
4.39869e-16
4.24027e-16
4.23917e-16
4.23951e-16
4.23989e-16
4.10305e-16
4.10192e-16
4.10218e-16
4.10256e-16
3.98529e-16
3.98414e-16
3.98431e-16
3.98471e-16
3.8853e-16
3.88411e-16
3.8842e-16
3.88462e-16
3.80162e-16
3.8004e-16
3.8004e-16
3.80084e-16
3.73304e-16
3.73179e-16
3.7317e-16
3.73216e-16
3.67856e-16
3.67727e-16
3.6771e-16
3.67757e-16
3.63736e-16
3.63604e-16
3.63578e-16
3.63626e-16
3.60881e-16
3.60746e-16
3.6071e-16
3.6076e-16
3.59244e-16
3.59106e-16
3.59059e-16
3.59111e-16
3.58794e-16
3.58655e-16
3.58595e-16
3.58648e-16
3.58014e-16
3.57877e-16
3.578e-16
3.57852e-16
3.57613e-16
3.57479e-16
3.57384e-16
3.57434e-16
3.58431e-16
3.58302e-16
3.58187e-16
3.58233e-16
3.60521e-16
3.60399e-16
3.6026e-16
3.60302e-16
3.63954e-16
3.63842e-16
3.63677e-16
3.63713e-16
3.68828e-16
3.68729e-16
3.68535e-16
3.68562e-16
3.83105e-16
3.83508e-16
3.83246e-16
3.83384e-16
4.09198e-16
4.09701e-16
4.09385e-16
4.09533e-16
4.40999e-16
4.41624e-16
4.41239e-16
4.41394e-16
4.79508e-16
4.80283e-16
4.7981e-16
4.79971e-16
5.25989e-16
5.26958e-16
5.26369e-16
5.26533e-16
5.82045e-16
5.83269e-16
5.82527e-16
5.82697e-16
6.49714e-16
6.51282e-16
6.50336e-16
6.50521e-16
7.31598e-16
7.33644e-16
7.32423e-16
7.32644e-16
8.31032e-16
8.33757e-16
8.32165e-16
8.32461e-16
1.73748e-12
1.73748e-12
1.73748e-12
1.73748e-12
2.99642e-13
2.99641e-13
2.99641e-13
2.99641e-13
1.01971e-13
1.01971e-13
1.01971e-13
1.0197e-13
4.79207e-14
4.79204e-14
4.79203e-14
4.79203e-14
2.70288e-14
2.70286e-14
2.70285e-14
2.70285e-14
1.71879e-14
1.71877e-14
1.71876e-14
1.71876e-14
1.18447e-14
1.18445e-14
1.18444e-14
1.18444e-14
8.63999e-15
8.63979e-15
8.63969e-15
8.63978e-15
6.57346e-15
6.57326e-15
6.57316e-15
6.57326e-15
5.16578e-15
5.16559e-15
5.16548e-15
5.1656e-15
4.16499e-15
4.1648e-15
4.1647e-15
4.16482e-15
3.42869e-15
3.42851e-15
3.4284e-15
3.42853e-15
2.87162e-15
2.87145e-15
2.87135e-15
2.87148e-15
2.44026e-15
2.44011e-15
2.44001e-15
2.44015e-15
2.09967e-15
2.09953e-15
2.09944e-15
2.09959e-15
1.82618e-15
1.82605e-15
1.82596e-15
1.82611e-15
1.60346e-15
1.60333e-15
1.60325e-15
1.6034e-15
1.41989e-15
1.41976e-15
1.41969e-15
1.41984e-15
1.26698e-15
1.26686e-15
1.26679e-15
1.26693e-15
1.13845e-15
1.13833e-15
1.13827e-15
1.13841e-15
1.02956e-15
1.02946e-15
1.0294e-15
1.02954e-15
9.36703e-16
9.36605e-16
9.36558e-16
9.36685e-16
8.57055e-16
8.56965e-16
8.56923e-16
8.57043e-16
7.88414e-16
7.8833e-16
7.88294e-16
7.88406e-16
7.29025e-16
7.28948e-16
7.28917e-16
7.29021e-16
6.77481e-16
6.7741e-16
6.77385e-16
6.7748e-16
6.3264e-16
6.32576e-16
6.32555e-16
6.32641e-16
5.9357e-16
5.93512e-16
5.93496e-16
5.93572e-16
5.595e-16
5.59448e-16
5.59436e-16
5.59502e-16
5.2979e-16
5.29744e-16
5.29737e-16
5.29793e-16
5.0294e-16
5.02897e-16
5.02892e-16
5.02943e-16
4.7903e-16
4.78991e-16
4.78988e-16
4.79035e-16
4.58107e-16
4.5807e-16
4.5807e-16
4.58113e-16
4.39844e-16
4.3981e-16
4.39812e-16
4.39851e-16
4.23965e-16
4.23934e-16
4.23937e-16
4.23973e-16
4.10234e-16
4.10205e-16
4.10209e-16
4.10243e-16
3.98449e-16
3.98424e-16
3.98428e-16
3.9846e-16
3.8844e-16
3.88418e-16
3.88424e-16
3.88453e-16
3.80063e-16
3.80044e-16
3.8005e-16
3.80077e-16
3.73197e-16
3.73181e-16
3.73187e-16
3.73212e-16
3.67739e-16
3.67727e-16
3.67733e-16
3.67756e-16
3.63611e-16
3.63602e-16
3.63608e-16
3.63629e-16
3.60746e-16
3.60742e-16
3.60747e-16
3.60767e-16
3.591e-16
3.591e-16
3.59105e-16
3.59123e-16
3.58642e-16
3.58647e-16
3.5865e-16
3.58666e-16
3.57852e-16
3.57863e-16
3.57866e-16
3.57879e-16
3.57442e-16
3.5746e-16
3.57463e-16
3.57472e-16
3.5825e-16
3.58276e-16
3.58281e-16
3.58284e-16
3.60329e-16
3.60364e-16
3.60372e-16
3.60366e-16
3.6375e-16
3.63796e-16
3.63808e-16
3.63792e-16
3.68607e-16
3.68666e-16
3.68685e-16
3.68656e-16
3.83295e-16
3.83116e-16
3.83394e-16
3.83062e-16
4.0942e-16
4.09207e-16
4.09552e-16
4.09152e-16
4.41249e-16
4.40996e-16
4.41425e-16
4.40945e-16
4.79779e-16
4.79474e-16
4.80015e-16
4.79438e-16
5.26273e-16
5.259e-16
5.2659e-16
5.25895e-16
5.82337e-16
5.81867e-16
5.82756e-16
5.81917e-16
6.50019e-16
6.49406e-16
6.50562e-16
6.49545e-16
7.31944e-16
7.3112e-16
7.32626e-16
7.31383e-16
8.31499e-16
8.30355e-16
8.32323e-16
8.30789e-16
9.57744e-16
9.61735e-16
9.59732e-16
9.60268e-16
1.0752e-15
1.07869e-15
1.07678e-15
1.0772e-15
1.13044e-15
1.13105e-15
1.13021e-15
1.13015e-15
1.13127e-15
1.13021e-15
1.13035e-15
1.13024e-15
1.09422e-15
1.09244e-15
1.09323e-15
1.09335e-15
1.03376e-15
1.0318e-15
1.03294e-15
1.03335e-15
9.61122e-16
9.59216e-16
9.60486e-16
9.6113e-16
8.84269e-16
8.82502e-16
8.83747e-16
8.84558e-16
8.08447e-16
8.0683e-16
8.07987e-16
8.08873e-16
7.36857e-16
7.35372e-16
7.36398e-16
7.37285e-16
6.712e-16
6.6982e-16
6.7069e-16
6.71542e-16
6.12169e-16
6.10879e-16
6.11576e-16
6.12368e-16
5.60271e-16
5.59078e-16
5.59596e-16
5.60303e-16
5.15525e-16
5.14416e-16
5.14845e-16
5.15369e-16
4.77514e-16
4.76457e-16
4.76808e-16
4.77168e-16
4.45299e-16
4.44279e-16
4.44579e-16
4.44792e-16
4.1889e-16
4.17888e-16
4.18161e-16
4.18238e-16
3.97575e-16
3.96562e-16
3.96824e-16
3.96767e-16
3.83763e-16
3.83558e-16
3.83359e-16
3.8344e-16
3.84893e-16
3.84684e-16
3.84475e-16
3.84551e-16
3.87804e-16
3.87592e-16
3.87376e-16
3.87449e-16
3.9251e-16
3.92296e-16
3.92078e-16
3.92147e-16
3.99053e-16
3.98838e-16
3.98621e-16
3.98686e-16
4.07505e-16
4.07289e-16
4.07076e-16
4.07138e-16
4.17967e-16
4.17751e-16
4.17545e-16
4.17603e-16
4.30575e-16
4.30359e-16
4.30162e-16
4.30217e-16
4.45498e-16
4.45282e-16
4.45096e-16
4.45148e-16
4.62946e-16
4.62731e-16
4.62559e-16
4.62607e-16
4.83176e-16
4.8296e-16
4.82804e-16
4.82847e-16
5.06494e-16
5.06277e-16
5.06137e-16
5.06176e-16
5.32432e-16
5.32229e-16
5.32105e-16
5.32141e-16
5.61783e-16
5.61594e-16
5.61493e-16
5.61522e-16
5.95561e-16
5.95386e-16
5.95308e-16
5.9533e-16
6.34402e-16
6.34241e-16
6.34185e-16
6.34201e-16
6.79074e-16
6.78927e-16
6.78891e-16
6.78901e-16
7.30509e-16
7.30377e-16
7.3036e-16
7.30364e-16
7.89849e-16
7.89734e-16
7.89734e-16
7.89731e-16
8.58508e-16
8.5841e-16
8.58425e-16
8.58415e-16
9.38246e-16
9.38166e-16
9.38191e-16
9.38177e-16
1.03128e-15
1.03122e-15
1.03125e-15
1.03123e-15
1.14044e-15
1.14039e-15
1.14043e-15
1.14041e-15
1.26935e-15
1.26933e-15
1.26937e-15
1.26935e-15
1.42278e-15
1.42277e-15
1.42282e-15
1.42279e-15
1.60702e-15
1.60703e-15
1.60708e-15
1.60705e-15
1.83056e-15
1.8306e-15
1.83065e-15
1.83061e-15
2.10552e-15
2.1056e-15
2.10564e-15
2.10559e-15
2.44795e-15
2.44805e-15
2.4481e-15
2.44803e-15
2.88137e-15
2.88151e-15
2.88155e-15
2.88146e-15
3.44073e-15
3.4409e-15
3.44094e-15
3.44083e-15
4.17949e-15
4.17968e-15
4.17972e-15
4.17959e-15
5.18279e-15
5.18301e-15
5.18303e-15
5.1829e-15
6.59283e-15
6.59307e-15
6.59307e-15
6.59295e-15
8.66128e-15
8.66154e-15
8.66152e-15
8.6614e-15
1.18671e-14
1.18673e-14
1.18673e-14
1.18672e-14
1.72101e-14
1.72104e-14
1.72104e-14
1.72103e-14
2.70494e-14
2.70497e-14
2.70496e-14
2.70495e-14
4.79381e-14
4.79384e-14
4.79383e-14
4.79382e-14
1.01982e-13
1.01983e-13
1.01982e-13
1.01982e-13
2.99645e-13
2.99645e-13
2.99645e-13
2.99645e-13
1.73748e-12
1.73748e-12
1.73748e-12
1.73748e-12
9.58995e-16
9.57171e-16
9.59742e-16
9.57608e-16
1.07597e-15
1.07425e-15
1.07686e-15
1.07503e-15
1.12963e-15
1.1292e-15
1.13076e-15
1.13006e-15
1.1304e-15
1.13068e-15
1.13127e-15
1.13105e-15
1.09395e-15
1.09445e-15
1.09439e-15
1.09431e-15
1.03417e-15
1.03458e-15
1.03419e-15
1.03408e-15
9.6197e-16
9.62156e-16
9.61696e-16
9.61564e-16
8.85277e-16
8.85223e-16
8.84837e-16
8.84738e-16
8.09378e-16
8.09178e-16
8.08938e-16
8.08841e-16
7.37581e-16
7.37286e-16
7.37223e-16
7.37085e-16
6.71681e-16
6.71319e-16
6.71418e-16
6.71206e-16
6.12451e-16
6.12008e-16
6.12252e-16
6.11928e-16
5.60413e-16
5.59882e-16
5.60246e-16
5.59762e-16
5.15563e-16
5.14937e-16
5.15416e-16
5.14739e-16
4.77476e-16
4.76747e-16
4.77346e-16
4.76629e-16
4.4524e-16
4.44393e-16
4.45119e-16
4.44319e-16
4.18852e-16
4.17868e-16
4.18747e-16
4.17809e-16
3.97567e-16
3.96414e-16
3.97496e-16
3.96356e-16
3.83373e-16
3.83278e-16
3.83283e-16
3.83316e-16
3.84488e-16
3.84401e-16
3.84406e-16
3.84434e-16
3.87387e-16
3.8731e-16
3.87315e-16
3.87338e-16
3.92084e-16
3.92016e-16
3.92023e-16
3.92042e-16
3.98622e-16
3.98563e-16
3.98572e-16
3.98588e-16
4.07071e-16
4.07021e-16
4.07032e-16
4.07046e-16
4.17534e-16
4.17492e-16
4.17504e-16
4.17518e-16
4.30145e-16
4.3011e-16
4.30125e-16
4.30139e-16
4.45075e-16
4.45047e-16
4.45063e-16
4.45078e-16
4.62532e-16
4.62511e-16
4.62528e-16
4.62545e-16
4.82773e-16
4.82757e-16
4.82775e-16
4.82794e-16
5.06103e-16
5.06092e-16
5.0611e-16
5.06132e-16
5.32069e-16
5.3206e-16
5.32082e-16
5.32104e-16
5.61449e-16
5.61448e-16
5.61469e-16
5.61493e-16
5.95256e-16
5.95265e-16
5.95284e-16
5.9531e-16
6.34129e-16
6.34141e-16
6.34161e-16
6.3419e-16
6.78832e-16
6.78847e-16
6.78869e-16
6.78899e-16
7.30298e-16
7.30314e-16
7.30339e-16
7.30371e-16
7.89669e-16
7.89687e-16
7.89714e-16
7.89747e-16
8.58358e-16
8.58377e-16
8.58406e-16
8.58441e-16
9.38126e-16
9.38145e-16
9.38176e-16
9.38212e-16
1.03119e-15
1.03121e-15
1.03124e-15
1.03128e-15
1.14037e-15
1.14039e-15
1.14043e-15
1.14047e-15
1.26932e-15
1.26933e-15
1.26937e-15
1.26941e-15
1.42278e-15
1.42279e-15
1.42283e-15
1.42287e-15
1.60705e-15
1.60705e-15
1.6071e-15
1.60714e-15
1.83062e-15
1.83062e-15
1.83068e-15
1.83071e-15
2.10561e-15
2.10562e-15
2.10568e-15
2.1057e-15
2.44806e-15
2.44809e-15
2.44815e-15
2.44815e-15
2.8815e-15
2.88154e-15
2.88161e-15
2.8816e-15
3.44088e-15
3.44093e-15
3.441e-15
3.44097e-15
4.17965e-15
4.17971e-15
4.17979e-15
4.17975e-15
5.18296e-15
5.18303e-15
5.18311e-15
5.18306e-15
6.593e-15
6.59308e-15
6.59315e-15
6.59309e-15
8.66145e-15
8.66152e-15
8.6616e-15
8.66153e-15
1.18672e-14
1.18673e-14
1.18674e-14
1.18673e-14
1.72103e-14
1.72104e-14
1.72104e-14
1.72104e-14
2.70495e-14
2.70496e-14
2.70497e-14
2.70496e-14
4.79382e-14
4.79383e-14
4.79383e-14
4.79384e-14
1.01982e-13
1.01983e-13
1.01982e-13
1.01983e-13
2.99645e-13
2.99645e-13
2.99645e-13
2.99645e-13
1.73748e-12
1.73748e-12
1.73748e-12
1.73748e-12
)
;

boundaryField
{
    topWall
    {
        type            epsilonWallFunction;
        value           uniform 1.73748e-12;
    }
    botWall
    {
        type            epsilonWallFunction;
        value           uniform 1.73748e-12;
    }
    inlet
    {
        type            cyclic;
    }
    outlet
    {
        type            cyclic;
    }
    fixWall
    {
        type            empty;
    }
}


// ************************************************************************* //
