/*--------------------------------*- C++ -*----------------------------------*\
  =========                 |
  \\      /  F ield         | OpenFOAM: The Open Source CFD Toolbox
   \\    /   O peration     | Website:  https://openfoam.org
    \\  /    A nd           | Version:  dev
     \\/     M anipulation  |

   OpenFOAM for Windows 20.09 (v1)
   Built by CFD Support, www.cfdsupport.com (based on Symscape).
\*---------------------------------------------------------------------------*/
FoamFile
{
    version     2.0;
    format      ascii;
    class       volVectorField;
    location    "4";
    object      gradp_rgh;
}
// * * * * * * * * * * * * * * * * * * * * * * * * * * * * * * * * * * * * * //

dimensions      [1 -2 -2 0 0 0 0];

internalField   nonuniform List<vector> 
960
(
(-1.25286 -1.4069 0)
(-1.16487 -0.205336 0)
(-1.2282 -0.0129434 0)
(-1.25069 -0.0169686 0)
(-1.25577 -1.24663 0)
(-1.14163 -0.201661 0)
(-1.22506 -0.0124478 0)
(-1.25074 -0.0161876 0)
(-1.25576 0.34543 0)
(-1.1443 0.0186494 0)
(-1.2251 0.00108207 0)
(-1.25072 0.00181688 0)
(-1.25583 0.365447 0)
(-1.14737 0.0203638 0)
(-1.22534 0.00133462 0)
(-1.25079 -0.000724548 0)
(-1.25556 0.354694 0)
(-1.15037 0.0147227 0)
(-1.22546 0.00158387 0)
(-1.25093 -0.00138768 0)
(-1.25558 0.343876 0)
(-1.15326 0.0209243 0)
(-1.22561 0.00187916 0)
(-1.25093 0.000768489 0)
(-1.2556 0.335438 0)
(-1.15607 0.0252201 0)
(-1.22579 0.00224155 0)
(-1.25094 0.000831525 0)
(-1.25561 0.327286 0)
(-1.15881 0.0285438 0)
(-1.22601 0.00262774 0)
(-1.25094 0.000920266 0)
(-1.25564 0.318923 0)
(-1.16148 0.0300842 0)
(-1.22625 0.0029705 0)
(-1.25095 0.00535231 0)
(-1.2557 0.311824 0)
(-1.16408 0.0333239 0)
(-1.22642 0.00325917 0)
(-1.25083 0.00387549 0)
(-1.25569 0.305991 0)
(-1.16662 0.0378507 0)
(-1.22674 0.00347591 0)
(-1.25085 -0.00104961 0)
(-1.25567 0.299122 0)
(-1.16912 0.0717968 0)
(-1.22707 0.00854332 0)
(-1.25086 0.0295771 0)
(-1.25541 0.296219 0)
(-1.17146 0.0989924 0)
(-1.22745 0.00673874 0)
(-1.25046 0.0657801 0)
(-1.25509 0.295238 0)
(-1.17394 0.0729145 0)
(-1.22763 0.00815007 0)
(-1.24995 1.29575 0)
(-1.25538 1.06068 0)
(-1.17625 0.392351 0)
(-1.20707 0.39092 0)
(-1.23755 0.589725 0)
(-1.2672 -0.288561 0)
(-1.18511 -0.148118 0)
(-1.22434 -0.337225 0)
(-1.25021 -0.663442 0)
(-1.23315 -1.07555 0)
(-1.17706 -0.491975 0)
(-1.21565 -0.718192 0)
(-1.23812 0.00125292 0)
(-1.23318 0.251085 0)
(-1.17915 0.0472133 0)
(-1.21612 0.0034398 0)
(-1.23833 -0.00608092 0)
(-1.23318 0.244704 0)
(-1.18119 0.0496101 0)
(-1.21654 0.00320866 0)
(-1.23838 -0.001621 0)
(-1.23321 0.238945 0)
(-1.18318 0.0518847 0)
(-1.21697 0.00348986 0)
(-1.23835 -0.00111248 0)
(-1.23323 0.233281 0)
(-1.18511 0.0552414 0)
(-1.21743 0.00314888 0)
(-1.23829 0.000824274 0)
(-1.23321 0.227994 0)
(-1.18701 0.0579285 0)
(-1.21788 0.00099492 0)
(-1.23827 -0.0018916 0)
(-1.23321 0.223588 0)
(-1.18889 0.0609433 0)
(-1.21842 0.00175152 0)
(-1.2382 -0.00316347 0)
(-1.23319 0.215861 0)
(-1.19071 0.0616504 0)
(-1.21895 0.00415483 0)
(-1.23817 0.000147024 0)
(-1.23321 0.209878 0)
(-1.19242 0.0632954 0)
(-1.21945 0.00479033 0)
(-1.23814 0.000783436 0)
(-1.2332 0.207187 0)
(-1.19413 0.0663638 0)
(-1.21999 0.0106447 0)
(-1.23811 0.0061693 0)
(-1.23335 0.202201 0)
(-1.1957 0.0674842 0)
(-1.22045 0.0111233 0)
(-1.23818 -0.00571549 0)
(-1.23334 0.198151 0)
(-1.19731 0.0693846 0)
(-1.22121 0.00809502 0)
(-1.23814 -0.0106747 0)
(-1.23351 0.640772 0)
(-1.19886 0.0994467 0)
(-1.22179 0.810194 0)
(-1.23815 0.814481 0)
(-1.25348 0.357454 0)
(-1.19449 0.393897 0)
(-1.20929 0.643482 0)
(-1.25144 0.12568 0)
(-1.24004 -0.0884637 0)
(-1.1941 -0.969327 0)
(-1.22626 -0.206863 0)
(-1.23796 -0.67921 0)
(-1.26205 0.20208 0)
(-1.19646 -1.25614 0)
(-1.20445 -0.0450685 0)
(-1.25204 0.015758 0)
(-1.26198 0.202033 0)
(-1.19822 0.0794767 0)
(-1.20506 0.00424106 0)
(-1.25223 0.0137309 0)
(-1.26196 0.193586 0)
(-1.19976 0.0788255 0)
(-1.20555 -0.00274198 0)
(-1.25237 0.0139321 0)
(-1.26196 0.192483 0)
(-1.20149 0.0849039 0)
(-1.20614 -0.00606065 0)
(-1.2523 0.0143891 0)
(-1.26198 0.189263 0)
(-1.20307 0.0866463 0)
(-1.20673 0.00296223 0)
(-1.25234 0.0149909 0)
(-1.26198 0.188721 0)
(-1.20459 0.0882893 0)
(-1.20733 0.00327671 0)
(-1.25246 0.0155228 0)
(-1.262 0.183672 0)
(-1.20616 0.0868333 0)
(-1.20794 0.00166462 0)
(-1.25253 0.014582 0)
(-1.26203 0.177065 0)
(-1.20763 0.0868866 0)
(-1.20854 0.0017211 0)
(-1.25259 0.0173353 0)
(-1.26206 0.175337 0)
(-1.20908 0.0889568 0)
(-1.2091 0.00562945 0)
(-1.25267 0.0179002 0)
(-1.26208 0.174835 0)
(-1.21046 0.0904646 0)
(-1.20972 0.00240417 0)
(-1.25277 0.0161867 0)
(-1.2621 0.173141 0)
(-1.21195 0.0923763 0)
(-1.21034 -3.01178e-05 0)
(-1.25271 0.0207572 0)
(-1.26212 0.174418 0)
(-1.21334 0.0923872 0)
(-1.21092 0.00428423 0)
(-1.25286 0.0395876 0)
(-1.26217 1.23361 0)
(-1.21479 0.671149 0)
(-1.21122 0.0434869 0)
(-1.25299 0.0757359 0)
(-1.26954 0.992363 0)
(-1.23318 0.638958 0)
(-1.22084 0.178494 0)
(-1.24368 0.345011 0)
(-1.25924 -0.0270005 0)
(-1.22835 -0.0372487 0)
(-1.21611 -0.382693 0)
(-1.25448 -0.97192 0)
(-1.26107 0.198796 0)
(-1.23911 -0.0302719 0)
(-1.23642 -0.514681 0)
(-1.24572 -1.26657 0)
(-1.26144 0.141775 0)
(-1.24024 0.0351459 0)
(-1.23672 0.0106024 0)
(-1.24632 0.00532443 0)
(-1.26191 0.161909 0)
(-1.24129 0.0537927 0)
(-1.23691 0.0108148 0)
(-1.24662 0.00613529 0)
(-1.26198 0.195454 0)
(-1.24276 0.0795612 0)
(-1.23751 0.0110954 0)
(-1.24668 0.00683413 0)
(-1.26205 0.188254 0)
(-1.24436 0.0825184 0)
(-1.23813 0.0124923 0)
(-1.24676 0.00676095 0)
(-1.2621 0.179683 0)
(-1.24569 0.0753959 0)
(-1.23878 0.0125609 0)
(-1.24684 0.00518783 0)
(-1.26229 0.1857 0)
(-1.24715 0.0744712 0)
(-1.2393 0.00970414 0)
(-1.24691 0.00585926 0)
(-1.26236 0.185403 0)
(-1.24863 0.0827722 0)
(-1.23992 0.0109699 0)
(-1.24695 0.00775872 0)
(-1.26241 0.185274 0)
(-1.25006 0.083315 0)
(-1.24055 0.0135423 0)
(-1.24704 0.00745944 0)
(-1.26249 0.180658 0)
(-1.25149 0.0921204 0)
(-1.24118 0.0312176 0)
(-1.24712 0.0342761 0)
(-1.2624 0.188264 0)
(-1.25255 0.0706914 0)
(-1.24151 0.0287235 0)
(-1.24736 0.0241067 0)
(-1.26283 0.180302 0)
(-1.25415 0.0582749 0)
(-1.24196 -0.00702059 0)
(-1.24727 -0.0107341 0)
(-1.26259 -26.7385 0)
(-1.25567 -42.6725 0)
(-1.24266 -39.6098 0)
(-1.24719 -46.2981 0)
(-1.54854 -2590.82 0)
(-1.46867 -2621.03 0)
(-1.30239 -2613.5 0)
(-1.24838 -2620.39 0)
(-1.24083 -0.0158919 0)
(-1.24004 -0.0301416 0)
(-1.27811 -0.0134433 0)
(-1.3444 -0.0305348 0)
(-1.24105 -0.0142108 0)
(-1.24 -0.0301793 0)
(-1.27812 -0.0129865 0)
(-1.36763 -0.0274682 0)
(-1.24107 -0.00174086 0)
(-1.24002 -0.0014469 0)
(-1.27806 -0.00211283 0)
(-1.36496 0.0221775 0)
(-1.24111 -0.0111337 0)
(-1.24001 -0.0111615 0)
(-1.27772 -0.00198879 0)
(-1.36183 0.00826231 0)
(-1.24124 -0.00702087 0)
(-1.23987 -0.0101294 0)
(-1.27774 -0.00187548 0)
(-1.35884 -0.000498427 0)
(-1.24125 0.00146354 0)
(-1.23992 -0.000772712 0)
(-1.27756 -0.00169785 0)
(-1.35589 0.0228776 0)
(-1.24127 0.00168496 0)
(-1.23992 -0.000808533 0)
(-1.27735 0.00177821 0)
(-1.35308 0.027019 0)
(-1.24128 0.00207063 0)
(-1.23992 -0.000841473 0)
(-1.2771 0.00225692 0)
(-1.35033 0.0309274 0)
(-1.2413 0.00948579 0)
(-1.23992 0.000472904 0)
(-1.27682 0.00344371 0)
(-1.34766 0.0353101 0)
(-1.24136 0.00897091 0)
(-1.24002 -0.00033877 0)
(-1.27652 0.00388728 0)
(-1.34507 0.0365831 0)
(-1.24137 0.001565 0)
(-1.24 -0.00349844 0)
(-1.2762 0.00159623 0)
(-1.34253 0.0362053 0)
(-1.2414 0.0319732 0)
(-1.24002 -0.000572708 0)
(-1.27585 0.0019673 0)
(-1.34 0.0550556 0)
(-1.24187 0.0613388 0)
(-1.2405 0.00967165 0)
(-1.27527 0.00427155 0)
(-1.33758 0.064492 0)
(-1.24234 0.78285 0)
(-1.24097 0.0240475 0)
(-1.27494 0.0229556 0)
(-1.33513 0.0709254 0)
(-1.26306 0.375418 0)
(-1.25317 0.162549 0)
(-1.27449 0.154893 0)
(-1.33304 1.11868 0)
(-1.24946 -0.371804 0)
(-1.24464 -0.533762 0)
(-1.25901 -0.461293 0)
(-1.32004 -1.48202 0)
(-1.2609 -0.00541069 0)
(-1.25466 -0.678058 0)
(-1.2903 -0.590935 0)
(-1.33016 -2.53345 0)
(-1.26078 -0.0120144 0)
(-1.2544 0.00483624 0)
(-1.28993 0.00945073 0)
(-1.32811 0.0494904 0)
(-1.26072 0.00234335 0)
(-1.2543 0.0054831 0)
(-1.28955 0.0100626 0)
(-1.32613 0.0515395 0)
(-1.26066 0.00920878 0)
(-1.25427 0.00829745 0)
(-1.28916 0.0105665 0)
(-1.3242 0.0548359 0)
(-1.26056 0.00808596 0)
(-1.25428 0.00756078 0)
(-1.28878 0.011022 0)
(-1.32233 0.0552446 0)
(-1.26055 0.00621786 0)
(-1.25423 0.00487632 0)
(-1.28837 0.0115686 0)
(-1.3205 0.0564561 0)
(-1.26045 0.00762566 0)
(-1.25419 0.00572772 0)
(-1.28792 0.0126422 0)
(-1.31872 0.0600262 0)
(-1.2604 0.00784939 0)
(-1.25414 0.00593847 0)
(-1.28746 0.0103214 0)
(-1.31698 0.0617731 0)
(-1.26035 0.00794428 0)
(-1.25415 0.00592522 0)
(-1.28699 0.00993168 0)
(-1.31529 0.0640057 0)
(-1.26032 0.00840496 0)
(-1.25411 0.00637012 0)
(-1.28649 0.0129649 0)
(-1.31365 0.0745109 0)
(-1.26035 0.00932039 0)
(-1.25407 0.00794667 0)
(-1.28585 0.0140414 0)
(-1.31206 0.0755886 0)
(-1.26009 0.00974878 0)
(-1.25403 0.010145 0)
(-1.28537 0.0144718 0)
(-1.31051 0.0793064 0)
(-1.26 0.0127454 0)
(-1.25399 0.0035811 0)
(-1.2847 1.02048 0)
(-1.309 1.30764 0)
(-1.2736 0.654545 0)
(-1.23723 0.220577 0)
(-1.26363 0.146447 0)
(-1.31684 0.785897 0)
(-1.25842 -0.243113 0)
(-1.26246 -0.208204 0)
(-1.27528 -0.866216 0)
(-1.30548 -0.454672 0)
(-1.26575 -0.901161 0)
(-1.24762 -0.424847 0)
(-1.26774 0.0038565 0)
(-1.30388 0.0600505 0)
(-1.26577 -0.0152947 0)
(-1.24738 0.00271788 0)
(-1.26719 0.00662816 0)
(-1.30217 0.0738991 0)
(-1.26594 -0.00677652 0)
(-1.24725 -0.00300236 0)
(-1.26655 0.00696099 0)
(-1.30062 0.0777043 0)
(-1.26605 -0.00454011 0)
(-1.24715 0.00196686 0)
(-1.26585 0.00513307 0)
(-1.29906 0.0859076 0)
(-1.26614 -0.00641215 0)
(-1.24709 0.00388672 0)
(-1.26515 0.00637003 0)
(-1.2975 0.0878711 0)
(-1.26623 -0.00814679 0)
(-1.24694 0.00438606 0)
(-1.26445 0.00988285 0)
(-1.29602 0.0897164 0)
(-1.26633 -0.00669704 0)
(-1.24679 0.0042099 0)
(-1.26373 0.0121865 0)
(-1.29452 0.0898797 0)
(-1.26641 -0.00645004 0)
(-1.24662 0.0078915 0)
(-1.26302 0.014981 0)
(-1.29316 0.0902284 0)
(-1.26649 -0.00498111 0)
(-1.24644 0.00343931 0)
(-1.26236 0.0126782 0)
(-1.29182 0.0914603 0)
(-1.26665 -0.000266385 0)
(-1.24633 -0.00154064 0)
(-1.26155 0.00965431 0)
(-1.29045 0.0928303 0)
(-1.26678 -0.00555329 0)
(-1.24627 0.00114274 0)
(-1.26079 0.00950598 0)
(-1.28907 0.095039 0)
(-1.26697 -0.0125519 0)
(-1.24608 0.0126871 0)
(-1.25999 0.010541 0)
(-1.28772 0.097003 0)
(-1.26723 0.594254 0)
(-1.24589 0.086517 0)
(-1.25938 0.499838 0)
(-1.28633 1.11607 0)
(-1.26679 0.0889504 0)
(-1.24765 0.253496 0)
(-1.24283 -0.30426 0)
(-1.27549 0.462864 0)
(-1.26876 -0.504712 0)
(-1.25244 0.0736677 0)
(-1.25589 -1.15086 0)
(-1.26472 -0.545152 0)
(-1.24937 -0.0249249 0)
(-1.25842 -0.103892 0)
(-1.25314 -0.344045 0)
(-1.25676 0.102144 0)
(-1.24938 -0.0435789 0)
(-1.25776 0.00733904 0)
(-1.25246 0.0199076 0)
(-1.25568 0.0856289 0)
(-1.24933 -0.0109724 0)
(-1.25736 8.7808e-05 0)
(-1.25184 0.0199871 0)
(-1.25473 0.0861811 0)
(-1.24948 0.0028861 0)
(-1.25724 -0.00445691 0)
(-1.25102 0.0186991 0)
(-1.25331 0.0879003 0)
(-1.24952 0.00297824 0)
(-1.2571 0.00200976 0)
(-1.2503 0.0193369 0)
(-1.25178 0.0891934 0)
(-1.24956 0.00326266 0)
(-1.25697 0.0017467 0)
(-1.24957 0.0195143 0)
(-1.2505 0.0898672 0)
(-1.24958 0.00299071 0)
(-1.25683 0.00181291 0)
(-1.24883 0.0205105 0)
(-1.24911 0.0901349 0)
(-1.24962 0.00321433 0)
(-1.25668 0.00467102 0)
(-1.2481 0.0207836 0)
(-1.24774 0.0900459 0)
(-1.24963 0.00378856 0)
(-1.25653 -0.000731044 0)
(-1.24741 0.0282659 0)
(-1.24637 0.091484 0)
(-1.24976 0.0124023 0)
(-1.25627 -0.00270845 0)
(-1.24656 0.0219962 0)
(-1.24513 0.0913338 0)
(-1.25025 0.0198236 0)
(-1.25637 0.000755649 0)
(-1.24584 0.0142477 0)
(-1.24372 0.0907238 0)
(-1.25015 0.00279405 0)
(-1.25636 -0.00499887 0)
(-1.24506 -0.00689498 0)
(-1.24223 0.0694215 0)
(-1.25015 -39.6769 0)
(-1.25653 -51.337 0)
(-1.2446 -38.4972 0)
(-1.2406 -25.5299 0)
(-1.33413 -2615.76 0)
(-1.2367 -2600.76 0)
(-0.814945 -2609.72 0)
(-1.04625 -2596.78 0)
(-1.66677 -2622.34 0)
(-1.63371 -2605.56 0)
(-1.23189 -2608.91 0)
(-1.28487 -2602.02 0)
(-1.24842 -58.3429 0)
(-1.24485 -27.2788 0)
(-1.2434 -35.0384 0)
(-1.24735 -27.9461 0)
(-1.2491 0.00517996 0)
(-1.2453 -0.0431066 0)
(-1.24301 -0.0301319 0)
(-1.24716 -0.0240472 0)
(-1.2491 0.0162347 0)
(-1.24544 0.00830155 0)
(-1.24308 0.000998959 0)
(-1.24717 0.000932529 0)
(-1.24911 0.0149919 0)
(-1.24556 0.00800758 0)
(-1.24314 0.000872098 0)
(-1.24718 0.0010599 0)
(-1.24911 0.0145859 0)
(-1.24567 0.00776002 0)
(-1.24319 0.000964873 0)
(-1.24718 0.00103561 0)
(-1.24911 0.0142054 0)
(-1.24579 0.00734055 0)
(-1.24325 0.001129 0)
(-1.24719 0.00100266 0)
(-1.24911 0.0142283 0)
(-1.24589 0.00720375 0)
(-1.2433 0.00142489 0)
(-1.24719 0.0010028 0)
(-1.24911 0.0142146 0)
(-1.246 0.0070313 0)
(-1.24335 0.00159653 0)
(-1.2472 0.000988938 0)
(-1.24911 0.014181 0)
(-1.2461 0.00685181 0)
(-1.2434 0.00185025 0)
(-1.2472 0.001069 0)
(-1.24911 0.014306 0)
(-1.2462 0.00701068 0)
(-1.24345 0.00198509 0)
(-1.24721 0.0012123 0)
(-1.24911 0.014541 0)
(-1.24631 0.00748624 0)
(-1.2435 0.00209376 0)
(-1.24722 0.00136921 0)
(-1.24911 0.0149217 0)
(-1.24641 0.00774039 0)
(-1.24355 0.00243872 0)
(-1.24723 0.00137103 0)
(-1.2491 0.0149384 0)
(-1.24651 0.0076551 0)
(-1.2436 0.00298948 0)
(-1.24725 0.000700786 0)
(-1.24909 0.0150315 0)
(-1.24661 0.00701382 0)
(-1.24367 0.00424106 0)
(-1.24728 -0.000614599 0)
(-1.24905 0.0146073 0)
(-1.24669 0.00569374 0)
(-1.24373 0.00561602 0)
(-1.24732 -0.00236422 0)
(-1.24901 0.0141967 0)
(-1.24676 0.00489379 0)
(-1.2438 0.00676273 0)
(-1.24738 -0.00383446 0)
(-1.24894 0.0142989 0)
(-1.24682 0.00470981 0)
(-1.24388 0.00760438 0)
(-1.24746 -0.00450413 0)
(-1.24888 0.0143311 0)
(-1.24687 0.00483767 0)
(-1.24395 0.00787509 0)
(-1.24755 -0.00470376 0)
(-1.24881 0.0146019 0)
(-1.24693 0.00533152 0)
(-1.24403 0.00795268 0)
(-1.24763 -0.00444999 0)
(-1.24874 0.0148111 0)
(-1.24698 0.00552775 0)
(-1.24412 0.00807368 0)
(-1.24773 -0.00438156 0)
(-1.24867 0.0147972 0)
(-1.24704 0.0054283 0)
(-1.2442 0.0082049 0)
(-1.24782 -0.00436112 0)
(-1.2486 0.0147234 0)
(-1.24709 0.00531211 0)
(-1.24428 0.00834743 0)
(-1.24791 -0.00433076 0)
(-1.24854 0.0146857 0)
(-1.24714 0.00522347 0)
(-1.24436 0.00844086 0)
(-1.248 -0.00430032 0)
(-1.24847 0.0146059 0)
(-1.2472 0.00511655 0)
(-1.24444 0.00855691 0)
(-1.24809 -0.004198 0)
(-1.2484 0.0139936 0)
(-1.24725 0.00454096 0)
(-1.24452 0.00858712 0)
(-1.24818 -0.00419757 0)
(-1.24833 0.0134341 0)
(-1.24729 0.00385613 0)
(-1.24458 0.00861597 0)
(-1.24827 -0.00418915 0)
(-1.24827 0.0129168 0)
(-1.24733 0.00352918 0)
(-1.24465 0.00840566 0)
(-1.24836 -0.00407681 0)
(-1.24821 0.0116801 0)
(-1.24736 0.00317102 0)
(-1.24471 0.00740139 0)
(-1.24843 -0.00375281 0)
(-1.24816 0.0103777 0)
(-1.2474 0.00346079 0)
(-1.24476 0.0057704 0)
(-1.2485 -0.00320835 0)
(-1.24812 0.00883168 0)
(-1.24744 0.00398569 0)
(-1.24482 0.00391263 0)
(-1.24854 -0.00255676 0)
(-1.24809 0.00669964 0)
(-1.24748 0.0036775 0)
(-1.24487 0.00222441 0)
(-1.24858 -0.00208176 0)
(-1.24806 0.0052474 0)
(-1.24751 0.00325216 0)
(-1.24492 0.00131547 0)
(-1.2486 -0.00180517 0)
(-1.24804 0.00436285 0)
(-1.24754 0.00266976 0)
(-1.24496 0.00105319 0)
(-1.24861 -0.0017034 0)
(-1.24801 0.00373799 0)
(-1.24757 0.00200587 0)
(-1.24499 0.000966883 0)
(-1.24862 -0.00168354 0)
(-1.248 0.0036754 0)
(-1.24759 0.00185284 0)
(-1.24502 0.000913488 0)
(-1.24863 -0.00159362 0)
(-1.24798 0.00375002 0)
(-1.24761 0.00185365 0)
(-1.24505 0.0008672 0)
(-1.24863 -0.00146433 0)
(-1.24796 0.0037991 0)
(-1.24764 0.00183256 0)
(-1.24507 0.000833458 0)
(-1.24864 -0.00132528 0)
(-1.24794 0.0038603 0)
(-1.24766 0.00182581 0)
(-1.2451 0.000796044 0)
(-1.24864 -0.00119269 0)
(-1.24792 0.00389701 0)
(-1.24769 0.00181103 0)
(-1.24513 0.000767957 0)
(-1.24864 -0.00106491 0)
(-1.2479 0.00392404 0)
(-1.24772 0.00177427 0)
(-1.24515 0.000722991 0)
(-1.24864 -0.000921626 0)
(-1.24788 0.00394455 0)
(-1.24774 0.00168919 0)
(-1.24517 0.000667983 0)
(-1.24863 -0.000767596 0)
(-1.24786 0.00385373 0)
(-1.24777 0.00156247 0)
(-1.24519 0.00063512 0)
(-1.24863 -0.000629446 0)
(-1.24785 0.00338216 0)
(-1.2478 0.00139022 0)
(-1.24521 0.000570528 0)
(-1.24862 -0.000669069 0)
(-1.24783 0.00247324 0)
(-1.24782 0.00120346 0)
(-1.24522 0.00043496 0)
(-1.24862 -0.000928604 0)
(-1.24782 0.00143451 0)
(-1.24783 0.00108816 0)
(-1.24524 0.000275133 0)
(-1.24862 -0.00127894 0)
(-1.24782 0.000519665 0)
(-1.24784 0.000968014 0)
(-1.24526 0.000111904 0)
(-1.24863 -0.00153181 0)
(-1.24781 -3.52106e-05 0)
(-1.24784 0.000826078 0)
(-1.24528 -2.59551e-05 0)
(-1.24864 -0.0015829 0)
(-1.24781 -0.000172042 0)
(-1.24784 0.000724913 0)
(-1.2453 -8.77288e-05 0)
(-1.24865 -0.00147059 0)
(-1.24781 -0.000183612 0)
(-1.24784 0.000604084 0)
(-1.24532 -9.24873e-05 0)
(-1.24865 -0.00131156 0)
(-1.24781 -0.000203811 0)
(-1.24784 0.000510709 0)
(-1.24534 -8.52926e-05 0)
(-1.24866 -0.00118731 0)
(-1.24781 -0.000179818 0)
(-1.24783 0.000448254 0)
(-1.24535 -7.29259e-05 0)
(-1.24866 -0.00106193 0)
(-1.24781 -0.000138094 0)
(-1.24783 0.00037916 0)
(-1.24536 -6.87829e-05 0)
(-1.24867 -0.000926984 0)
(-1.24781 -0.000106709 0)
(-1.24783 0.000311576 0)
(-1.24537 -6.83434e-05 0)
(-1.24867 -0.000788515 0)
(-1.24781 -7.47808e-05 0)
(-1.24783 0.000250118 0)
(-1.24538 -6.47449e-05 0)
(-1.24867 -0.00065718 0)
(-1.2478 -4.83639e-05 0)
(-1.24783 0.000191113 0)
(-1.24539 -6.21479e-05 0)
(-1.24868 -0.000527932 0)
(-1.2478 -1.95573e-05 0)
(-1.24783 0.000133438 0)
(-1.24539 -5.91779e-05 0)
(-1.24868 -0.000401973 0)
(-1.2478 1.18267e-05 0)
(-1.24783 7.8132e-05 0)
(-1.24539 -5.67639e-05 0)
(-1.24868 -0.000282301 0)
(-1.24781 4.10401e-05 0)
(-1.24783 2.48821e-05 0)
(-1.2454 -5.06617e-05 0)
(-1.24868 -0.000177774 0)
(-1.24781 2.72375e-05 0)
(-1.24784 -1.54465e-06 0)
(-1.2454 -2.2066e-05 0)
(-1.24868 -6.59046e-05 0)
(-0.923014 -2608.85 0)
(-1.15588 -2597.24 0)
(-1.17833 -2610.11 0)
(-0.925537 -2623.56 0)
(-1.25447 -32.7762 0)
(-1.25776 -47.8164 0)
(-1.25372 -38.8858 0)
(-1.25004 -52.3387 0)
(-1.25419 -0.0192999 0)
(-1.25771 -0.00657192 0)
(-1.2537 -0.0153746 0)
(-1.24982 -0.00199796 0)
(-1.25418 0.000119981 0)
(-1.25769 0.00256994 0)
(-1.25364 0.00240127 0)
(-1.2497 0.00854176 0)
(-1.25416 0.000243612 0)
(-1.25767 0.00269596 0)
(-1.2536 0.00226561 0)
(-1.24959 0.0083952 0)
(-1.25415 0.000414874 0)
(-1.25766 0.00222485 0)
(-1.25355 0.00204423 0)
(-1.24948 0.00808693 0)
(-1.25414 0.000595836 0)
(-1.25765 0.00253977 0)
(-1.2535 0.00213404 0)
(-1.24938 0.00756586 0)
(-1.25412 0.000827463 0)
(-1.25763 0.002493 0)
(-1.25347 0.0022942 0)
(-1.24928 0.00733677 0)
(-1.25411 0.000972591 0)
(-1.25762 0.00242139 0)
(-1.25342 0.00235544 0)
(-1.24918 0.00714196 0)
(-1.2541 0.00118853 0)
(-1.25761 0.00243184 0)
(-1.25339 0.00248371 0)
(-1.24909 0.0069084 0)
(-1.25409 0.001122 0)
(-1.2576 0.0019746 0)
(-1.25335 0.00221097 0)
(-1.24899 0.00693586 0)
(-1.25409 0.000889176 0)
(-1.25759 0.0014253 0)
(-1.2533 0.00156271 0)
(-1.24888 0.00722873 0)
(-1.25409 0.000654755 0)
(-1.25759 0.000988468 0)
(-1.25325 0.00148104 0)
(-1.24877 0.00718872 0)
(-1.25409 0.000178017 0)
(-1.25758 0.000741595 0)
(-1.2532 0.0020866 0)
(-1.24866 0.00619904 0)
(-1.25409 -0.000469761 0)
(-1.25756 0.000609862 0)
(-1.25316 0.00385774 0)
(-1.24856 0.00402104 0)
(-1.25407 -0.000915497 0)
(-1.25751 0.00098768 0)
(-1.25314 0.00650356 0)
(-1.24847 0.000829151 0)
(-1.25403 -0.00154845 0)
(-1.25743 0.000702834 0)
(-1.25316 0.00828132 0)
(-1.24842 -0.00175795 0)
(-1.254 -0.00216937 0)
(-1.25734 9.71467e-05 0)
(-1.25319 0.0088714 0)
(-1.24838 -0.00303474 0)
(-1.25396 -0.00239654 0)
(-1.25725 -0.00048887 0)
(-1.25321 0.00865915 0)
(-1.24833 -0.00331734 0)
(-1.25393 -0.00271819 0)
(-1.25716 -0.00117435 0)
(-1.25323 0.00796187 0)
(-1.24828 -0.0028908 0)
(-1.2539 -0.00281665 0)
(-1.25707 -0.00151524 0)
(-1.25324 0.00761989 0)
(-1.24822 -0.00267613 0)
(-1.25388 -0.00279233 0)
(-1.25698 -0.00159943 0)
(-1.25325 0.00764676 0)
(-1.24816 -0.00273963 0)
(-1.25386 -0.00270505 0)
(-1.2569 -0.00162576 0)
(-1.25326 0.00767739 0)
(-1.2481 -0.00280986 0)
(-1.25383 -0.00259165 0)
(-1.25681 -0.00173935 0)
(-1.25327 0.00764761 0)
(-1.24804 -0.002863 0)
(-1.25381 -0.00247833 0)
(-1.25673 -0.00182724 0)
(-1.25328 0.00759492 0)
(-1.24798 -0.00290822 0)
(-1.25379 -0.0022555 0)
(-1.25664 -0.0016967 0)
(-1.25329 0.00742014 0)
(-1.24793 -0.00352761 0)
(-1.25377 -0.00175655 0)
(-1.25657 -0.000999016 0)
(-1.25331 0.00798407 0)
(-1.24787 -0.00403157 0)
(-1.25374 -0.0013041 0)
(-1.25648 -0.000390572 0)
(-1.25334 0.0086002 0)
(-1.24784 -0.0038646 0)
(-1.25371 -0.000960791 0)
(-1.2564 0.000207656 0)
(-1.25337 0.00839447 0)
(-1.2478 -0.00356472 0)
(-1.25367 -0.000628271 0)
(-1.25633 0.000791641 0)
(-1.2534 0.00818842 0)
(-1.24778 -0.00194492 0)
(-1.25364 -0.000903005 0)
(-1.25625 0.000479031 0)
(-1.25341 0.00645269 0)
(-1.24777 -0.000355749 0)
(-1.25362 -0.00105681 0)
(-1.2562 0.000378537 0)
(-1.25342 0.00452352 0)
(-1.24774 3.51717e-05 0)
(-1.2536 -0.000819378 0)
(-1.25616 0.000824465 0)
(-1.25342 0.00409985 0)
(-1.24773 0.000365086 0)
(-1.25358 -0.000630575 0)
(-1.25612 0.00114834 0)
(-1.25342 0.00381586 0)
(-1.24772 -2.49562e-05 0)
(-1.25355 -0.000107834 0)
(-1.25609 0.00175892 0)
(-1.25344 0.00430135 0)
(-1.24772 -0.000464622 0)
(-1.25352 0.000337192 0)
(-1.25605 0.00226664 0)
(-1.25346 0.00487246 0)
(-1.24773 -0.000404253 0)
(-1.25349 0.000469772 0)
(-1.25601 0.00222915 0)
(-1.25348 0.00471365 0)
(-1.24774 -0.000404136 0)
(-1.25346 0.000589428 0)
(-1.25598 0.00213505 0)
(-1.25351 0.00454423 0)
(-1.24775 -0.00041115 0)
(-1.25343 0.000708022 0)
(-1.25594 0.00207647 0)
(-1.25353 0.00439054 0)
(-1.24775 -0.000428407 0)
(-1.25341 0.00082772 0)
(-1.25592 0.00201803 0)
(-1.25355 0.00425524 0)
(-1.24776 -0.000470949 0)
(-1.25338 0.000981973 0)
(-1.25589 0.00202664 0)
(-1.25357 0.00420857 0)
(-1.24776 -0.000535289 0)
(-1.25336 0.00117015 0)
(-1.25586 0.00204692 0)
(-1.25359 0.00416913 0)
(-1.24776 -0.000630442 0)
(-1.25333 0.00122626 0)
(-1.25584 0.00196647 0)
(-1.25361 0.00393292 0)
(-1.24776 -0.000649151 0)
(-1.25331 0.000973007 0)
(-1.25582 0.00173919 0)
(-1.25363 0.00339396 0)
(-1.24776 -0.000475026 0)
(-1.25329 0.000401348 0)
(-1.2558 0.00131055 0)
(-1.25365 0.00260315 0)
(-1.24776 -0.000185008 0)
(-1.25328 -0.000286945 0)
(-1.25578 0.000844054 0)
(-1.25366 0.00185109 0)
(-1.24776 0.000158448 0)
(-1.25326 -0.000806755 0)
(-1.25576 0.000501514 0)
(-1.25366 0.00137837 0)
(-1.24777 0.000432718 0)
(-1.25324 -0.000998394 0)
(-1.25574 0.00030514 0)
(-1.25366 0.00118378 0)
(-1.24778 0.000512681 0)
(-1.25323 -0.000913315 0)
(-1.25573 0.000258956 0)
(-1.25366 0.001162 0)
(-1.24779 0.000479058 0)
(-1.25321 -0.000765344 0)
(-1.25571 0.000268542 0)
(-1.25366 0.00114323 0)
(-1.2478 0.00040652 0)
(-1.2532 -0.000668362 0)
(-1.25569 0.000253046 0)
(-1.25366 0.00104239 0)
(-1.24781 0.000345371 0)
(-1.25319 -0.000604743 0)
(-1.25568 0.000213359 0)
(-1.25365 0.000921573 0)
(-1.24782 0.000324463 0)
(-1.25318 -0.000541309 0)
(-1.25567 0.000190949 0)
(-1.25365 0.000809065 0)
(-1.24783 0.000293909 0)
(-1.25317 -0.000469248 0)
(-1.25566 0.000162346 0)
(-1.25365 0.000691395 0)
(-1.24784 0.000257556 0)
(-1.25316 -0.000394477 0)
(-1.25565 0.000143389 0)
(-1.25365 0.000575125 0)
(-1.24784 0.000217269 0)
(-1.25316 -0.00031798 0)
(-1.25564 0.000121094 0)
(-1.25365 0.000460057 0)
(-1.24785 0.00017815 0)
(-1.25315 -0.00024285 0)
(-1.25564 9.80321e-05 0)
(-1.25365 0.000349321 0)
(-1.24785 0.000138489 0)
(-1.25315 -0.000168033 0)
(-1.25563 7.33555e-05 0)
(-1.25365 0.000238079 0)
(-1.24785 0.000103693 0)
(-1.25315 -9.677e-05 0)
(-1.25563 5.6234e-05 0)
(-1.25365 0.000139915 0)
(-1.24786 6.25801e-05 0)
(-1.25315 -3.02619e-05 0)
(-1.25563 2.6471e-05 0)
(-1.25365 4.93385e-05 0)
(-1.24786 1.92397e-05 0)
)
;

boundaryField
{
    topWall
    {
        type            extrapolatedCalculated;
        value           nonuniform List<vector> 8((-1.24781 2.72375e-05 0) (-1.24784 -1.54465e-06 0) (-1.2454 -2.2066e-05 0) (-1.24868 -6.59046e-05 0) (-1.25315 -3.02619e-05 0) (-1.25563 2.6471e-05 0) (-1.25365 4.93385e-05 0) (-1.24786 1.92397e-05 0));
    }
    botWall
    {
        type            extrapolatedCalculated;
        value           nonuniform List<vector> 8((-1.25286 -1.4069 0) (-1.16487 -0.205336 0) (-1.2282 -0.0129434 0) (-1.25069 -0.0169686 0) (-1.24083 -0.0158919 0) (-1.24004 -0.0301416 0) (-1.27811 -0.0134433 0) (-1.3444 -0.0305348 0));
    }
    inlet
    {
        type            cyclic;
    }
    outlet
    {
        type            cyclic;
    }
    fixWall
    {
        type            empty;
    }
}


// ************************************************************************* //
