/*--------------------------------*- C++ -*----------------------------------*\
  =========                 |
  \\      /  F ield         | OpenFOAM: The Open Source CFD Toolbox
   \\    /   O peration     | Website:  https://openfoam.org
    \\  /    A nd           | Version:  dev
     \\/     M anipulation  |

   OpenFOAM for Windows 20.09 (v1)
   Built by CFD Support, www.cfdsupport.com (based on Symscape).
\*---------------------------------------------------------------------------*/
FoamFile
{
    version     2.0;
    format      ascii;
    class       volVectorField;
    location    "4";
    object      gradp;
}
// * * * * * * * * * * * * * * * * * * * * * * * * * * * * * * * * * * * * * //

dimensions      [1 -2 -2 0 0 0 0];

internalField   nonuniform List<vector> 
960
(
(3.74714 -99.5082 0)
(-1.16484 -98.3056 0)
(-1.22819 -98.113 0)
(-1.25069 -98.117 0)
(3.74422 -99.3452 0)
(-1.14164 -98.3014 0)
(-1.22506 -98.1125 0)
(-1.25074 -98.1163 0)
(3.74423 -97.7545 0)
(-1.1443 -98.0813 0)
(-1.22511 -98.0989 0)
(-1.25072 -98.0983 0)
(3.74416 -97.7346 0)
(-1.14738 -98.0796 0)
(-1.22534 -98.0987 0)
(-1.25079 -98.1008 0)
(3.74443 -97.7454 0)
(-1.15037 -98.0853 0)
(-1.22546 -98.0984 0)
(-1.25093 -98.1014 0)
(3.74442 -97.7562 0)
(-1.15326 -98.0792 0)
(-1.22561 -98.0981 0)
(-1.25093 -98.0992 0)
(3.7444 -97.7647 0)
(-1.15607 -98.0749 0)
(-1.22579 -98.0977 0)
(-1.25094 -98.0991 0)
(3.74439 -97.7728 0)
(-1.15881 -98.0715 0)
(-1.22601 -98.0973 0)
(-1.25094 -98.099 0)
(3.74437 -97.7812 0)
(-1.16147 -98.0699 0)
(-1.22625 -98.0969 0)
(-1.25094 -98.0945 0)
(3.74431 -97.7883 0)
(-1.16407 -98.0666 0)
(-1.22642 -98.0966 0)
(-1.25083 -98.0961 0)
(3.74432 -97.7941 0)
(-1.16661 -98.0619 0)
(-1.22674 -98.0963 0)
(-1.25085 -98.1011 0)
(3.74434 -97.8009 0)
(-1.16911 -98.0277 0)
(-1.22707 -98.0912 0)
(-1.25087 -98.0708 0)
(3.74461 -97.8037 0)
(-1.17145 -98.0003 0)
(-1.22746 -98.0932 0)
(-1.25047 -98.035 0)
(3.74493 -97.8115 0)
(-1.17393 -98.03 0)
(-1.22765 -98.0967 0)
(-1.24997 -96.7886 0)
(3.74491 -97.0571 0)
(-1.1762 -97.7156 0)
(-1.20677 -97.7193 0)
(-1.23732 -97.5023 0)
(3.73326 -98.3816 0)
(-1.18497 -98.2457 0)
(-1.2241 -98.4329 0)
(-1.24997 -98.7789 0)
(3.76686 -99.1575 0)
(-1.17706 -98.5848 0)
(-1.21566 -98.8083 0)
(-1.23812 -98.106 0)
(3.76682 -97.8486 0)
(-1.17915 -98.0528 0)
(-1.21612 -98.0963 0)
(-1.23833 -98.106 0)
(3.76681 -97.8551 0)
(-1.18119 -98.0504 0)
(-1.21654 -98.0965 0)
(-1.23838 -98.1015 0)
(3.76679 -97.8608 0)
(-1.18317 -98.048 0)
(-1.21697 -98.0962 0)
(-1.23835 -98.1009 0)
(3.76676 -97.8665 0)
(-1.18511 -98.0447 0)
(-1.21742 -98.0967 0)
(-1.23829 -98.0991 0)
(3.76679 -97.8718 0)
(-1.18701 -98.042 0)
(-1.21787 -98.099 0)
(-1.23827 -98.1019 0)
(3.76679 -97.8762 0)
(-1.1889 -98.039 0)
(-1.21842 -98.0984 0)
(-1.2382 -98.1033 0)
(3.76681 -97.8841 0)
(-1.19071 -98.0384 0)
(-1.21895 -98.0961 0)
(-1.23817 -98.1001 0)
(3.76679 -97.8903 0)
(-1.19243 -98.0368 0)
(-1.21945 -98.0955 0)
(-1.23814 -98.0994 0)
(3.7668 -97.8933 0)
(-1.19413 -98.0339 0)
(-1.21999 -98.0896 0)
(-1.23811 -98.0941 0)
(3.76666 -97.8982 0)
(-1.1957 -98.0326 0)
(-1.22045 -98.0886 0)
(-1.23817 -98.1056 0)
(3.76667 -97.9021 0)
(-1.19731 -98.0309 0)
(-1.2212 -98.0914 0)
(-1.23815 -98.1103 0)
(3.76648 -97.4705 0)
(-1.19886 -98.0271 0)
(-1.22178 -97.3108 0)
(-1.23817 -97.2639 0)
(3.7466 -97.7467 0)
(-1.19465 -97.7408 0)
(-1.20848 -97.4741 0)
(-1.25119 -97.971 0)
(3.75968 -98.1772 0)
(-1.19431 -99.0429 0)
(-1.22561 -98.2866 0)
(-1.23806 -98.8011 0)
(3.73795 -97.8936 0)
(-1.19647 -99.3212 0)
(-1.20446 -98.1278 0)
(-1.25203 -98.0881 0)
(3.73802 -97.8979 0)
(-1.19822 -98.0207 0)
(-1.20506 -98.0951 0)
(-1.25224 -98.0863 0)
(3.73804 -97.9067 0)
(-1.19976 -98.0216 0)
(-1.20555 -98.1028 0)
(-1.25237 -98.0862 0)
(3.73804 -97.9079 0)
(-1.20149 -98.0155 0)
(-1.20614 -98.1064 0)
(-1.2523 -98.0859 0)
(3.73802 -97.9111 0)
(-1.20306 -98.0136 0)
(-1.20672 -98.0972 0)
(-1.25234 -98.0851 0)
(3.73802 -97.9116 0)
(-1.20459 -98.0118 0)
(-1.20733 -98.0968 0)
(-1.25245 -98.0846 0)
(3.738 -97.9164 0)
(-1.20615 -98.0131 0)
(-1.20793 -98.0983 0)
(-1.25253 -98.0855 0)
(3.73797 -97.9229 0)
(-1.20762 -98.0129 0)
(-1.20854 -98.0982 0)
(-1.2526 -98.0827 0)
(3.73794 -97.9243 0)
(-1.20907 -98.0107 0)
(-1.2091 -98.0942 0)
(-1.25268 -98.0821 0)
(3.73792 -97.9246 0)
(-1.21045 -98.0092 0)
(-1.20972 -98.0976 0)
(-1.25279 -98.0838 0)
(3.7379 -97.9265 0)
(-1.21196 -98.0076 0)
(-1.21034 -98.1004 0)
(-1.25273 -98.0792 0)
(3.73787 -97.9259 0)
(-1.21335 -98.0076 0)
(-1.21092 -98.096 0)
(-1.25287 -98.0596 0)
(3.73782 -96.8239 0)
(-1.21479 -97.4003 0)
(-1.21121 -98.072 0)
(-1.25297 -98.0607 0)
(3.73024 -97.0738 0)
(-1.23415 -97.4332 0)
(-1.22192 -97.9423 0)
(-1.24299 -97.8041 0)
(3.74096 -98.1701 0)
(-1.22927 -98.1662 0)
(-1.21739 -98.4669 0)
(-1.25405 -99.035 0)
(3.73892 -97.9345 0)
(-1.2391 -98.1579 0)
(-1.2364 -98.593 0)
(-1.24572 -99.3163 0)
(3.73855 -97.9563 0)
(-1.24024 -98.0631 0)
(-1.2367 -98.0884 0)
(-1.24631 -98.0929 0)
(3.7381 -97.9366 0)
(-1.2413 -98.0448 0)
(-1.2369 -98.0881 0)
(-1.24661 -98.0933 0)
(3.73804 -97.9037 0)
(-1.24277 -98.0196 0)
(-1.2375 -98.0877 0)
(-1.24668 -98.0926 0)
(3.73798 -97.9116 0)
(-1.24436 -98.017 0)
(-1.23812 -98.0865 0)
(-1.24676 -98.0928 0)
(3.73794 -97.9207 0)
(-1.24568 -98.0248 0)
(-1.23877 -98.0871 0)
(-1.24685 -98.0948 0)
(3.73774 -97.9147 0)
(-1.24714 -98.0264 0)
(-1.23928 -98.0904 0)
(-1.24692 -98.0945 0)
(3.73767 -97.9153 0)
(-1.24861 -98.0183 0)
(-1.2399 -98.0897 0)
(-1.24696 -98.093 0)
(3.73761 -97.9158 0)
(-1.25004 -98.0177 0)
(-1.24053 -98.0874 0)
(-1.24704 -98.0929 0)
(3.73752 -97.9198 0)
(-1.25147 -98.0088 0)
(-1.24116 -98.0699 0)
(-1.24711 -98.0669 0)
(3.7376 -97.912 0)
(-1.25255 -98.0287 0)
(-1.2415 -98.072 0)
(-1.24734 -98.0767 0)
(3.73719 -97.9153 0)
(-1.25414 -98.0384 0)
(-1.24196 -98.0905 0)
(-1.24726 -98.1025 0)
(3.73711 -97.7158 0)
(-1.25547 -97.6643 0)
(-1.24256 -97.7554 0)
(-1.24732 -97.7004 0)
(3.73942 -76.0306 0)
(-1.2548 -75.428 0)
(-1.24256 -75.5952 0)
(-1.24733 -75.4431 0)
(-1.24083 -98.1159 0)
(-1.24004 -98.1302 0)
(-1.27811 -98.1135 0)
(3.65558 -98.1305 0)
(-1.24105 -98.1143 0)
(-1.24 -98.13 0)
(-1.27811 -98.113 0)
(3.63238 -98.1273 0)
(-1.24106 -98.1018 0)
(-1.24002 -98.1013 0)
(-1.27806 -98.1021 0)
(3.63504 -98.0776 0)
(-1.2411 -98.1111 0)
(-1.24 -98.1111 0)
(-1.27772 -98.102 0)
(3.63817 -98.0916 0)
(-1.24124 -98.107 0)
(-1.23987 -98.1102 0)
(-1.27774 -98.1019 0)
(3.64116 -98.1006 0)
(-1.24125 -98.0984 0)
(-1.23992 -98.1009 0)
(-1.27756 -98.1016 0)
(3.64411 -98.0774 0)
(-1.24127 -98.0981 0)
(-1.23992 -98.101 0)
(-1.27735 -98.0981 0)
(3.64692 -98.0734 0)
(-1.24128 -98.0977 0)
(-1.23992 -98.101 0)
(-1.2771 -98.0976 0)
(3.64967 -98.0695 0)
(-1.2413 -98.0903 0)
(-1.23992 -98.0996 0)
(-1.27682 -98.0964 0)
(3.65233 -98.0651 0)
(-1.24137 -98.0909 0)
(-1.24002 -98.1004 0)
(-1.27652 -98.096 0)
(3.65492 -98.0636 0)
(-1.24137 -98.0985 0)
(-1.24 -98.1035 0)
(-1.27621 -98.0984 0)
(3.65746 -98.0639 0)
(-1.24141 -98.0684 0)
(-1.24002 -98.1006 0)
(-1.27586 -98.0981 0)
(3.65999 -98.0449 0)
(-1.24187 -98.0393 0)
(-1.2405 -98.0902 0)
(-1.27528 -98.0959 0)
(3.66242 -98.0354 0)
(-1.24233 -97.3078 0)
(-1.24096 -98.0828 0)
(-1.27495 -98.0835 0)
(3.66486 -98.0479 0)
(-1.26344 -97.7195 0)
(-1.25343 -97.9468 0)
(-1.2747 -97.9536 0)
(3.66695 -97.0155 0)
(-1.24974 -98.4812 0)
(-1.24487 -98.6269 0)
(-1.25943 -98.5553 0)
(3.67981 -99.5629 0)
(-1.26091 -98.1101 0)
(-1.25466 -98.7685 0)
(-1.2903 -98.6825 0)
(3.66984 -100.599 0)
(-1.26078 -98.1117 0)
(-1.25441 -98.0947 0)
(-1.28993 -98.0901 0)
(3.67189 -98.05 0)
(-1.26072 -98.0974 0)
(-1.2543 -98.0942 0)
(-1.28955 -98.0897 0)
(3.67387 -98.0482 0)
(-1.26066 -98.0906 0)
(-1.25428 -98.0915 0)
(-1.28916 -98.0893 0)
(3.6758 -98.0451 0)
(-1.26056 -98.0919 0)
(-1.25428 -98.0924 0)
(-1.28878 -98.0888 0)
(3.67768 -98.0447 0)
(-1.26055 -98.0938 0)
(-1.25423 -98.0952 0)
(-1.28837 -98.0883 0)
(3.67951 -98.0435 0)
(-1.26045 -98.0925 0)
(-1.25419 -98.0944 0)
(-1.28792 -98.0872 0)
(3.68129 -98.04 0)
(-1.2604 -98.0922 0)
(-1.25414 -98.0943 0)
(-1.28746 -98.0897 0)
(3.68302 -98.0384 0)
(-1.26035 -98.0922 0)
(-1.25414 -98.0943 0)
(-1.28699 -98.0903 0)
(3.68471 -98.0363 0)
(-1.26031 -98.0918 0)
(-1.25411 -98.094 0)
(-1.28649 -98.0876 0)
(3.68636 -98.026 0)
(-1.26035 -98.0909 0)
(-1.25408 -98.0923 0)
(-1.28585 -98.0865 0)
(3.68795 -98.0247 0)
(-1.26009 -98.0911 0)
(-1.25404 -98.0899 0)
(-1.28537 -98.0856 0)
(3.68949 -98.0204 0)
(-1.26001 -98.0932 0)
(-1.25398 -98.0907 0)
(-1.28469 -97.1048 0)
(3.69101 -96.8229 0)
(-1.27387 -97.4676 0)
(-1.23756 -97.8674 0)
(-1.26424 -97.9571 0)
(3.6834 -97.3327 0)
(-1.25829 -98.3371 0)
(-1.26214 -98.3139 0)
(-1.27578 -98.941 0)
(3.69452 -98.524 0)
(-1.26575 -98.9784 0)
(-1.24763 -98.5368 0)
(-1.26774 -98.0926 0)
(3.69613 -98.0217 0)
(-1.26577 -98.1154 0)
(-1.24738 -98.0973 0)
(-1.26719 -98.0929 0)
(3.69783 -98.0264 0)
(-1.26594 -98.1067 0)
(-1.24725 -98.1029 0)
(-1.26656 -98.0928 0)
(3.69938 -98.0226 0)
(-1.26605 -98.1045 0)
(-1.24715 -98.0981 0)
(-1.26586 -98.095 0)
(3.70093 -98.0143 0)
(-1.26614 -98.1064 0)
(-1.24709 -98.0962 0)
(-1.26516 -98.0939 0)
(3.7025 -98.0123 0)
(-1.26623 -98.1083 0)
(-1.24694 -98.0958 0)
(-1.26446 -98.0905 0)
(3.70398 -98.0104 0)
(-1.26633 -98.107 0)
(-1.2468 -98.096 0)
(-1.26374 -98.0881 0)
(3.70548 -98.0101 0)
(-1.26641 -98.1069 0)
(-1.24662 -98.0923 0)
(-1.26303 -98.0852 0)
(3.70684 -98.0096 0)
(-1.26649 -98.1054 0)
(-1.24643 -98.0966 0)
(-1.26236 -98.087 0)
(3.70818 -98.0081 0)
(-1.26665 -98.1006 0)
(-1.24632 -98.1013 0)
(-1.26155 -98.0895 0)
(3.70955 -98.0065 0)
(-1.26678 -98.1053 0)
(-1.24625 -98.0984 0)
(-1.26078 -98.0895 0)
(3.71093 -98.0043 0)
(-1.26697 -98.1106 0)
(-1.24605 -98.0865 0)
(-1.25998 -98.0891 0)
(3.71227 -98.0028 0)
(-1.26723 -97.4796 0)
(-1.24589 -98.01 0)
(-1.25938 -97.5805 0)
(3.71365 -96.943 0)
(-1.26612 -98.0071 0)
(-1.24773 -97.8506 0)
(-1.2422 -98.4178 0)
(3.72488 -97.6219 0)
(-1.268 -98.6303 0)
(-1.25274 -98.0292 0)
(-1.25557 -99.2703 0)
(3.73605 -98.6865 0)
(-1.24936 -98.1284 0)
(-1.2584 -98.1995 0)
(-1.25315 -98.43 0)
(3.74322 -98.0133 0)
(-1.24939 -98.1416 0)
(-1.25776 -98.0923 0)
(-1.25247 -98.0799 0)
(3.74431 -98.0144 0)
(-1.24935 -98.1103 0)
(-1.25737 -98.1 0)
(-1.25185 -98.08 0)
(3.74528 -98.014 0)
(-1.2495 -98.097 0)
(-1.25726 -98.1049 0)
(-1.25104 -98.0812 0)
(3.7467 -98.0123 0)
(-1.24956 -98.0971 0)
(-1.25711 -98.0984 0)
(-1.25031 -98.0807 0)
(3.74824 -98.011 0)
(-1.24959 -98.0967 0)
(-1.25698 -98.0987 0)
(-1.24958 -98.0807 0)
(3.74952 -98.0106 0)
(-1.24962 -98.097 0)
(-1.25684 -98.0984 0)
(-1.24884 -98.0797 0)
(3.7509 -98.0101 0)
(-1.24966 -98.0969 0)
(-1.2567 -98.0956 0)
(-1.24811 -98.0795 0)
(3.75227 -98.01 0)
(-1.24966 -98.0964 0)
(-1.25655 -98.1006 0)
(-1.24741 -98.0721 0)
(3.75364 -98.0086 0)
(-1.24979 -98.0882 0)
(-1.25629 -98.1028 0)
(-1.24657 -98.078 0)
(3.75487 -98.0082 0)
(-1.25026 -98.0809 0)
(-1.25638 -98.0986 0)
(-1.24584 -98.0853 0)
(3.75627 -98.009 0)
(-1.25016 -98.089 0)
(-1.25636 -98.0981 0)
(-1.24508 -98.078 0)
(3.75776 -98.0094 0)
(-1.25019 -97.7595 0)
(-1.2562 -97.6602 0)
(-1.24436 -97.7518 0)
(3.75898 -97.7982 0)
(-1.24949 -75.6057 0)
(-1.25623 -75.5221 0)
(-1.24738 -75.6475 0)
(3.75836 -76.0542 0)
(3.74755 -32.653 0)
(-1.24821 -31.8984 0)
(-1.24282 -32.0757 0)
(-1.24749 -31.9225 0)
(3.75091 -10.2702 0)
(-1.24517 -10.0261 0)
(-1.24296 -10.0959 0)
(-1.24716 -10.0378 0)
(3.7509 -9.7933 0)
(-1.2453 -9.80168 0)
(-1.24301 -9.80917 0)
(-1.24716 -9.80884 0)
(3.7509 -9.79368 0)
(-1.24544 -9.80154 0)
(-1.24308 -9.8089 0)
(-1.24717 -9.80898 0)
(3.75089 -9.79501 0)
(-1.24556 -9.80199 0)
(-1.24314 -9.80913 0)
(-1.24718 -9.80894 0)
(3.75089 -9.79541 0)
(-1.24567 -9.80224 0)
(-1.24319 -9.80904 0)
(-1.24718 -9.80896 0)
(3.75089 -9.79579 0)
(-1.24579 -9.80266 0)
(-1.24325 -9.80887 0)
(-1.24719 -9.809 0)
(3.75089 -9.79577 0)
(-1.24589 -9.8028 0)
(-1.2433 -9.80858 0)
(-1.24719 -9.809 0)
(3.75089 -9.79579 0)
(-1.246 -9.80297 0)
(-1.24335 -9.8084 0)
(-1.2472 -9.80901 0)
(3.75089 -9.79582 0)
(-1.2461 -9.80315 0)
(-1.2434 -9.80815 0)
(-1.2472 -9.80893 0)
(3.75089 -9.79569 0)
(-1.2462 -9.80299 0)
(-1.24345 -9.80801 0)
(-1.24721 -9.80879 0)
(3.75089 -9.79546 0)
(-1.24631 -9.80251 0)
(-1.2435 -9.80791 0)
(-1.24722 -9.80863 0)
(3.75089 -9.79508 0)
(-1.24641 -9.80226 0)
(-1.24355 -9.80756 0)
(-1.24723 -9.80863 0)
(3.7509 -9.79506 0)
(-1.24651 -9.80234 0)
(-1.2436 -9.80701 0)
(-1.24725 -9.8093 0)
(3.75091 -9.79497 0)
(-1.24661 -9.80299 0)
(-1.24367 -9.80576 0)
(-1.24728 -9.81061 0)
(3.75095 -9.79539 0)
(-1.24669 -9.80431 0)
(-1.24373 -9.80438 0)
(-1.24732 -9.81236 0)
(3.75099 -9.7958 0)
(-1.24676 -9.80511 0)
(-1.2438 -9.80324 0)
(-1.24738 -9.81383 0)
(3.75106 -9.7957 0)
(-1.24682 -9.80529 0)
(-1.24388 -9.8024 0)
(-1.24746 -9.8145 0)
(3.75112 -9.79567 0)
(-1.24687 -9.80516 0)
(-1.24395 -9.80212 0)
(-1.24755 -9.8147 0)
(3.75119 -9.7954 0)
(-1.24693 -9.80467 0)
(-1.24403 -9.80205 0)
(-1.24763 -9.81445 0)
(3.75126 -9.79519 0)
(-1.24698 -9.80447 0)
(-1.24412 -9.80193 0)
(-1.24773 -9.81438 0)
(3.75133 -9.7952 0)
(-1.24704 -9.80457 0)
(-1.2442 -9.8018 0)
(-1.24782 -9.81436 0)
(3.7514 -9.79528 0)
(-1.24709 -9.80469 0)
(-1.24428 -9.80165 0)
(-1.24791 -9.81433 0)
(3.75146 -9.79531 0)
(-1.24714 -9.80478 0)
(-1.24436 -9.80156 0)
(-1.248 -9.8143 0)
(3.75153 -9.79539 0)
(-1.2472 -9.80488 0)
(-1.24444 -9.80144 0)
(-1.24809 -9.8142 0)
(3.7516 -9.79601 0)
(-1.24725 -9.80546 0)
(-1.24452 -9.80141 0)
(-1.24818 -9.8142 0)
(3.75167 -9.79657 0)
(-1.24729 -9.80614 0)
(-1.24458 -9.80138 0)
(-1.24827 -9.81419 0)
(3.75173 -9.79708 0)
(-1.24733 -9.80647 0)
(-1.24465 -9.80159 0)
(-1.24836 -9.81408 0)
(3.75179 -9.79832 0)
(-1.24736 -9.80683 0)
(-1.24471 -9.8026 0)
(-1.24843 -9.81375 0)
(3.75184 -9.79962 0)
(-1.2474 -9.80654 0)
(-1.24476 -9.80423 0)
(-1.2485 -9.81321 0)
(3.75188 -9.80117 0)
(-1.24744 -9.80601 0)
(-1.24482 -9.80609 0)
(-1.24854 -9.81256 0)
(3.75191 -9.8033 0)
(-1.24748 -9.80632 0)
(-1.24487 -9.80778 0)
(-1.24858 -9.81208 0)
(3.75194 -9.80475 0)
(-1.24751 -9.80675 0)
(-1.24492 -9.80868 0)
(-1.2486 -9.81181 0)
(3.75196 -9.80564 0)
(-1.24754 -9.80733 0)
(-1.24496 -9.80895 0)
(-1.24861 -9.8117 0)
(3.75199 -9.80626 0)
(-1.24757 -9.80799 0)
(-1.24499 -9.80903 0)
(-1.24862 -9.81168 0)
(3.752 -9.80632 0)
(-1.24759 -9.80815 0)
(-1.24502 -9.80909 0)
(-1.24863 -9.81159 0)
(3.75202 -9.80625 0)
(-1.24761 -9.80815 0)
(-1.24505 -9.80913 0)
(-1.24863 -9.81146 0)
(3.75204 -9.8062 0)
(-1.24764 -9.80817 0)
(-1.24507 -9.80917 0)
(-1.24864 -9.81133 0)
(3.75206 -9.80614 0)
(-1.24766 -9.80817 0)
(-1.2451 -9.8092 0)
(-1.24864 -9.81119 0)
(3.75208 -9.8061 0)
(-1.24769 -9.80819 0)
(-1.24513 -9.80923 0)
(-1.24864 -9.81106 0)
(3.7521 -9.80608 0)
(-1.24772 -9.80823 0)
(-1.24515 -9.80928 0)
(-1.24864 -9.81092 0)
(3.75212 -9.80606 0)
(-1.24774 -9.80831 0)
(-1.24517 -9.80933 0)
(-1.24863 -9.81077 0)
(3.75214 -9.80615 0)
(-1.24777 -9.80844 0)
(-1.24519 -9.80936 0)
(-1.24863 -9.81063 0)
(3.75215 -9.80662 0)
(-1.2478 -9.80861 0)
(-1.24521 -9.80943 0)
(-1.24862 -9.81067 0)
(3.75217 -9.80753 0)
(-1.24782 -9.8088 0)
(-1.24522 -9.80957 0)
(-1.24862 -9.81093 0)
(3.75218 -9.80857 0)
(-1.24783 -9.80891 0)
(-1.24524 -9.80972 0)
(-1.24862 -9.81128 0)
(3.75218 -9.80948 0)
(-1.24784 -9.80903 0)
(-1.24526 -9.80989 0)
(-1.24863 -9.81153 0)
(3.75219 -9.81004 0)
(-1.24784 -9.80917 0)
(-1.24528 -9.81003 0)
(-1.24864 -9.81158 0)
(3.75219 -9.81017 0)
(-1.24784 -9.80928 0)
(-1.2453 -9.81009 0)
(-1.24865 -9.81147 0)
(3.75219 -9.81018 0)
(-1.24784 -9.8094 0)
(-1.24532 -9.81009 0)
(-1.24865 -9.81131 0)
(3.75219 -9.8102 0)
(-1.24784 -9.80949 0)
(-1.24534 -9.81009 0)
(-1.24866 -9.81119 0)
(3.75219 -9.81018 0)
(-1.24783 -9.80955 0)
(-1.24535 -9.81007 0)
(-1.24866 -9.81106 0)
(3.75219 -9.81014 0)
(-1.24783 -9.80962 0)
(-1.24536 -9.81007 0)
(-1.24867 -9.81093 0)
(3.75219 -9.81011 0)
(-1.24783 -9.80969 0)
(-1.24537 -9.81007 0)
(-1.24867 -9.81079 0)
(3.75219 -9.81007 0)
(-1.24783 -9.80975 0)
(-1.24538 -9.81006 0)
(-1.24867 -9.81066 0)
(3.7522 -9.81005 0)
(-1.24783 -9.80981 0)
(-1.24539 -9.81006 0)
(-1.24868 -9.81053 0)
(3.7522 -9.81002 0)
(-1.24783 -9.80987 0)
(-1.24539 -9.81006 0)
(-1.24868 -9.8104 0)
(3.7522 -9.80999 0)
(-1.24783 -9.80992 0)
(-1.24539 -9.81006 0)
(-1.24868 -9.81028 0)
(3.75219 -9.80996 0)
(-1.24783 -9.80998 0)
(-1.2454 -9.81005 0)
(-1.24868 -9.81018 0)
(3.75219 -9.80997 0)
(-1.24784 -9.81 0)
(-1.2454 -9.81002 0)
(-1.24868 -9.81007 0)
(-1.2515 -32.0654 0)
(-1.2569 -32.2056 0)
(-1.25323 -32.1549 0)
(3.7526 -32.5878 0)
(-1.2542 -10.0761 0)
(-1.25773 -10.1987 0)
(-1.25375 -10.125 0)
(3.75006 -10.2269 0)
(-1.25418 -9.80975 0)
(-1.25771 -9.80711 0)
(-1.2537 -9.80784 0)
(3.75018 -9.80085 0)
(-1.25418 -9.80979 0)
(-1.25769 -9.80739 0)
(-1.25364 -9.80756 0)
(3.7503 -9.80146 0)
(-1.25416 -9.80976 0)
(-1.25767 -9.8073 0)
(-1.2536 -9.80773 0)
(3.75041 -9.8016 0)
(-1.25415 -9.80959 0)
(-1.25766 -9.80778 0)
(-1.25355 -9.80796 0)
(3.75052 -9.80191 0)
(-1.25414 -9.8094 0)
(-1.25765 -9.80746 0)
(-1.2535 -9.80787 0)
(3.75062 -9.80243 0)
(-1.25412 -9.80917 0)
(-1.25763 -9.80751 0)
(-1.25347 -9.80771 0)
(3.75072 -9.80266 0)
(-1.25411 -9.80903 0)
(-1.25762 -9.80758 0)
(-1.25342 -9.80764 0)
(3.75082 -9.80286 0)
(-1.2541 -9.80881 0)
(-1.25761 -9.80757 0)
(-1.25339 -9.80752 0)
(3.75091 -9.80309 0)
(-1.25409 -9.80888 0)
(-1.2576 -9.80803 0)
(-1.25335 -9.80779 0)
(3.75101 -9.80306 0)
(-1.25409 -9.80911 0)
(-1.25759 -9.80857 0)
(-1.2533 -9.80844 0)
(3.75112 -9.80277 0)
(-1.25409 -9.80935 0)
(-1.25759 -9.80901 0)
(-1.25325 -9.80852 0)
(3.75123 -9.80281 0)
(-1.25409 -9.80982 0)
(-1.25758 -9.80926 0)
(-1.2532 -9.80791 0)
(3.75134 -9.8038 0)
(-1.25409 -9.81047 0)
(-1.25756 -9.80939 0)
(-1.25316 -9.80614 0)
(3.75144 -9.80598 0)
(-1.25407 -9.81092 0)
(-1.25751 -9.80901 0)
(-1.25314 -9.8035 0)
(3.75153 -9.80917 0)
(-1.25403 -9.81155 0)
(-1.25743 -9.8093 0)
(-1.25316 -9.80172 0)
(3.75158 -9.81176 0)
(-1.254 -9.81217 0)
(-1.25734 -9.8099 0)
(-1.25319 -9.80113 0)
(3.75162 -9.81303 0)
(-1.25396 -9.8124 0)
(-1.25725 -9.81049 0)
(-1.25321 -9.80134 0)
(3.75167 -9.81332 0)
(-1.25393 -9.81272 0)
(-1.25716 -9.81117 0)
(-1.25323 -9.80204 0)
(3.75172 -9.81289 0)
(-1.2539 -9.81282 0)
(-1.25707 -9.81152 0)
(-1.25324 -9.80238 0)
(3.75178 -9.81268 0)
(-1.25388 -9.81279 0)
(-1.25698 -9.8116 0)
(-1.25325 -9.80235 0)
(3.75184 -9.81274 0)
(-1.25386 -9.81271 0)
(-1.2569 -9.81163 0)
(-1.25326 -9.80232 0)
(3.7519 -9.81281 0)
(-1.25383 -9.81259 0)
(-1.25681 -9.81174 0)
(-1.25327 -9.80235 0)
(3.75196 -9.81286 0)
(-1.25381 -9.81248 0)
(-1.25673 -9.81183 0)
(-1.25328 -9.80241 0)
(3.75202 -9.81291 0)
(-1.25379 -9.81226 0)
(-1.25664 -9.8117 0)
(-1.25329 -9.80258 0)
(3.75207 -9.81353 0)
(-1.25377 -9.81176 0)
(-1.25657 -9.811 0)
(-1.25331 -9.80202 0)
(3.75213 -9.81403 0)
(-1.25374 -9.8113 0)
(-1.25648 -9.81039 0)
(-1.25334 -9.8014 0)
(3.75216 -9.81386 0)
(-1.25371 -9.81096 0)
(-1.2564 -9.80979 0)
(-1.25337 -9.80161 0)
(3.7522 -9.81356 0)
(-1.25367 -9.81063 0)
(-1.25633 -9.80921 0)
(-1.2534 -9.80181 0)
(3.75222 -9.81194 0)
(-1.25364 -9.8109 0)
(-1.25625 -9.80952 0)
(-1.25341 -9.80355 0)
(3.75223 -9.81036 0)
(-1.25362 -9.81106 0)
(-1.2562 -9.80962 0)
(-1.25342 -9.80548 0)
(3.75226 -9.80996 0)
(-1.2536 -9.81082 0)
(-1.25616 -9.80918 0)
(-1.25342 -9.8059 0)
(3.75227 -9.80963 0)
(-1.25358 -9.81063 0)
(-1.25612 -9.80885 0)
(-1.25342 -9.80618 0)
(3.75228 -9.81002 0)
(-1.25355 -9.81011 0)
(-1.25609 -9.80824 0)
(-1.25344 -9.8057 0)
(3.75228 -9.81046 0)
(-1.25352 -9.80966 0)
(-1.25605 -9.80773 0)
(-1.25346 -9.80513 0)
(3.75227 -9.8104 0)
(-1.25349 -9.80953 0)
(-1.25601 -9.80777 0)
(-1.25348 -9.80529 0)
(3.75226 -9.8104 0)
(-1.25346 -9.80941 0)
(-1.25598 -9.80786 0)
(-1.25351 -9.80546 0)
(3.75225 -9.81041 0)
(-1.25343 -9.80929 0)
(-1.25594 -9.80792 0)
(-1.25353 -9.80561 0)
(3.75225 -9.81043 0)
(-1.25341 -9.80917 0)
(-1.25592 -9.80798 0)
(-1.25355 -9.80574 0)
(3.75224 -9.81047 0)
(-1.25338 -9.80902 0)
(-1.25589 -9.80797 0)
(-1.25357 -9.80579 0)
(3.75224 -9.81054 0)
(-1.25336 -9.80883 0)
(-1.25586 -9.80795 0)
(-1.25359 -9.80583 0)
(3.75224 -9.81063 0)
(-1.25333 -9.80877 0)
(-1.25584 -9.80803 0)
(-1.25361 -9.80607 0)
(3.75224 -9.81065 0)
(-1.25331 -9.80903 0)
(-1.25582 -9.80826 0)
(-1.25363 -9.80661 0)
(3.75224 -9.81048 0)
(-1.25329 -9.8096 0)
(-1.2558 -9.80869 0)
(-1.25365 -9.8074 0)
(3.75224 -9.81019 0)
(-1.25328 -9.81029 0)
(-1.25578 -9.80916 0)
(-1.25366 -9.80815 0)
(3.75224 -9.80984 0)
(-1.25326 -9.81081 0)
(-1.25576 -9.8095 0)
(-1.25366 -9.80862 0)
(3.75223 -9.80957 0)
(-1.25324 -9.811 0)
(-1.25574 -9.80969 0)
(-1.25366 -9.80882 0)
(3.75222 -9.80949 0)
(-1.25323 -9.81091 0)
(-1.25573 -9.80974 0)
(-1.25366 -9.80884 0)
(3.75221 -9.80952 0)
(-1.25321 -9.81077 0)
(-1.25571 -9.80973 0)
(-1.25366 -9.80886 0)
(3.7522 -9.80959 0)
(-1.2532 -9.81067 0)
(-1.25569 -9.80975 0)
(-1.25366 -9.80896 0)
(3.75219 -9.80965 0)
(-1.25319 -9.8106 0)
(-1.25568 -9.80979 0)
(-1.25365 -9.80908 0)
(3.75218 -9.80968 0)
(-1.25318 -9.81054 0)
(-1.25567 -9.80981 0)
(-1.25365 -9.80919 0)
(3.75217 -9.80971 0)
(-1.25317 -9.81047 0)
(-1.25566 -9.80984 0)
(-1.25365 -9.80931 0)
(3.75216 -9.80974 0)
(-1.25316 -9.81039 0)
(-1.25565 -9.80986 0)
(-1.25365 -9.80942 0)
(3.75216 -9.80978 0)
(-1.25316 -9.81032 0)
(-1.25564 -9.80988 0)
(-1.25365 -9.80954 0)
(3.75215 -9.80982 0)
(-1.25315 -9.81024 0)
(-1.25564 -9.8099 0)
(-1.25365 -9.80965 0)
(3.75215 -9.80986 0)
(-1.25315 -9.81017 0)
(-1.25563 -9.80993 0)
(-1.25365 -9.80976 0)
(3.75215 -9.8099 0)
(-1.25315 -9.8101 0)
(-1.25563 -9.80994 0)
(-1.25365 -9.80986 0)
(3.75214 -9.80994 0)
(-1.25315 -9.81003 0)
(-1.25563 -9.80997 0)
(-1.25365 -9.80995 0)
(3.75214 -9.80998 0)
)
;

boundaryField
{
    topWall
    {
        type            extrapolatedCalculated;
        value           nonuniform List<vector> 8((3.75219 -9.80997 0) (-1.24784 -9.81 0) (-1.2454 -9.81002 0) (-1.24868 -9.81007 0) (-1.25315 -9.81003 0) (-1.25563 -9.80997 0) (-1.25365 -9.80995 0) (3.75214 -9.80998 0));
    }
    botWall
    {
        type            extrapolatedCalculated;
        value           nonuniform List<vector> 8((3.74714 -99.5082 0) (-1.16484 -98.3056 0) (-1.22819 -98.113 0) (-1.25069 -98.117 0) (-1.24083 -98.1159 0) (-1.24004 -98.1302 0) (-1.27811 -98.1135 0) (3.65558 -98.1305 0));
    }
    inlet
    {
        type            cyclic;
    }
    outlet
    {
        type            cyclic;
    }
    fixWall
    {
        type            empty;
    }
}


// ************************************************************************* //
