/*--------------------------------*- C++ -*----------------------------------*\
  =========                 |
  \\      /  F ield         | OpenFOAM: The Open Source CFD Toolbox
   \\    /   O peration     | Website:  https://openfoam.org
    \\  /    A nd           | Version:  dev
     \\/     M anipulation  |

   OpenFOAM for Windows 20.09 (v1)
   Built by CFD Support, www.cfdsupport.com (based on Symscape).
\*---------------------------------------------------------------------------*/
FoamFile
{
    version     2.0;
    format      ascii;
    class       volTensorField;
    location    "4";
    object      gradU;
}
// * * * * * * * * * * * * * * * * * * * * * * * * * * * * * * * * * * * * * //

dimensions      [0 0 -1 0 0 0 0];

internalField   nonuniform List<tensor> 
960
(
(-0.000286374 1.39052e-07 0 4.18051 0.0061659 0 0 0 0)
(3.99993e-05 -0.000117681 0 4.16605 -0.00049958 0 0 0 0)
(0.000100661 1.03648e-06 0 4.19392 -6.09483e-05 0 0 0 0)
(-0.00019077 3.63033e-07 0 4.17446 0.000227631 0 0 0 0)
(-0.000325394 1.86963e-07 0 3.67389 -0.00175174 0 0 0 0)
(0.000183516 1.39001e-05 0 3.67801 -0.000684567 0 0 0 0)
(3.95683e-05 1.10837e-05 0 3.69097 -2.05191e-05 0 0 0 0)
(-0.000558999 3.50785e-06 0 3.67043 0.000566147 0 0 0 0)
(-0.000337168 -4.93427e-07 0 3.20614 0.00205642 0 0 0 0)
(0.000324626 -8.88273e-05 0 3.21055 -0.000757656 0 0 0 0)
(-2.56579e-05 2.18817e-05 0 3.22148 3.07411e-05 0 0 0 0)
(-0.000852123 6.1589e-06 0 3.20416 0.000851549 0 0 0 0)
(-0.000397601 -2.28425e-06 0 2.78154 -0.00224321 0 0 0 0)
(0.000439246 -1.98612e-05 0 2.78544 -0.000871496 0 0 0 0)
(-6.6945e-05 3.79038e-05 0 2.79383 0.000101619 0 0 0 0)
(-0.00106361 1.11878e-05 0 2.78002 0.00108252 0 0 0 0)
(-0.000433512 -4.12714e-06 0 2.3984 0.00140047 0 0 0 0)
(0.000529532 -4.97469e-05 0 2.40337 -0.000971507 0 0 0 0)
(-0.000115882 5.44487e-05 0 2.40836 0.000101709 0 0 0 0)
(-0.00121407 1.41075e-05 0 2.39756 0.00122817 0 0 0 0)
(-0.000447484 -7.38557e-06 0 2.05481 0.0011452 0 0 0 0)
(0.000605242 -4.15073e-05 0 2.06057 -0.000996642 0 0 0 0)
(-0.000163766 7.45651e-05 0 2.06328 0.000202603 0 0 0 0)
(-0.00131869 2.04596e-05 0 2.05522 0.00133612 0 0 0 0)
(-0.00043832 -1.00894e-05 0 1.74896 0.0013984 0 0 0 0)
(0.00067071 -6.54568e-05 0 1.75461 -0.00108601 0 0 0 0)
(-0.00020512 9.33281e-05 0 1.75615 0.000171055 0 0 0 0)
(-0.00139073 2.24844e-05 0 1.75076 0.00140733 0 0 0 0)
(-0.00042324 -1.50825e-05 0 1.47832 0.000906422 0 0 0 0)
(0.000725016 -6.1963e-05 0 1.48364 -0.00107956 0 0 0 0)
(-0.000227873 0.000116121 0 1.48467 0.000265775 0 0 0 0)
(-0.00143074 2.99468e-05 0 1.48163 0.0014433 0 0 0 0)
(-0.000399563 -1.86325e-05 0 1.2406 0.00116715 0 0 0 0)
(0.000776511 -7.61343e-05 0 1.24562 -0.00114925 0 0 0 0)
(-0.000238696 0.000135376 0 1.24629 0.000201204 0 0 0 0)
(-0.0014499 3.11612e-05 0 1.24559 0.00146534 0 0 0 0)
(-0.000378566 -2.53416e-05 0 1.03289 0.000908577 0 0 0 0)
(0.000819942 -7.80621e-05 0 1.03843 -0.00114018 0 0 0 0)
(-0.000228389 0.000159697 0 1.03857 0.000270338 0 0 0 0)
(-0.00143744 3.95274e-05 0 1.03961 0.0014501 0 0 0 0)
(-0.000347853 -3.05461e-05 0 0.852973 0.00104033 0 0 0 0)
(0.000871185 -8.67716e-05 0 0.859049 -0.001209 0 0 0 0)
(-0.000219022 0.000178547 0 0.858409 0.000167289 0 0 0 0)
(-0.00140677 4.01165e-05 0 0.861416 0.00142573 0 0 0 0)
(-0.000328846 -3.94237e-05 0 0.69785 0.000836181 0 0 0 0)
(0.000910557 -9.26128e-05 0 0.705788 -0.00123369 0 0 0 0)
(-0.000188936 0.000203609 0 0.703497 0.000171328 0 0 0 0)
(-0.00133917 4.9781e-05 0 0.708299 0.00135085 0 0 0 0)
(-0.0002887 -4.68322e-05 0 0.563824 0.000930525 0 0 0 0)
(0.00096529 -9.78525e-05 0 0.574315 -0.00115726 0 0 0 0)
(-0.000177172 0.000221623 0 0.57109 0.000232887 0 0 0 0)
(-0.00124255 4.96938e-05 0 0.577763 0.00128759 0 0 0 0)
(-0.000289991 -5.99732e-05 0 0.449089 0.000843923 0 0 0 0)
(0.00103166 -0.00010424 0 0.46365 -0.00143706 0 0 0 0)
(-0.000131471 0.000244357 0 0.458858 -2.01285e-05 0 0 0 0)
(-0.00109872 5.70688e-05 0 0.466909 0.00110782 0 0 0 0)
(-0.000259079 -7.22613e-05 0 0.351846 0.000708827 0 0 0 0)
(0.0011281 -0.000112253 0 0.370415 -0.00137522 0 0 0 0)
(-0.000122844 0.000264037 0 0.363825 0.000259041 0 0 0 0)
(-0.000915813 5.96387e-05 0 0.373757 0.000811347 0 0 0 0)
(-0.000300917 -9.45029e-05 0 0.282097 0.000657595 0 0 0 0)
(0.0012313 -0.000111737 0 0.295802 -0.00159463 0 0 0 0)
(-7.57717e-05 0.0002808 0 0.288253 7.84211e-05 0 0 0 0)
(-0.000612229 6.0278e-05 0 0.299546 0.000594374 0 0 0 0)
(-0.00022636 -0.000118678 0 0.229878 0.000632872 0 0 0 0)
(0.0012307 -0.000121906 0 0.235298 -0.0015921 0 0 0 0)
(-6.04386e-05 0.000300521 0 0.229888 0.000197594 0 0 0 0)
(-0.000416502 6.25651e-05 0 0.240007 0.000281605 0 0 0 0)
(-0.000217943 -0.000141802 0 0.181337 0.000525489 0 0 0 0)
(0.00123146 -0.000118991 0 0.183679 -0.00151515 0 0 0 0)
(2.71141e-06 0.000312028 0 0.181175 0.000115658 0 0 0 0)
(-0.00027333 6.12837e-05 0 0.189212 0.000202225 0 0 0 0)
(-0.000187781 -0.000167993 0 0.142201 0.000660114 0 0 0 0)
(0.00122801 -0.000128737 0 0.142644 -0.00147901 0 0 0 0)
(3.17923e-05 0.000329144 0 0.141401 5.08798e-05 0 0 0 0)
(-0.00017424 6.44509e-05 0 0.147516 0.000119967 0 0 0 0)
(-0.000194558 -0.000191035 0 0.110675 0.000522045 0 0 0 0)
(0.00121813 -0.000129145 0 0.109421 -0.00148691 0 0 0 0)
(8.39048e-05 0.000338678 0 0.109347 4.51422e-05 0 0 0 0)
(-9.8153e-05 6.29102e-05 0 0.114094 7.54856e-06 0 0 0 0)
(-0.000190424 -0.000216599 0 0.0856754 0.000544257 0 0 0 0)
(0.00120588 -0.000136685 0 0.0835756 -0.00149436 0 0 0 0)
(0.000109679 0.000354051 0 0.0835273 -3.38677e-05 0 0 0 0)
(-4.72174e-05 6.65259e-05 0 0.0870957 -3.9442e-05 0 0 0 0)
(-0.00020566 -0.000241227 0 0.0659307 0.000525394 0 0 0 0)
(0.00118233 -0.000138781 0 0.063013 -0.001405 0 0 0 0)
(0.000142573 0.000362926 0 0.0629631 1.05701e-05 0 0 0 0)
(-3.23963e-06 6.53745e-05 0 0.066228 -5.35283e-05 0 0 0 0)
(-0.000212068 -0.000265231 0 0.0505769 0.000521357 0 0 0 0)
(0.00115642 -0.000145266 0 0.0471514 -0.00146134 0 0 0 0)
(0.000163262 0.000376576 0 0.0468345 -0.000108824 0 0 0 0)
(3.08899e-05 6.85565e-05 0 0.049755 -0.000136373 0 0 0 0)
(-0.000235965 -0.000290353 0 0.0391527 0.000562037 0 0 0 0)
(0.00111996 -0.000149284 0 0.0350527 -0.00131291 0 0 0 0)
(0.000185966 0.000385009 0 0.034111 -3.45273e-05 0 0 0 0)
(5.9672e-05 6.85033e-05 0 0.0372285 -0.000118245 0 0 0 0)
(-0.000246187 -0.000312386 0 0.030722 0.000553088 0 0 0 0)
(0.00107239 -0.000155208 0 0.0260615 -0.0012946 0 0 0 0)
(0.000199525 0.000396487 0 0.0243751 -0.000128658 0 0 0 0)
(9.01259e-05 7.05995e-05 0 0.0274562 -0.000164457 0 0 0 0)
(-0.000270589 -0.000337678 0 0.025042 0.000451793 0 0 0 0)
(0.00101418 -0.000160646 0 0.019372 -0.00131982 0 0 0 0)
(0.000209211 0.000403845 0 0.0169565 -0.000103806 0 0 0 0)
(0.000107538 7.08807e-05 0 0.0202968 -0.000213779 0 0 0 0)
(-0.000282912 -0.0003565 0 0.0217038 0.00054906 0 0 0 0)
(0.000937635 -0.000164468 0 0.0146829 -0.00120391 0 0 0 0)
(0.000214937 0.000414921 0 0.0108341 -8.89113e-05 0 0 0 0)
(0.000133432 7.3756e-05 0 0.0145743 -0.000227514 0 0 0 0)
(-0.000309148 -0.000382803 0 0.0208122 0.000438631 0 0 0 0)
(0.000833015 -0.000171279 0 0.0117159 -0.00104465 0 0 0 0)
(0.000207401 0.000420118 0 0.0059935 -0.00010528 0 0 0 0)
(0.000147844 7.48173e-05 0 0.010929 -0.000289657 0 0 0 0)
(-0.000318076 -0.000397043 0 0.022105 0.000586046 0 0 0 0)
(0.000690657 -0.000173533 0 0.00953898 -0.000913258 0 0 0 0)
(0.000201823 0.000427504 0 0.000653441 -9.66957e-05 0 0 0 0)
(0.000186624 7.55801e-05 0 0.00824583 -0.000224896 0 0 0 0)
(-0.000348692 -0.000418002 0 0.0251373 0.000680651 0 0 0 0)
(0.000475489 -0.000182658 0 0.00826086 -0.000386263 0 0 0 0)
(0.000185849 0.000431591 0 -0.00052842 -0.000210725 0 0 0 0)
(0.000240807 7.74487e-05 0 0.00891711 -0.000283618 0 0 0 0)
(-0.000394313 -0.000428763 0 0.0248856 0.000520434 0 0 0 0)
(0.000262895 -0.00018839 0 0.00715311 -0.000128576 0 0 0 0)
(0.00021276 0.000429215 0 0.000149021 -0.000232625 0 0 0 0)
(0.00030462 7.70581e-05 0 0.00857699 -0.000261004 0 0 0 0)
(-0.000471203 -0.000433474 0 0.0218327 0.000661608 0 0 0 0)
(6.32129e-05 -0.000195209 0 0.00788553 -0.000164379 0 0 0 0)
(0.00020958 0.000429384 0 0.00119008 -0.000357006 0 0 0 0)
(0.000331509 7.99121e-05 0 0.0068266 -0.000384827 0 0 0 0)
(-0.000510447 -0.000444734 0 0.0205173 0.000587547 0 0 0 0)
(-8.1148e-05 -0.000205367 0 0.0107421 0.000217305 0 0 0 0)
(0.000195112 0.000425541 0 0.00525893 -0.000261397 0 0 0 0)
(0.000355945 8.48162e-05 0 0.00853607 -0.000378268 0 0 0 0)
(-0.000554148 -0.000442562 0 0.0212611 0.000520972 0 0 0 0)
(-0.000191094 -0.000209358 0 0.0140094 0.000142407 0 0 0 0)
(0.000172813 0.000419457 0 0.00939349 -0.000280915 0 0 0 0)
(0.000364744 8.67636e-05 0 0.0116701 -0.000460014 0 0 0 0)
(-0.000575982 -0.000450079 0 0.024212 0.00071876 0 0 0 0)
(-0.000278941 -0.000218731 0 0.0185321 0.000289983 0 0 0 0)
(0.000156122 0.0004155 0 0.0149398 -0.000241735 0 0 0 0)
(0.000382122 9.19879e-05 0 0.0169664 -0.000441896 0 0 0 0)
(-0.000606414 -0.000449378 0 0.0291801 0.000735592 0 0 0 0)
(-0.00034563 -0.000225366 0 0.0243106 0.000486305 0 0 0 0)
(0.000146718 0.000407259 0 0.0214668 -0.000233407 0 0 0 0)
(0.000394236 9.35201e-05 0 0.0234118 -0.00037883 0 0 0 0)
(-0.000627034 -0.000451444 0 0.0368359 0.000665168 0 0 0 0)
(-0.000407496 -0.000234881 0 0.0324839 0.000433544 0 0 0 0)
(0.000141143 0.000401082 0 0.0299491 -0.000257921 0 0 0 0)
(0.000417672 9.6071e-05 0 0.0319199 -0.000531254 0 0 0 0)
(-0.000649054 -0.000451315 0 0.0475191 0.000787548 0 0 0 0)
(-0.00046041 -0.000240751 0 0.0432899 0.000561089 0 0 0 0)
(0.000137318 0.00039118 0 0.0408113 -0.000192653 0 0 0 0)
(0.000440942 9.91318e-05 0 0.0426733 -0.000397497 0 0 0 0)
(-0.000663195 -0.000451065 0 0.0617849 0.000679022 0 0 0 0)
(-0.000519293 -0.000251218 0 0.0574392 0.000551329 0 0 0 0)
(0.000130866 0.000385105 0 0.0547274 -0.000266911 0 0 0 0)
(0.000473122 9.99673e-05 0 0.0566946 -0.000609412 0 0 0 0)
(-0.000673425 -0.000450311 0 0.0806357 0.000776674 0 0 0 0)
(-0.000578035 -0.000256517 0 0.0758058 0.00062845 0 0 0 0)
(0.000124909 0.000371834 0 0.0724679 -0.000152689 0 0 0 0)
(0.000507881 0.000103931 0 0.0744238 -0.000514229 0 0 0 0)
(-0.000671422 -0.000447684 0 0.104584 0.0007115 0 0 0 0)
(-0.000655423 -0.000266707 0 0.0992599 0.00072851 0 0 0 0)
(0.000107833 0.00036606 0 0.0951266 -0.000257134 0 0 0 0)
(0.000551344 0.000103327 0 0.0971745 -0.000607116 0 0 0 0)
(-0.00065825 -0.000445137 0 0.134835 0.000716981 0 0 0 0)
(-0.000735661 -0.00027266 0 0.129061 0.000934263 0 0 0 0)
(9.01524e-05 0.000349573 0 0.123998 -0.000101566 0 0 0 0)
(0.000594012 0.000106459 0 0.125832 -0.000628381 0 0 0 0)
(-0.000621739 -0.000440337 0 0.172243 0.000509761 0 0 0 0)
(-0.00083603 -0.00028035 0 0.166797 0.000913398 0 0 0 0)
(5.40149e-05 0.000340016 0 0.160726 -0.000195026 0 0 0 0)
(0.00064092 0.000102896 0 0.161884 -0.000600899 0 0 0 0)
(-0.00055458 -0.000433467 0 0.217581 0.000730574 0 0 0 0)
(-0.000927609 -0.000284407 0 0.2135 0.000982167 0 0 0 0)
(8.26949e-06 0.000324335 0 0.207339 -6.66571e-05 0 0 0 0)
(0.000666627 0.000106914 0 0.206604 -0.000870609 0 0 0 0)
(-0.00044428 -0.000427341 0 0.273183 0.000620341 0 0 0 0)
(-0.00100672 -0.000293637 0 0.273485 0.00105256 0 0 0 0)
(-6.09184e-05 0.000309137 0 0.266894 6.8946e-05 0 0 0 0)
(0.000669052 0.000101494 0 0.25784 -0.000611356 0 0 0 0)
(-0.000200592 -0.000415182 0 0.340607 0.000172294 0 0 0 0)
(-0.00103242 -0.000293597 0 0.340199 0.000889368 0 0 0 0)
(-0.000252489 0.000296603 0 0.33087 2.98859e-05 0 0 0 0)
(0.000529975 0.000102481 0 0.320482 -0.00072752 0 0 0 0)
(-5.43604e-05 -0.000404618 0 0.420256 0.000339335 0 0 0 0)
(-0.00116901 -0.000296011 0 0.415046 0.00130978 0 0 0 0)
(-0.000389537 0.000282189 0 0.404228 0.000384432 0 0 0 0)
(0.000531616 9.59536e-05 0 0.401642 -0.000400648 0 0 0 0)
(3.67545e-05 -0.000389934 0 0.514151 -0.000163885 0 0 0 0)
(-0.00129956 -0.000292845 0 0.507819 0.00139735 0 0 0 0)
(-0.000475891 0.000268096 0 0.498941 0.000367031 0 0 0 0)
(0.000564157 8.41251e-05 0 0.499314 -0.000511656 0 0 0 0)
(7.27806e-05 -0.000372362 0 0.624539 -0.000207057 0 0 0 0)
(-0.00142253 -0.000287162 0 0.61825 0.00155751 0 0 0 0)
(-0.000531302 0.000250372 0 0.611742 0.000383543 0 0 0 0)
(0.000606312 7.75645e-05 0 0.613492 -0.000525006 0 0 0 0)
(8.72289e-05 -0.000355165 0 0.754277 1.58411e-05 0 0 0 0)
(-0.00151285 -0.000283002 0 0.748675 0.00167731 0 0 0 0)
(-0.000555187 0.000233388 0 0.744101 0.000564921 0 0 0 0)
(0.00065523 6.27947e-05 0 0.746342 -0.000550853 0 0 0 0)
(7.2695e-05 -0.000334887 0 0.905766 -0.000183437 0 0 0 0)
(-0.00159212 -0.000278011 0 0.901119 0.00160056 0 0 0 0)
(-0.000570177 0.000213236 0 0.898062 0.000403086 0 0 0 0)
(0.000703024 5.37351e-05 0 0.900397 -0.000728778 0 0 0 0)
(6.29812e-05 -0.000315261 0 1.08119 2.52941e-06 0 0 0 0)
(-0.00164125 -0.000273226 0 1.07736 0.00175574 0 0 0 0)
(-0.000567222 0.000194565 0 1.07565 0.000572171 0 0 0 0)
(0.000752264 4.1003e-05 0 1.07782 -0.000686182 0 0 0 0)
(2.65565e-05 -0.00029287 0 1.28346 -0.000185034 0 0 0 0)
(-0.00168439 -0.000268517 0 1.27996 0.0017349 0 0 0 0)
(-0.000562499 0.000172537 0 1.27918 0.000404328 0 0 0 0)
(0.000801925 2.928e-05 0 1.2811 -0.000760388 0 0 0 0)
(7.12327e-06 -0.000273866 0 1.51429 0.000127977 0 0 0 0)
(-0.00171259 -0.000263404 0 1.51071 0.001846 0 0 0 0)
(-0.00054816 0.000152977 0 1.5112 0.000555013 0 0 0 0)
(0.00085332 1.71034e-05 0 1.51208 -0.00085212 0 0 0 0)
(-4.8584e-05 -0.000249382 0 1.77672 -0.000200432 0 0 0 0)
(-0.00173585 -0.000261399 0 1.77194 0.00175078 0 0 0 0)
(-0.000539767 0.000127568 0 1.77328 0.000386798 0 0 0 0)
(0.000892902 3.08425e-06 0 1.77307 -0.000804933 0 0 0 0)
(-7.38598e-05 -0.000232071 0 2.0714 0.000458485 0 0 0 0)
(-0.00176987 -0.000253617 0 2.06501 0.00195811 0 0 0 0)
(-0.000529285 0.000110382 0 2.0678 0.000571805 0 0 0 0)
(0.000925923 -6.66426e-06 0 2.06567 -0.000959811 0 0 0 0)
(-0.000147769 -0.000205343 0 2.40397 -1.18154e-05 0 0 0 0)
(-0.00179588 -0.000259511 0 2.39355 0.00207689 0 0 0 0)
(-0.000528813 7.89364e-05 0 2.39588 0.000419154 0 0 0 0)
(0.000921601 -2.69303e-05 0 2.39215 -0.000805738 0 0 0 0)
(-0.000168894 -0.000184534 0 2.77144 0.000910513 0 0 0 0)
(-0.00190465 -0.000246434 0 2.75872 0.00244609 0 0 0 0)
(-0.000552576 6.23381e-05 0 2.75858 0.000585999 0 0 0 0)
(0.00089105 -3.5261e-05 0 2.75261 -0.000860917 0 0 0 0)
(-0.000271053 -0.000156642 0 3.18235 0.00285993 0 0 0 0)
(-0.00201022 -0.000264919 0 3.16895 0.00338778 0 0 0 0)
(-0.00063063 2.38196e-05 0 3.16619 0.000579015 0 0 0 0)
(0.000786052 -5.64587e-05 0 3.16058 -0.000608883 0 0 0 0)
(-0.000166169 -0.000136085 0 4.96039 -0.000937411 0 0 0 0)
(-0.00217398 -0.000284449 0 4.97875 0.00129167 0 0 0 0)
(-0.00069197 -4.27287e-06 0 4.9582 1.77401e-05 0 0 0 0)
(0.000683875 -6.87346e-05 0 4.96104 -0.000292198 0 0 0 0)
(-0.000110641 -6.32849e-07 0 4.14893 0.000171305 0 0 0 0)
(0.000107887 -7.36123e-07 0 4.15066 -0.000129634 0 0 0 0)
(0.000296354 -5.42678e-07 0 4.17031 -0.000258191 0 0 0 0)
(4.28839e-05 0.000118054 0 4.20276 -0.000519141 0 0 0 0)
(-0.000286139 -5.32157e-06 0 3.65129 0.000327233 0 0 0 0)
(0.000248424 -6.42214e-06 0 3.65183 -0.000239599 0 0 0 0)
(0.000571964 -5.9491e-06 0 3.66502 -0.000529848 0 0 0 0)
(0.000127059 -1.09858e-05 0 3.68106 -0.000646618 0 0 0 0)
(-0.000420673 -1.40619e-05 0 3.1912 0.00049154 0 0 0 0)
(0.000336769 -1.50208e-05 0 3.19007 -0.000346893 0 0 0 0)
(0.000783499 -7.32634e-06 0 3.20072 -0.000752817 0 0 0 0)
(0.000190728 9.76892e-05 0 3.21488 -0.000609383 0 0 0 0)
(-0.000520888 -2.52956e-05 0 2.77211 0.000578533 0 0 0 0)
(0.000406962 -2.71614e-05 0 2.77002 -0.0004111 0 0 0 0)
(0.000985434 -1.03239e-05 0 2.77912 -0.000977929 0 0 0 0)
(0.000217403 3.58348e-05 0 2.79122 -0.000653473 0 0 0 0)
(-0.000587359 -3.89556e-05 0 2.39305 0.000658014 0 0 0 0)
(0.000453485 -4.09618e-05 0 2.39035 -0.000469306 0 0 0 0)
(0.00113675 -1.13659e-05 0 2.39777 -0.00111555 0 0 0 0)
(0.00023105 7.66013e-05 0 2.40637 -0.000665427 0 0 0 0)
(-0.00064108 -5.35869e-05 0 2.05268 0.000705222 0 0 0 0)
(0.000485644 -5.67208e-05 0 2.04958 -0.000492242 0 0 0 0)
(0.00125233 -1.35926e-05 0 2.05544 -0.00124483 0 0 0 0)
(0.000227809 7.77685e-05 0 2.06086 -0.000638903 0 0 0 0)
(-0.00068139 -6.94284e-05 0 1.74943 0.000740286 0 0 0 0)
(0.000499583 -7.34627e-05 0 1.7466 -0.000515729 0 0 0 0)
(0.00132483 -1.38103e-05 0 1.75059 -0.0013082 0 0 0 0)
(0.000220438 0.000116435 0 1.75315 -0.0006242 0 0 0 0)
(-0.00071036 -8.56379e-05 0 1.48112 0.000786383 0 0 0 0)
(0.00050503 -9.08622e-05 0 1.47889 -0.000504999 0 0 0 0)
(0.00136147 -1.54005e-05 0 1.48141 -0.0013569 0 0 0 0)
(0.000200699 0.000122878 0 1.48132 -0.000566979 0 0 0 0)
(-0.000727093 -0.0001019 0 1.24589 0.000776043 0 0 0 0)
(0.000504413 -0.000109184 0 1.24434 -0.000522773 0 0 0 0)
(0.00136535 -1.48432e-05 0 1.24576 -0.00136809 0 0 0 0)
(0.000168975 0.000154157 0 1.24294 -0.000533707 0 0 0 0)
(-0.000731141 -0.000118773 0 1.04115 0.000807655 0 0 0 0)
(0.000502843 -0.000126598 0 1.04035 -0.000520161 0 0 0 0)
(0.0013381 -1.55827e-05 0 1.04119 -0.0013283 0 0 0 0)
(0.000114654 0.000165132 0 1.03532 -0.000425361 0 0 0 0)
(-0.000714704 -0.000134738 0 0.864306 0.000782505 0 0 0 0)
(0.00050499 -0.000144783 0 0.864353 -0.000501001 0 0 0 0)
(0.00128158 -1.32633e-05 0 0.86531 -0.00131712 0 0 0 0)
(3.05951e-05 0.000191438 0 0.856066 -0.000364068 0 0 0 0)
(-0.000682191 -0.000150885 0 0.71335 0.000745963 0 0 0 0)
(0.000519581 -0.000161591 0 0.71325 -0.000529931 0 0 0 0)
(0.00119997 -1.33005e-05 0 0.715007 -0.00115102 0 0 0 0)
(-9.09711e-05 0.000204423 0 0.702239 -0.000256529 0 0 0 0)
(-0.000632183 -0.000166084 0 0.585516 0.000670156 0 0 0 0)
(0.000532622 -0.0001764 0 0.585201 -0.000592009 0 0 0 0)
(0.00109805 -8.70656e-06 0 0.588961 -0.00115463 0 0 0 0)
(-0.00025536 0.000224558 0 0.571984 7.57069e-05 0 0 0 0)
(-0.000558222 -0.000182212 0 0.478462 0.000576566 0 0 0 0)
(0.000576992 -0.000192005 0 0.476922 -0.000554508 0 0 0 0)
(0.000979683 -2.17188e-06 0 0.483045 -0.0009534 0 0 0 0)
(-0.000509926 0.000239176 0 0.461872 8.86894e-05 0 0 0 0)
(-0.000465296 -0.000193789 0 0.393015 0.000451594 0 0 0 0)
(0.000608999 -0.000201899 0 0.389111 -0.000532888 0 0 0 0)
(0.000847219 2.0134e-06 0 0.39572 -0.000858266 0 0 0 0)
(-0.000821287 0.000254514 0 0.371071 0.000696563 0 0 0 0)
(-0.000302326 -0.000204616 0 0.318212 0.000254008 0 0 0 0)
(0.000622082 -0.000213836 0 0.313255 -0.000481213 0 0 0 0)
(0.000679015 1.8319e-05 0 0.313863 -0.00096784 0 0 0 0)
(-0.00124115 0.000265294 0 0.293839 0.00119039 0 0 0 0)
(-0.000236812 -0.000211716 0 0.250222 0.000257932 0 0 0 0)
(0.000536509 -0.000222263 0 0.246685 -0.000320796 0 0 0 0)
(0.00052361 2.98735e-05 0 0.242261 -0.000671267 0 0 0 0)
(-0.00135071 0.000281604 0 0.23032 0.00124583 0 0 0 0)
(-0.000191026 -0.000214656 0 0.195711 0.000228802 0 0 0 0)
(0.000489399 -0.000229322 0 0.193788 -0.000416897 0 0 0 0)
(0.000406257 4.44293e-05 0 0.189761 -0.000607139 0 0 0 0)
(-0.00144753 0.00028703 0 0.181364 0.00144371 0 0 0 0)
(-0.00016055 -0.000222035 0 0.151912 0.000148471 0 0 0 0)
(0.000437343 -0.000236196 0 0.150976 -0.00035989 0 0 0 0)
(0.000316539 6.08836e-05 0 0.146821 -0.000530699 0 0 0 0)
(-0.00149111 0.000300482 0 0.141241 0.00147502 0 0 0 0)
(-0.000133357 -0.000222654 0 0.116969 0.000169644 0 0 0 0)
(0.000404545 -0.000240642 0 0.117036 -0.000270867 0 0 0 0)
(0.000244011 7.50112e-05 0 0.113119 -0.000380845 0 0 0 0)
(-0.00152452 0.000306877 0 0.10958 0.00142944 0 0 0 0)
(-0.000111518 -0.000226675 0 0.0892221 0.000113993 0 0 0 0)
(0.00037318 -0.00024537 0 0.0897917 -0.000305703 0 0 0 0)
(0.000192263 8.92222e-05 0 0.0862699 -0.000398022 0 0 0 0)
(-0.00153184 0.00031553 0 0.0842417 0.00151716 0 0 0 0)
(-8.84247e-05 -0.000227091 0 0.0676495 0.000132405 0 0 0 0)
(0.000355341 -0.000249175 0 0.0686106 -0.000231794 0 0 0 0)
(0.000151511 0.000105392 0 0.0656159 -0.000327322 0 0 0 0)
(-0.00153443 0.000322581 0 0.0643117 0.00151293 0 0 0 0)
(-7.1807e-05 -0.000229646 0 0.0506092 7.88992e-05 0 0 0 0)
(0.000339287 -0.000253033 0 0.0517847 -0.000257701 0 0 0 0)
(0.000120614 0.000118301 0 0.0496364 -0.000309123 0 0 0 0)
(-0.0015266 0.000329742 0 0.0489698 0.00148622 0 0 0 0)
(-5.45968e-05 -0.000229113 0 0.0376652 8.8054e-05 0 0 0 0)
(0.000339127 -0.000255642 0 0.0391059 -0.000212118 0 0 0 0)
(0.000104597 0.000134458 0 0.0375519 -0.000268604 0 0 0 0)
(-0.00151876 0.000336423 0 0.0370998 0.00151644 0 0 0 0)
(-4.05175e-05 -0.000231211 0 0.0272471 1.39904e-05 0 0 0 0)
(0.000337398 -0.000258977 0 0.0290993 -0.000291232 0 0 0 0)
(8.71789e-05 0.00014711 0 0.0284017 -0.000280867 0 0 0 0)
(-0.00149992 0.000343586 0 0.0281389 0.00154487 0 0 0 0)
(-2.7212e-05 -0.000231226 0 0.0195549 8.5586e-05 0 0 0 0)
(0.000358371 -0.000260557 0 0.0218242 -0.000243671 0 0 0 0)
(8.859e-05 0.000165059 0 0.0215044 -0.000354205 0 0 0 0)
(-0.00148009 0.000350322 0 0.0215756 0.00132701 0 0 0 0)
(-1.50602e-05 -0.000231709 0 0.0132524 0.000147285 0 0 0 0)
(0.000369891 -0.000266307 0 0.0158825 -0.000164321 0 0 0 0)
(8.30352e-05 0.000173288 0 0.0163393 -8.33995e-05 0 0 0 0)
(-0.00144096 0.000357019 0 0.0169965 0.00150358 0 0 0 0)
(-5.40891e-06 -0.000230173 0 0.00918504 4.16621e-06 0 0 0 0)
(0.00040982 -0.000264401 0 0.0118255 -0.000396066 0 0 0 0)
(0.000107156 0.000192858 0 0.0123034 -0.000334274 0 0 0 0)
(-0.00139068 0.000360863 0 0.0138257 0.00138791 0 0 0 0)
(-1.18762e-07 -0.000233482 0 0.00623122 6.11876e-05 0 0 0 0)
(0.000421865 -0.000271947 0 0.00832979 -0.000238327 0 0 0 0)
(0.000116372 0.000203021 0 0.00903613 -0.000326236 0 0 0 0)
(-0.00129915 0.000369901 0 0.0119116 0.00119872 0 0 0 0)
(-4.00952e-06 -0.000230397 0 0.00655135 -0.000122047 0 0 0 0)
(0.000456568 -0.000270858 0 0.00580517 -0.000369544 0 0 0 0)
(0.000166853 0.000216808 0 0.00466498 -0.000170738 0 0 0 0)
(-0.00117286 0.000376067 0 0.0128351 0.00151693 0 0 0 0)
(-5.19844e-05 -0.000234914 0 0.00559117 -8.48245e-05 0 0 0 0)
(0.000390425 -0.000272759 0 0.00421775 -0.000432576 0 0 0 0)
(0.000233537 0.000234462 0 0.00384523 -0.000729195 0 0 0 0)
(-0.000957941 0.000384091 0 0.0145038 0.000799709 0 0 0 0)
(-7.66637e-05 -0.000233256 0 0.00426955 0.000108481 0 0 0 0)
(0.000427469 -0.000281598 0 0.00563139 -0.000242998 0 0 0 0)
(0.000338287 0.000237346 0 0.00793957 -0.000382966 0 0 0 0)
(-0.000822191 0.000396895 0 0.0148535 0.000793886 0 0 0 0)
(-7.19046e-05 -0.000232551 0 0.00725301 0.000149696 0 0 0 0)
(0.000451592 -0.00028095 0 0.00928363 -0.000321185 0 0 0 0)
(0.00038724 0.000251744 0 0.0113018 -0.000452272 0 0 0 0)
(-0.000726389 0.0004015 0 0.0157187 0.00076258 0 0 0 0)
(-6.42044e-05 -0.000232305 0 0.0109641 0.000149389 0 0 0 0)
(0.00049495 -0.000291631 0 0.0130136 -0.000448266 0 0 0 0)
(0.000445539 0.000255409 0 0.0150505 -0.000686343 0 0 0 0)
(-0.0006686 0.000414225 0 0.0179416 0.000463082 0 0 0 0)
(-4.9513e-05 -0.000232355 0 0.0167094 0.000163654 0 0 0 0)
(0.000519699 -0.000294879 0 0.0183932 -0.000309551 0 0 0 0)
(0.000469373 0.000266933 0 0.0197142 -0.000418005 0 0 0 0)
(-0.00062288 0.000421622 0 0.0216681 0.000698962 0 0 0 0)
(-4.04248e-05 -0.000230099 0 0.0235998 1.15762e-05 0 0 0 0)
(0.00054503 -0.000301325 0 0.0248797 -0.000525246 0 0 0 0)
(0.00050012 0.000272218 0 0.0257481 -0.000700736 0 0 0 0)
(-0.000593637 0.000433171 0 0.0273737 0.000568225 0 0 0 0)
(-2.50496e-05 -0.000234795 0 0.0327514 7.87835e-05 0 0 0 0)
(0.000555504 -0.00030675 0 0.0338258 -0.000455442 0 0 0 0)
(0.00051094 0.000285157 0 0.0337566 -0.000663634 0 0 0 0)
(-0.00056568 0.000445561 0 0.0350423 0.000549773 0 0 0 0)
(-8.65869e-06 -0.000228836 0 0.0441383 4.11248e-05 0 0 0 0)
(0.000561783 -0.000313699 0 0.0451974 -0.000494103 0 0 0 0)
(0.000520395 0.000288971 0 0.0441762 -0.000636576 0 0 0 0)
(-0.000542315 0.000455318 0 0.0454596 0.000538374 0 0 0 0)
(1.70196e-05 -0.000236405 0 0.0587438 2.10578e-05 0 0 0 0)
(0.000556136 -0.000318045 0 0.0599033 -0.00044582 0 0 0 0)
(0.000515309 0.000302365 0 0.0577074 -0.000653334 0 0 0 0)
(-0.000509964 0.000469296 0 0.0589015 0.000491106 0 0 0 0)
(4.4819e-05 -0.000226109 0 0.0771613 4.89207e-05 0 0 0 0)
(0.00054451 -0.000324938 0 0.0786759 -0.000417448 0 0 0 0)
(0.000503697 0.000304587 0 0.0749695 -0.000563474 0 0 0 0)
(-0.000474356 0.000477524 0 0.0762994 0.000425553 0 0 0 0)
(8.78894e-05 -0.000234792 0 0.100294 -0.000105504 0 0 0 0)
(0.000519607 -0.000328252 0 0.102202 -0.00051261 0 0 0 0)
(0.0004757 0.000316415 0 0.0970003 -0.000676714 0 0 0 0)
(-0.000415528 0.000491632 0 0.0983494 0.000418064 0 0 0 0)
(0.000128613 -0.000224534 0 0.129373 -0.000127435 0 0 0 0)
(0.000489607 -0.000334459 0 0.132129 -0.000416609 0 0 0 0)
(0.000439485 0.000320098 0 0.124907 -0.000616354 0 0 0 0)
(-0.000347958 0.000500661 0 0.12608 0.00049345 0 0 0 0)
(0.000192835 -0.000231263 0 0.165083 -0.000167697 0 0 0 0)
(0.000445182 -0.000336401 0 0.169035 -0.000377028 0 0 0 0)
(0.000374889 0.000331583 0 0.160192 -0.000459023 0 0 0 0)
(-0.000250073 0.000513854 0 0.160577 0.000213184 0 0 0 0)
(0.000247805 -0.000220803 0 0.209027 -0.000150812 0 0 0 0)
(0.000408087 -0.000339314 0 0.215361 -0.000325664 0 0 0 0)
(0.000298506 0.000329935 0 0.204261 -0.000522129 0 0 0 0)
(-0.000147105 0.000516807 0 0.202852 0.000202391 0 0 0 0)
(0.000338778 -0.00022218 0 0.258695 -0.00019705 0 0 0 0)
(0.000365752 -0.000342589 0 0.272247 -0.000319683 0 0 0 0)
(0.00016642 0.000340384 0 0.256815 -0.000160417 0 0 0 0)
(-2.80802e-05 0.000534733 0 0.252246 -4.45331e-05 0 0 0 0)
(0.000487929 -0.000215942 0 0.322624 -0.000302522 0 0 0 0)
(0.000376765 -0.000338704 0 0.338128 -0.000159597 0 0 0 0)
(-3.48482e-05 0.000334521 0 0.321266 0.000108308 0 0 0 0)
(0.000125685 0.00052982 0 0.316804 -0.00047398 0 0 0 0)
(0.000632876 -0.000212715 0 0.406279 -0.000716904 0 0 0 0)
(0.000343116 -0.000335742 0 0.415608 -0.000554319 0 0 0 0)
(-0.000188978 0.000335144 0 0.401985 6.90282e-05 0 0 0 0)
(0.000294282 0.000535799 0 0.400805 -0.000205131 0 0 0 0)
(0.000720701 -0.000218503 0 0.503422 -0.000736313 0 0 0 0)
(0.000305194 -0.000325605 0 0.508895 -0.000208215 0 0 0 0)
(-0.000281564 0.000340341 0 0.499348 0.000418739 0 0 0 0)
(0.000430204 0.000534325 0 0.500191 -0.000538026 0 0 0 0)
(0.000792567 -0.000207657 0 0.617206 -0.000896282 0 0 0 0)
(0.000275214 -0.000316491 0 0.620475 -0.000384955 0 0 0 0)
(-0.000334046 0.000329647 0 0.61339 0.000296847 0 0 0 0)
(0.000541003 0.000526089 0 0.615222 -0.000528589 0 0 0 0)
(0.000837072 -0.000216169 0 0.749904 -0.000864842 0 0 0 0)
(0.000241598 -0.000305719 0 0.751802 -0.000291421 0 0 0 0)
(-0.000369114 0.000337947 0 0.74665 0.000398174 0 0 0 0)
(0.000616023 0.000525926 0 0.74868 -0.00057116 0 0 0 0)
(0.000883564 -0.000203333 0 0.903884 -0.000904418 0 0 0 0)
(0.000220988 -0.000295441 0 0.905302 -0.000141319 0 0 0 0)
(-0.000386082 0.000324985 0 0.900899 0.0004911 0 0 0 0)
(0.00066811 0.000519716 0 0.902574 -0.000793682 0 0 0 0)
(0.000918832 -0.000206378 0 1.08158 -0.000895138 0 0 0 0)
(0.000191848 -0.000282461 0 1.08274 -0.00033089 0 0 0 0)
(-0.00041459 0.000327074 0 1.07893 0.000477059 0 0 0 0)
(0.000697134 0.000514684 0 1.08013 -0.000765315 0 0 0 0)
(0.000965652 -0.000197412 0 1.28524 -0.00102965 0 0 0 0)
(0.000176791 -0.000272571 0 1.28653 2.98926e-05 0 0 0 0)
(-0.00042971 0.000317745 0 1.28245 0.000487301 0 0 0 0)
(0.000705671 0.000511808 0 1.28331 -0.000748842 0 0 0 0)
(0.00100924 -0.000193206 0 1.51666 -0.00101673 0 0 0 0)
(0.000145219 -0.000257178 0 1.5187 -0.000504786 0 0 0 0)
(-0.000468208 0.000314095 0 1.51454 0.000466969 0 0 0 0)
(0.000714047 0.000503478 0 1.51522 -0.000763282 0 0 0 0)
(0.00107597 -0.000191623 0 1.77763 -0.00103926 0 0 0 0)
(0.000141487 -0.000247843 0 1.7805 0.000346574 0 0 0 0)
(-0.000487622 0.000313436 0 1.77611 0.000712976 0 0 0 0)
(0.000701466 0.000506158 0 1.77679 -0.000756918 0 0 0 0)
(0.00113304 -0.000174015 0 2.06952 -0.00122907 0 0 0 0)
(0.000119797 -0.000227974 0 2.07411 -0.000620362 0 0 0 0)
(-0.000529897 0.000295703 0 2.06974 0.000458517 0 0 0 0)
(0.000724154 0.000488255 0 2.07096 -0.000684207 0 0 0 0)
(0.00121668 -0.000185966 0 2.39379 -0.00129665 0 0 0 0)
(0.00014522 -0.000219716 0 2.39965 -4.26278e-05 0 0 0 0)
(-0.000540099 0.000312372 0 2.39632 0.000430523 0 0 0 0)
(0.000729063 0.000506157 0 2.39925 -0.000775303 0 0 0 0)
(0.00125805 -0.000161296 0 2.75044 -0.00118571 0 0 0 0)
(0.000161928 -0.000199188 0 2.75857 2.04761e-05 0 0 0 0)
(-0.000536578 0.000283492 0 2.75842 0.00116726 0 0 0 0)
(0.000851677 0.000480883 0 2.76612 -0.000475949 0 0 0 0)
(0.00131594 -0.000171276 0 3.15376 -0.0014294 0 0 0 0)
(0.0002781 -0.0001805 0 3.16638 -0.000478987 0 0 0 0)
(-0.000414254 0.000304099 0 3.16281 0.000500739 0 0 0 0)
(0.000946063 0.000501878 0 3.16878 0.000480811 0 0 0 0)
(0.0013547 -0.000159131 0 4.93884 -0.000907456 0 0 0 0)
(0.000312653 -0.000167019 0 4.95501 0.000440928 0 0 0 0)
(-0.000496563 0.000299489 0 4.953 0.000459179 0 0 0 0)
(0.00117745 0.000520203 0 4.94801 -0.000586876 0 0 0 0)
(0.000241201 -0.000125333 0 18.7957 -0.00742868 0 0 0 0)
(-0.00204682 -0.000249 0 19.4291 -0.00268813 0 0 0 0)
(-0.000925761 -2.57823e-06 0 19.2118 0.00206895 0 0 0 0)
(0.000463397 -7.18786e-05 0 19.3426 -0.00190039 0 0 0 0)
(0.0091645 -9.52449e-05 0 30.5223 -0.00869806 0 0 0 0)
(0.0047607 -0.000126155 0 30.9834 -0.000637368 0 0 0 0)
(-0.00213438 8.8562e-06 0 30.7817 0.000423435 0 0 0 0)
(0.000430976 -9.51904e-05 0 30.8516 0.000974932 0 0 0 0)
(0.00744476 -0.000175656 0 28.021 -0.00181534 0 0 0 0)
(0.0022766 -9.69752e-05 0 27.738 -0.00166021 0 0 0 0)
(-0.00312262 2.42934e-05 0 27.7659 0.0045162 0 0 0 0)
(-0.000647111 -5.04815e-05 0 27.6686 -0.000389577 0 0 0 0)
(0.00607931 -0.000200858 0 24.2924 -0.00822347 0 0 0 0)
(0.000508068 -2.06296e-05 0 24.0677 -0.00152297 0 0 0 0)
(-0.00329099 3.00334e-05 0 24.1316 0.00291154 0 0 0 0)
(-0.00106116 -5.10314e-05 0 24.0603 0.00140676 0 0 0 0)
(0.00470349 -0.000202303 0 20.9273 -0.00431859 0 0 0 0)
(-0.000402692 8.86083e-05 0 20.7663 0.00131118 0 0 0 0)
(-0.00324605 7.31222e-05 0 20.8403 0.00325138 0 0 0 0)
(-0.00128374 -3.39646e-05 0 20.7979 0.0013657 0 0 0 0)
(0.00374921 -0.000178504 0 17.9137 -0.00332953 0 0 0 0)
(-0.000943028 0.000105537 0 17.7996 0.000358817 0 0 0 0)
(-0.0027639 3.09421e-05 0 17.8791 0.00288988 0 0 0 0)
(-0.00102695 -6.03892e-05 0 17.8603 0.000491651 0 0 0 0)
(0.00283203 -0.000172231 0 15.2454 -0.00365634 0 0 0 0)