/*--------------------------------*- C++ -*----------------------------------*\
  =========                 |
  \\      /  F ield         | OpenFOAM: The Open Source CFD Toolbox
   \\    /   O peration     | Website:  https://openfoam.org
    \\  /    A nd           | Version:  dev
     \\/     M anipulation  |

   OpenFOAM for Windows 20.09 (v1)
   Built by CFD Support, www.cfdsupport.com (based on Symscape).
\*---------------------------------------------------------------------------*/
FoamFile
{
    version     2.0;
    format      ascii;
    class       volScalarField;
    location    "4";
    object      nut;
}
// * * * * * * * * * * * * * * * * * * * * * * * * * * * * * * * * * * * * * //

dimensions      [0 2 -1 0 0 0 0];

internalField   nonuniform List<scalar> 
960
(
2.5539e-21
2.5539e-21
2.5539e-21
2.5539e-21
1.48088e-20
1.48089e-20
1.48088e-20
1.48089e-20
4.35154e-20
4.3516e-20
4.35158e-20
4.35158e-20
9.25967e-20
9.25985e-20
9.25979e-20
9.25978e-20
1.64169e-19
1.64173e-19
1.64172e-19
1.64171e-19
2.58164e-19
2.58172e-19
2.58169e-19
2.58166e-19
3.74623e-19
3.74636e-19
3.7463e-19
3.74624e-19
5.13576e-19
5.13598e-19
5.13587e-19
5.13575e-19
6.75033e-19
6.75067e-19
6.75046e-19
6.75027e-19
8.58982e-19
8.59032e-19
8.58998e-19
8.58969e-19
1.06539e-18
1.06546e-18
1.06541e-18
1.06537e-18
1.29418e-18
1.29428e-18
1.2942e-18
1.29415e-18
1.54526e-18
1.54538e-18
1.54526e-18
1.5452e-18
1.81842e-18
1.81858e-18
1.81841e-18
1.81833e-18
2.11341e-18
2.11359e-18
2.11337e-18
2.11328e-18
2.42994e-18
2.43017e-18
2.42987e-18
2.42977e-18
2.76746e-18
2.76775e-18
2.76738e-18
2.76725e-18
3.12527e-18
3.12564e-18
3.12518e-18
3.12501e-18
3.50247e-18
3.50291e-18
3.50236e-18
3.50216e-18
3.8979e-18
3.89843e-18
3.89777e-18
3.89754e-18
4.31013e-18
4.31075e-18
4.30999e-18
4.30972e-18
4.73742e-18
4.73813e-18
4.73727e-18
4.73696e-18
5.17766e-18
5.17848e-18
5.17751e-18
5.17716e-18
5.62841e-18
5.62934e-18
5.62828e-18
5.62789e-18
6.08689e-18
6.08793e-18
6.08678e-18
6.08635e-18
6.54993e-18
6.55109e-18
6.54987e-18
6.54941e-18
7.01411e-18
7.01537e-18
7.01412e-18
7.01362e-18
7.4757e-18
7.47707e-18
7.47581e-18
7.47527e-18
7.93082e-18
7.93228e-18
7.93103e-18
7.93046e-18
8.37544e-18
8.37699e-18
8.3758e-18
8.3752e-18
8.82241e-18
8.82413e-18
8.82297e-18
8.82233e-18
9.26254e-18
9.2645e-18
9.26337e-18
9.26266e-18
9.68535e-18
9.68755e-18
9.6865e-18
9.68572e-18
1.00872e-17
1.00897e-17
1.00887e-17
1.00879e-17
1.04648e-17
1.04675e-17
1.04666e-17
1.04657e-17
1.08148e-17
1.08177e-17
1.0817e-17
1.0816e-17
1.11343e-17
1.11375e-17
1.1137e-17
1.11359e-17
1.14208e-17
1.14243e-17
1.14241e-17
1.14229e-17
1.16722e-17
1.1676e-17
1.1676e-17
1.16746e-17
1.18867e-17
1.18907e-17
1.18909e-17
1.18895e-17
1.20627e-17
1.2067e-17
1.20675e-17
1.2066e-17
1.21993e-17
1.22038e-17
1.22047e-17
1.2203e-17
1.22959e-17
1.23005e-17
1.23017e-17
1.23e-17
1.23519e-17
1.23566e-17
1.23583e-17
1.23565e-17
1.23674e-17
1.23722e-17
1.23742e-17
1.23724e-17
1.23943e-17
1.23991e-17
1.24017e-17
1.23999e-17
1.24082e-17
1.24129e-17
1.24162e-17
1.24144e-17
1.23799e-17
1.23844e-17
1.23884e-17
1.23867e-17
1.23081e-17
1.23123e-17
1.2317e-17
1.23156e-17
1.2192e-17
1.21958e-17
1.22013e-17
1.22001e-17
1.20309e-17
1.20342e-17
1.20405e-17
1.20396e-17
1.20717e-17
1.20897e-17
1.20961e-17
1.20994e-17
1.23516e-17
1.23705e-17
1.23781e-17
1.23825e-17
1.264e-17
1.26596e-17
1.26685e-17
1.26742e-17
1.29305e-17
1.29504e-17
1.29607e-17
1.29677e-17
1.32156e-17
1.32353e-17
1.32471e-17
1.32555e-17
1.34874e-17
1.35062e-17
1.35197e-17
1.35295e-17
1.37369e-17
1.37541e-17
1.37695e-17
1.37806e-17
1.39554e-17
1.397e-17
1.39875e-17
1.39995e-17
1.41337e-17
1.41446e-17
1.41643e-17
1.41768e-17
2.5539e-21
2.5539e-21
2.5539e-21
2.5539e-21
1.48088e-20
1.48089e-20
1.48089e-20
1.48089e-20
4.35157e-20
4.35159e-20
4.35159e-20
4.35159e-20
9.25977e-20
9.25982e-20
9.25983e-20
9.25984e-20
1.64171e-19
1.64172e-19
1.64173e-19
1.64173e-19
2.58167e-19
2.5817e-19
2.58172e-19
2.58171e-19
3.74627e-19
3.74634e-19
3.74637e-19
3.74635e-19
5.13582e-19
5.13594e-19
5.136e-19
5.13595e-19
6.75039e-19
6.75059e-19
6.7507e-19
6.75059e-19
8.58987e-19
8.5902e-19
8.59037e-19
8.59018e-19
1.06539e-18
1.06544e-18
1.06547e-18
1.06543e-18
1.29418e-18
1.29425e-18
1.29429e-18
1.29424e-18
1.54524e-18
1.54533e-18
1.54539e-18
1.54531e-18
1.81839e-18
1.8185e-18
1.81858e-18
1.81847e-18
2.11335e-18
2.11349e-18
2.11358e-18
2.11343e-18
2.42985e-18
2.43003e-18
2.43014e-18
2.42994e-18
2.76735e-18
2.76758e-18
2.76771e-18
2.76746e-18
3.12514e-18
3.12541e-18
3.12557e-18
3.12525e-18
3.50231e-18
3.50264e-18
3.50282e-18
3.50242e-18
3.89772e-18
3.8981e-18
3.89831e-18
3.89783e-18
4.30993e-18
4.31037e-18
4.31059e-18
4.31003e-18
4.73719e-18
4.73769e-18
4.73793e-18
4.73728e-18
5.17743e-18
5.17798e-18
5.17823e-18
5.1775e-18
5.62819e-18
5.62879e-18
5.62904e-18
5.62824e-18
6.08668e-18
6.08733e-18
6.08758e-18
6.08671e-18
6.54977e-18
6.55045e-18
6.5507e-18
6.54978e-18
7.014e-18
7.01472e-18
7.01495e-18
7.01399e-18
7.47568e-18
7.47642e-18
7.47662e-18
7.47566e-18
7.93091e-18
7.93164e-18
7.93181e-18
7.93087e-18
8.37567e-18
8.37639e-18
8.37651e-18
8.37562e-18
8.82282e-18
8.82356e-18
8.82364e-18
8.82275e-18
9.26317e-18
9.26395e-18
9.26399e-18
9.26308e-18
9.68625e-18
9.68704e-18
9.68704e-18
9.68613e-18
1.00884e-17
1.00892e-17
1.00892e-17
1.00883e-17
1.04663e-17
1.04671e-17
1.0467e-17
1.04661e-17
1.08166e-17
1.08174e-17
1.08173e-17
1.08164e-17
1.11365e-17
1.11372e-17
1.11371e-17
1.11362e-17
1.14235e-17
1.14241e-17
1.1424e-17
1.14231e-17
1.16753e-17
1.16759e-17
1.16757e-17
1.16748e-17
1.18901e-17
1.18906e-17
1.18904e-17
1.18896e-17
1.20665e-17
1.20669e-17
1.20667e-17
1.2066e-17
1.22036e-17
1.22038e-17
1.22036e-17
1.22029e-17
1.23004e-17
1.23006e-17
1.23004e-17
1.22998e-17
1.23568e-17
1.23568e-17
1.23567e-17
1.23561e-17
1.23726e-17
1.23725e-17
1.23724e-17
1.23718e-17
1.23999e-17
1.23995e-17
1.23995e-17
1.2399e-17
1.24142e-17
1.24135e-17
1.24134e-17
1.24131e-17
1.23861e-17
1.23853e-17
1.23851e-17
1.2385e-17
1.23147e-17
1.23135e-17
1.23132e-17
1.23134e-17
1.21989e-17
1.21973e-17
1.21969e-17
1.21975e-17
1.20381e-17
1.20362e-17
1.20356e-17
1.20365e-17
1.20932e-17
1.20829e-17
1.20897e-17
1.20821e-17
1.23755e-17
1.23634e-17
1.23708e-17
1.23628e-17
1.26664e-17
1.26525e-17
1.26602e-17
1.26521e-17
1.29595e-17
1.29439e-17
1.29516e-17
1.29434e-17
1.32472e-17
1.32302e-17
1.32375e-17
1.32292e-17
1.35215e-17
1.35033e-17
1.35098e-17
1.35016e-17
1.37734e-17
1.37546e-17
1.37598e-17
1.37516e-17
1.39936e-17
1.3975e-17
1.39784e-17
1.39702e-17
1.41727e-17
1.4155e-17
1.41564e-17
1.41482e-17
6.64313e-18
6.44345e-18
6.51069e-18
6.4705e-18
4.36012e-18
4.30372e-18
4.32861e-18
4.32078e-18
4.87016e-18
4.92174e-18
4.91588e-18
4.93428e-18
5.60194e-18
5.65129e-18
5.6378e-18
5.6557e-18
6.38013e-18
6.4232e-18
6.40397e-18
6.4188e-18
7.24545e-18
7.28266e-18
7.25575e-18
7.26592e-18
8.22376e-18
8.25222e-18
8.22323e-18
8.22776e-18
9.336e-18
9.35872e-18
9.32974e-18
9.32578e-18
1.06169e-17
1.06346e-17
1.05953e-17
1.05852e-17
1.20933e-17
1.21079e-17
1.20501e-17
1.20416e-17
1.38063e-17
1.38347e-17
1.37519e-17
1.37437e-17
1.47137e-17
1.46944e-17
1.47057e-17
1.47118e-17
1.43191e-17
1.43003e-17
1.4312e-17
1.43192e-17
1.38701e-17
1.38519e-17
1.38665e-17
1.38713e-17
1.33889e-17
1.33718e-17
1.33885e-17
1.33906e-17
1.29052e-17
1.28884e-17
1.29063e-17
1.29056e-17
1.2416e-17
1.2399e-17
1.24176e-17
1.24138e-17
1.19376e-17
1.19196e-17
1.19389e-17
1.19318e-17
1.15627e-17
1.15689e-17
1.15749e-17
1.15724e-17
1.15288e-17
1.1535e-17
1.15413e-17
1.1539e-17
1.14422e-17
1.14485e-17
1.14549e-17
1.14527e-17
1.1305e-17
1.13112e-17
1.13175e-17
1.13155e-17
1.11197e-17
1.11257e-17
1.11317e-17
1.11299e-17
1.0889e-17
1.08948e-17
1.09005e-17
1.08989e-17
1.06165e-17
1.0622e-17
1.06272e-17
1.06257e-17
1.03056e-17
1.03108e-17
1.03155e-17
1.03142e-17
9.96041e-18
9.96524e-18
9.9694e-18
9.96824e-18
9.585e-18
9.58947e-18
9.59303e-18
9.59205e-18
9.1837e-18
9.1878e-18
9.19078e-18
9.18995e-18
8.7609e-18
8.76465e-18
8.76708e-18
8.7664e-18
8.3341e-18
8.33728e-18
8.33922e-18
8.33866e-18
7.89868e-18
7.90134e-18
7.90276e-18
7.90235e-18
7.45069e-18
7.45289e-18
7.45387e-18
7.45359e-18
6.99452e-18
6.9963e-18
6.99692e-18
6.99675e-18
6.5344e-18
6.53582e-18
6.53616e-18
6.53607e-18
6.07432e-18
6.07541e-18
6.07555e-18
6.07553e-18
5.61796e-18
5.61878e-18
5.61878e-18
5.6188e-18
5.16867e-18
5.16926e-18
5.16917e-18
5.16923e-18
4.7294e-18
4.72981e-18
4.72968e-18
4.72975e-18
4.30275e-18
4.30301e-18
4.30287e-18
4.30294e-18
3.89092e-18
3.89107e-18
3.89093e-18
3.891e-18
3.49576e-18
3.49582e-18
3.4957e-18
3.49577e-18
3.11879e-18
3.1188e-18
3.1187e-18
3.11876e-18
2.76123e-18
2.7612e-18
2.76112e-18
2.76117e-18
2.42403e-18
2.42398e-18
2.42392e-18
2.42396e-18
2.10748e-18
2.1074e-18
2.10736e-18
2.10741e-18
1.81268e-18
1.8126e-18
1.81257e-18
1.81262e-18
1.54001e-18
1.53994e-18
1.53991e-18
1.53996e-18
1.28965e-18
1.28959e-18
1.28957e-18
1.28962e-18
1.06169e-18
1.06165e-18
1.06164e-18
1.06167e-18
8.56168e-19
8.56133e-19
8.56128e-19
8.5615e-19
6.73056e-19
6.73032e-19
6.73031e-19
6.73044e-19
5.1232e-19
5.12304e-19
5.12305e-19
5.12312e-19
3.73921e-19
3.73912e-19
3.73913e-19
3.73917e-19
2.57833e-19
2.57829e-19
2.5783e-19
2.57831e-19
1.64046e-19
1.64044e-19
1.64045e-19
1.64045e-19
9.25641e-20
9.25633e-20
9.25636e-20
9.25638e-20
4.35109e-20
4.35107e-20
4.35108e-20
4.35109e-20
1.48087e-20
1.48087e-20
1.48087e-20
1.48087e-20
2.5539e-21
2.5539e-21
2.5539e-21
2.5539e-21
6.51378e-18
6.60776e-18
6.54189e-18
6.61815e-18
4.33645e-18
4.36484e-18
4.34067e-18
4.35616e-18
4.93076e-18
4.90477e-18
4.91426e-18
4.88678e-18
5.64701e-18
5.61876e-18
5.63432e-18
5.61539e-18
6.40499e-18
6.37657e-18
6.39982e-18
6.38635e-18
7.24592e-18
7.21906e-18
7.25069e-18
7.24605e-18
8.20385e-18
8.17963e-18
8.21576e-18
8.21154e-18
9.29692e-18
9.28359e-18
9.32331e-18
9.31426e-18
1.05648e-17
1.05602e-17
1.05952e-17
1.0578e-17
1.2051e-17
1.2044e-17
1.20631e-17
1.2042e-17
1.38046e-17
1.37833e-17
1.37878e-17
1.37568e-17
1.47178e-17
1.47128e-17
1.47258e-17
1.47107e-17
1.43275e-17
1.43206e-17
1.43343e-17
1.43155e-17
1.38826e-17
1.38731e-17
1.38881e-17
1.38647e-17
1.34056e-17
1.33926e-17
1.34098e-17
1.33857e-17
1.29246e-17
1.29075e-17
1.29282e-17
1.29017e-17
1.24372e-17
1.24151e-17
1.24408e-17
1.24101e-17
1.19604e-17
1.19321e-17
1.19644e-17
1.19277e-17
1.15745e-17
1.15773e-17
1.15772e-17
1.15762e-17
1.15409e-17
1.15435e-17
1.15434e-17
1.15425e-17
1.14546e-17
1.14568e-17
1.14567e-17
1.1456e-17
1.13173e-17
1.13193e-17
1.13191e-17
1.13185e-17
1.11317e-17
1.11334e-17
1.11331e-17
1.11327e-17
1.09006e-17
1.0902e-17
1.09017e-17
1.09013e-17
1.06275e-17
1.06286e-17
1.06283e-17
1.06279e-17
1.03159e-17
1.03168e-17
1.03164e-17
1.03161e-17
9.96988e-18
9.97051e-18
9.97016e-18
9.96981e-18
9.59358e-18
9.59404e-18
9.59368e-18
9.59333e-18
9.19136e-18
9.19167e-18
9.19133e-18
9.19097e-18
8.76767e-18
8.76785e-18
8.76754e-18
8.76717e-18
8.33979e-18
8.33993e-18
8.33958e-18
8.33925e-18
7.90338e-18
7.90338e-18
7.90309e-18
7.90276e-18
7.45452e-18
7.45439e-18
7.45417e-18
7.45383e-18
6.99754e-18
6.9974e-18
6.99718e-18
6.99687e-18
6.53673e-18
6.53659e-18
6.53638e-18
6.53608e-18
6.07607e-18
6.07593e-18
6.07573e-18
6.07546e-18
5.61924e-18
5.61911e-18
5.61892e-18
5.61869e-18
5.16957e-18
5.16946e-18
5.16928e-18
5.16907e-18
4.73001e-18
4.72991e-18
4.72975e-18
4.72957e-18
4.30313e-18
4.30305e-18
4.30291e-18
4.30275e-18
3.89113e-18
3.89107e-18
3.89094e-18
3.89081e-18
3.49585e-18
3.49581e-18
3.49569e-18
3.49559e-18
3.11879e-18
3.11877e-18
3.11867e-18
3.11859e-18
2.76118e-18
2.76117e-18
2.76108e-18
2.76102e-18
2.42395e-18
2.42395e-18
2.42388e-18
2.42384e-18
2.10739e-18
2.10738e-18
2.10732e-18
2.1073e-18
1.8126e-18
1.81258e-18
1.81253e-18
1.81253e-18
1.53994e-18
1.53992e-18
1.53988e-18
1.53989e-18
1.2896e-18
1.28958e-18
1.28955e-18
1.28956e-18
1.06165e-18
1.06164e-18
1.06162e-18
1.06163e-18
8.5614e-19
8.56129e-19
8.56116e-19
8.56124e-19
6.73038e-19
6.73031e-19
6.73023e-19
6.73029e-19
5.1231e-19
5.12305e-19
5.123e-19
5.12305e-19
3.73915e-19
3.73913e-19
3.73911e-19
3.73913e-19
2.57831e-19
2.5783e-19
2.57828e-19
2.5783e-19
1.64045e-19
1.64044e-19
1.64044e-19
1.64044e-19
9.25638e-20
9.25636e-20
9.25636e-20
9.25635e-20
4.35109e-20
4.35108e-20
4.35108e-20
4.35108e-20
1.48087e-20
1.48087e-20
1.48087e-20
1.48087e-20
2.5539e-21
2.5539e-21
2.5539e-21
2.5539e-21
)
;

boundaryField
{
    topWall
    {
        type            nutkWallFunction;
        Cmu             0.09;
        kappa           0.41;
        E               9.8;
        value           uniform 0;
    }
    botWall
    {
        type            nutkWallFunction;
        Cmu             0.09;
        kappa           0.41;
        E               9.8;
        value           uniform 0;
    }
    inlet
    {
        type            cyclic;
    }
    outlet
    {
        type            cyclic;
    }
    fixWall
    {
        type            empty;
    }
}


// ************************************************************************* //
