/*--------------------------------*- C++ -*----------------------------------*\
  =========                 |
  \\      /  F ield         | OpenFOAM: The Open Source CFD Toolbox
   \\    /   O peration     | Website:  https://openfoam.org
    \\  /    A nd           | Version:  dev
     \\/     M anipulation  |

   OpenFOAM for Windows 20.09 (v1)
   Built by CFD Support, www.cfdsupport.com (based on Symscape).
\*---------------------------------------------------------------------------*/
FoamFile
{
    version     2.0;
    format      ascii;
    class       volScalarField;
    location    "4";
    object      omega;
}
// * * * * * * * * * * * * * * * * * * * * * * * * * * * * * * * * * * * * * //

dimensions      [0 0 -1 0 0 0 0];

internalField   nonuniform List<scalar> 
960
(
86943.4
86943.4
86943.4
86943.4
14994.1
14994
14994.1
14994
5102.67
5102.6
5102.62
5102.62
2397.97
2397.93
2397.94
2397.95
1352.53
1352.5
1352.51
1352.52
860.09
860.065
860.076
860.084
592.714
592.694
592.703
592.713
432.35
432.331
432.341
432.351
328.939
328.922
328.932
328.942
258.498
258.482
258.493
258.501
208.417
208.402
208.413
208.421
171.571
171.558
171.569
171.576
143.694
143.683
143.694
143.7
122.108
122.098
122.109
122.114
105.065
105.055
105.067
105.071
91.3787
91.3701
91.3811
91.3851
80.2341
80.2255
80.2363
80.2402
71.0482
71.0398
71.0502
71.054
63.3966
63.3886
63.3986
63.4023
56.9652
56.9574
56.967
56.9705
51.5169
51.5095
51.5186
51.5218
46.8704
46.8633
46.8719
46.875
42.8851
42.8783
42.8864
42.8893
39.4507
39.4441
39.4516
39.4543
36.4792
36.4729
36.4798
36.4824
33.9003
33.8943
33.9006
33.903
31.6569
31.6511
31.6568
31.6591
29.7022
29.6967
29.7018
29.7039
27.9977
27.9925
27.9969
27.9989
26.5114
26.5065
26.5103
26.5122
25.1683
25.1633
25.1666
25.1685
23.9723
23.9673
23.9702
23.972
22.9258
22.9206
22.9231
22.925
22.0124
22.0071
22.0092
22.011
21.2183
21.2128
21.2145
21.2164
20.5316
20.526
20.5273
20.5292
19.9424
19.9366
19.9375
19.9395
19.442
19.4361
19.4365
19.4386
19.0233
19.0172
19.0172
19.0194
18.6802
18.6739
18.6734
18.6757
18.4075
18.4011
18.4002
18.4026
18.2014
18.1947
18.1934
18.1959
18.0585
18.0517
18.0499
18.0524
17.9766
17.9697
17.9673
17.9699
17.9541
17.9471
17.9441
17.9467
17.915
17.9081
17.9043
17.9069
17.8949
17.8883
17.8835
17.886
17.9359
17.9294
17.9237
17.926
18.0405
18.0344
18.0274
18.0295
18.2123
18.2067
18.1984
18.2002
18.4561
18.4512
18.4415
18.4428
18.7782
18.7741
18.7627
18.7635
19.186
19.1831
19.1698
19.1698
19.689
19.6877
19.6722
19.6713
20.2987
20.2996
20.2815
20.2794
21.0292
21.033
21.0118
21.0084
21.8974
21.9052
21.8803
21.8756
22.9242
22.9375
22.908
22.9021
24.1348
24.1559
24.1207
24.114
25.56
25.592
25.5497
25.5429
86943.4
86943.4
86943.4
86943.4
14994.1
14994
14994
14994
5102.63
5102.61
5102.61
5102.6
2397.95
2397.94
2397.93
2397.93
1352.52
1352.51
1352.5
1352.5
860.081
860.07
860.065
860.067
592.708
592.698
592.693
592.696
432.345
432.335
432.33
432.334
328.936
328.926
328.921
328.926
258.496
258.486
258.481
258.487
208.416
208.407
208.401
208.408
171.571
171.562
171.557
171.564
143.696
143.687
143.682
143.689
122.111
122.103
122.098
122.105
105.068
105.061
105.056
105.063
91.3819
91.3753
91.3711
91.3785
80.2372
80.2307
80.2268
80.2342
71.0511
71.0449
71.0412
71.0486
63.3994
63.3935
63.3902
63.3974
56.9678
56.9623
56.9593
56.9662
51.5193
51.5141
51.5114
51.5181
46.8726
46.8677
46.8653
46.8717
42.887
42.8825
42.8804
42.8864
39.4522
39.448
39.4462
39.4518
36.4804
36.4765
36.475
36.4802
33.9011
33.8976
33.8963
33.9011
31.6573
31.6541
31.6531
31.6574
29.7023
29.6993
29.6985
29.7024
27.9974
27.9948
27.9942
27.9975
26.5107
26.5084
26.508
26.5108
25.1671
25.165
25.1647
25.1673
23.9707
23.9687
23.9686
23.9709
22.9237
22.9218
22.9218
22.924
22.0098
22.0081
22.0082
22.0102
21.2152
21.2136
21.2138
21.2156
20.5281
20.5267
20.5269
20.5286
19.9384
19.9371
19.9374
19.9389
19.4376
19.4365
19.4367
19.4382
19.0184
19.0174
19.0177
19.0191
18.6748
18.674
18.6743
18.6755
18.4017
18.4011
18.4014
18.4025
18.1951
18.1946
18.1949
18.196
18.0517
18.0515
18.0518
18.0528
17.9694
17.9694
17.9696
17.9705
17.9464
17.9467
17.9468
17.9476
17.9069
17.9075
17.9076
17.9083
17.8864
17.8873
17.8875
17.8879
17.9268
17.9281
17.9284
17.9285
18.0309
18.0326
18.033
18.0327
18.202
18.2043
18.205
18.2041
18.4451
18.448
18.449
18.4475
18.7661
18.7698
18.7713
18.769
19.1727
19.1771
19.1794
19.1762
19.6741
19.6792
19.6828
19.6784
20.2818
20.2875
20.2929
20.2872
21.0098
21.0159
21.0238
21.0165
21.8753
21.8812
21.8926
21.8835
22.8993
22.9041
22.9201
22.909
24.1075
24.11
24.1318
24.1185
25.5319
25.5303
25.5592
25.5431
27.4317
27.4882
27.4391
27.4366
29.11
29.1611
29.116
29.1118
29.685
29.69
29.6679
29.6559
29.4326
29.4167
29.4125
29.4015
28.6732
28.6523
28.658
28.653
27.6357
27.6165
27.6272
27.6291
26.4795
26.464
26.4761
26.4831
25.3107
25.2983
25.31
25.3205
24.1967
24.1865
24.1969
24.2091
23.1782
23.1691
23.1778
23.19
22.2766
22.268
22.2746
22.2858
21.5008
21.4922
21.4961
21.5056
20.8506
20.8422
20.8433
20.8512
20.3219
20.3133
20.3111
20.318
19.9067
19.8973
19.8923
19.8982
19.5804
19.5707
19.5637
19.569
19.3614
19.3516
19.3433
19.3481
19.2367
19.2267
19.2174
19.2218
19.2035
19.1933
19.1833
19.1874
19.2601
19.2496
19.2391
19.2429
19.4057
19.3951
19.3843
19.3879
19.6412
19.6305
19.6196
19.623
19.9686
19.9578
19.947
19.9502
20.3916
20.3807
20.3701
20.3732
20.9151
20.9043
20.8939
20.8969
21.546
21.5351
21.5253
21.528
22.2927
22.2819
22.2726
22.2752
23.1658
23.155
23.1464
23.1488
24.1781
24.1673
24.1595
24.1617
25.3449
25.3341
25.3271
25.3291
26.6429
26.6327
26.6265
26.6283
28.1116
28.1021
28.0971
28.0985
29.8019
29.7931
29.7892
29.7903
31.7455
31.7374
31.7346
31.7354
33.9809
33.9735
33.9717
33.9722
36.5547
36.5481
36.5472
36.5474
39.5241
39.5183
39.5183
39.5181
42.9597
42.9548
42.9556
42.9551
46.9498
46.9458
46.9471
46.9464
51.6052
51.6022
51.6039
51.603
57.0674
57.0652
57.0672
57.0661
63.5182
63.5171
63.5193
63.518
71.1957
71.1956
71.1979
71.1965
80.4151
80.416
80.4184
80.4168
91.6013
91.6032
91.6056
91.604
105.36
105.364
105.366
105.364
122.495
122.501
122.503
122.499
144.184
144.191
144.193
144.188
172.174
172.182
172.184
172.179
209.142
209.151
209.153
209.147
259.347
259.358
259.359
259.353
329.905
329.917
329.917
329.911
433.41
433.423
433.422
433.416
593.828
593.842
593.84
593.835
861.195
861.21
861.207
861.202
1353.55
1353.57
1353.56
1353.56
2398.82
2398.84
2398.83
2398.83
5103.19
5103.22
5103.2
5103.2
14994.2
14994.2
14994.2
14994.2
86943.4
86943.4
86943.4
86943.4
27.4204
27.4069
27.4441
27.4183
29.0978
29.0861
29.1202
29.0987
29.6572
29.668
29.679
29.6736
29.4151
29.4354
29.4276
29.4284
28.6735
28.6935
28.6752
28.6771
27.6513
27.6663
27.6438
27.645
26.5035
26.512
26.49
26.491
25.3362
25.3387
25.3197
25.3225
24.2185
24.2178
24.2026
24.2067
23.1937
23.1912
23.1799
23.1849
22.2849
22.2817
22.2738
22.2792
21.5027
21.4986
21.4934
21.4987
20.8472
20.8424
20.8392
20.8438
20.3134
20.3081
20.3065
20.3104
19.8935
19.8879
19.8877
19.8906
19.5645
19.5588
19.5591
19.5616
19.344
19.3385
19.3388
19.341
19.2182
19.213
19.2132
19.2152
19.184
19.1792
19.1795
19.1811
19.2398
19.2354
19.2357
19.2371
19.3848
19.381
19.3813
19.3824
19.6199
19.6165
19.6168
19.6178
19.947
19.9441
19.9445
19.9453
20.3699
20.3673
20.3679
20.3686
20.8934
20.8913
20.8919
20.8926
21.5245
21.5227
21.5234
21.5242
22.2715
22.2701
22.2709
22.2717
23.1451
23.144
23.1449
23.1457
24.158
24.1571
24.158
24.159
25.3254
25.3249
25.3258
25.3268
26.6247
26.6243
26.6254
26.6265
28.0949
28.0949
28.0959
28.0971
29.7866
29.7871
29.788
29.7893
31.7318
31.7324
31.7334
31.7349
33.9688
33.9695
33.9706
33.9721
36.5441
36.5449
36.5462
36.5478
39.515
39.5159
39.5173
39.519
42.9522
42.9532
42.9546
42.9564
46.9438
46.9448
46.9463
46.9481
51.6007
51.6017
51.6034
51.6052
57.0643
57.0652
57.067
57.069
63.5167
63.5174
63.5195
63.5214
71.1957
71.1962
71.1985
71.2004
80.4166
80.4169
80.4195
80.4211
91.6044
91.6044
91.6072
91.6085
105.365
105.365
105.368
105.369
122.501
122.502
122.505
122.506
144.19
144.192
144.196
144.195
172.182
172.184
172.188
172.186
209.15
209.153
209.157
209.155
259.356
259.359
259.363
259.36
329.914
329.917
329.921
329.918
433.419
433.423
433.427
433.423
593.837
593.84
593.844
593.84
861.203
861.207
861.211
861.207
1353.56
1353.56
1353.57
1353.56
2398.83
2398.83
2398.83
2398.84
5103.2
5103.2
5103.2
5103.21
14994.2
14994.2
14994.2
14994.2
86943.4
86943.4
86943.4
86943.4
)
;

boundaryField
{
    topWall
    {
        type            omegaWallFunction;
        beta1           0.075;
        blended         0;
        value           uniform 86943.4;
    }
    botWall
    {
        type            omegaWallFunction;
        beta1           0.075;
        blended         0;
        value           uniform 86943.4;
    }
    inlet
    {
        type            cyclic;
    }
    outlet
    {
        type            cyclic;
    }
    fixWall
    {
        type            empty;
    }
}


// ************************************************************************* //
