/*--------------------------------*- C++ -*----------------------------------*\
  =========                 |
  \\      /  F ield         | OpenFOAM: The Open Source CFD Toolbox
   \\    /   O peration     | Website:  https://openfoam.org
    \\  /    A nd           | Version:  dev
     \\/     M anipulation  |

   OpenFOAM for Windows 20.09 (v1)
   Built by CFD Support, www.cfdsupport.com (based on Symscape).
\*---------------------------------------------------------------------------*/
FoamFile
{
    version     2.0;
    format      ascii;
    class       volScalarField;
    location    "4";
    object      p;
}
// * * * * * * * * * * * * * * * * * * * * * * * * * * * * * * * * * * * * * //

dimensions      [1 -1 -2 0 0 0 0];

internalField   nonuniform List<scalar> 
960
(
0
-0.0561038
-0.116484
-0.178923
-0.0840925
-0.138196
-0.198256
-0.260701
-0.165575
-0.21994
-0.280005
-0.34245
-0.247017
-0.301664
-0.361754
-0.424198
-0.328466
-0.383405
-0.443503
-0.505951
-0.409926
-0.46514
-0.525252
-0.587701
-0.491393
-0.546871
-0.607
-0.66945
-0.572867
-0.628598
-0.688748
-0.751199
-0.654348
-0.710323
-0.770495
-0.832948
-0.735835
-0.792048
-0.852243
-0.91469
-0.817329
-0.873768
-0.93399
-0.996442
-0.898826
-0.955485
-1.01574
-1.07819
-0.98033
-1.03715
-1.09747
-1.15989
-1.06183
-1.11882
-1.17922
-1.24158
-1.14335
-1.20053
-1.26097
-1.32121
-1.22359
-1.28168
-1.34209
-1.40409
-1.30732
-1.36427
-1.42502
-1.48584
-1.38886
-1.44599
-1.50677
-1.5676
-1.4704
-1.52769
-1.58852
-1.64935
-1.55195
-1.6094
-1.67027
-1.7311
-1.6335
-1.69111
-1.75201
-1.81285
-1.71506
-1.77281
-1.83376
-1.8946
-1.79662
-1.85451
-1.91551
-1.97635
-1.87819
-1.93621
-1.99726
-2.0581
-1.95976
-2.01791
-2.079
-2.13985
-2.04134
-2.0996
-2.16075
-2.2216
-2.12292
-2.1813
-2.24249
-2.30334
-2.2045
-2.26299
-2.32423
-2.38511
-2.28609
-2.34468
-2.40597
-2.46686
-2.36695
-2.42637
-2.48642
-2.54722
-2.449
-2.50758
-2.56843
-2.63015
-2.53058
-2.59144
-2.65023
-2.71189
-2.61215
-2.67312
-2.73198
-2.79363
-2.69374
-2.75481
-2.81372
-2.87536
-2.77533
-2.83649
-2.89548
-2.9571
-2.85692
-2.91817
-2.97723
-3.03884
-2.93852
-2.99985
-3.05898
-3.12058
-3.02011
-3.08152
-3.14072
-3.20232
-3.10171
-3.1632
-3.22247
-3.28405
-3.18331
-3.24488
-3.30422
-3.36579
-3.26492
-3.32655
-3.38596
-3.44752
-3.34652
-3.40823
-3.46772
-3.52926
-3.42813
-3.4899
-3.54946
-3.61099
-3.50973
-3.57157
-3.63121
-3.69269
-3.5895
-3.65223
-3.71292
-3.77442
-3.67152
-3.73396
-3.79445
-3.8557
-3.75312
-3.81584
-3.87703
-3.93948
-3.83474
-3.89756
-3.95877
-4.02123
-3.91638
-3.97928
-4.04051
-4.10297
-3.99797
-4.06096
-4.12225
-4.18471
-4.07955
-4.14265
-4.20399
-4.26646
-4.16116
-4.22433
-4.28573
-4.3482
-4.24275
-4.30602
-4.36747
-4.42995
-4.32435
-4.3877
-4.44921
-4.51169
-4.40595
-4.46938
-4.53095
-4.59344
-4.48754
-4.55107
-4.61269
-4.67518
-4.56915
-4.63273
-4.6944
-4.75688
-4.65073
-4.71445
-4.77614
-4.83864
-4.73234
-4.79613
-4.85788
-4.92039
-4.81359
-4.87722
-4.93907
-5.00148
-0.241554
-0.303006
-0.365558
-0.430817
-0.32333
-0.384807
-0.44733
-0.512618
-0.405077
-0.466557
-0.529079
-0.594363
-0.486833
-0.548309
-0.610834
-0.676081
-0.568596
-0.630075
-0.692583
-0.757849
-0.650345
-0.711826
-0.774337
-0.839582
-0.732093
-0.793577
-0.856085
-0.921311
-0.813842
-0.875327
-0.937834
-1.00304
-0.89559
-0.957078
-1.01958
-1.08476
-0.977326
-1.03883
-1.10133
-1.16648
-1.05907
-1.12058
-1.18307
-1.2482
-1.14082
-1.20233
-1.26482
-1.32992
-1.22252
-1.28408
-1.34657
-1.41161
-1.30422
-1.36582
-1.42832
-1.49331
-1.3847
-1.44755
-1.51004
-1.57502
-1.46709
-1.52906
-1.59157
-1.655
-1.54884
-1.61193
-1.6743
-1.74096
-1.6306
-1.69368
-1.75605
-1.82267
-1.71236
-1.77542
-1.83779
-1.90438
-1.7941
-1.85717
-1.91953
-1.98608
-1.87584
-1.93891
-2.00127
-2.06778
-1.95759
-2.02065
-2.08301
-2.14949
-2.03933
-2.1024
-2.16475
-2.23119
-2.12107
-2.18414
-2.24649
-2.31289
-2.20282
-2.26589
-2.32823
-2.39459
-2.28456
-2.34763
-2.40997
-2.47628
-2.3663
-2.42938
-2.49171
-2.55796
-2.44805
-2.51112
-2.57345
-2.63966
-2.52979
-2.59286
-2.65519
-2.72133
-2.61153
-2.67461
-2.73529
-2.80103
-2.69223
-2.75597
-2.81845
-2.88355
-2.77543
-2.83846
-2.90019
-2.96524
-2.8572
-2.9202
-2.98194
-3.04692
-2.93896
-3.00196
-3.06368
-3.12861
-3.02071
-3.08371
-3.14542
-3.21029
-3.10246
-3.16545
-3.22717
-3.29197
-3.18422
-3.2472
-3.30891
-3.37365
-3.26598
-3.32895
-3.39066
-3.45532
-3.34773
-3.41069
-3.47239
-3.537
-3.42949
-3.49243
-3.55413
-3.61867
-3.51124
-3.57419
-3.63587
-3.70034
-3.59299
-3.65594
-3.71761
-3.78202
-3.67475
-3.73769
-3.79936
-3.86368
-3.75651
-3.81941
-3.8811
-3.94535
-3.83722
-3.90104
-3.96199
-4.02526
-3.91985
-3.9825
-4.04513
-4.10806
-4.0016
-4.06442
-4.12744
-4.18973
-4.0834
-4.14616
-4.20918
-4.27141
-4.16517
-4.22791
-4.29091
-4.35309
-4.24692
-4.30966
-4.37264
-4.43477
-4.32866
-4.39141
-4.45438
-4.51644
-4.41041
-4.47316
-4.53611
-4.59812
-4.49216
-4.55491
-4.61784
-4.6798
-4.57391
-4.63666
-4.69958
-4.76147
-4.65565
-4.7184
-4.78131
-4.84315
-4.7374
-4.80016
-4.86303
-4.92482
-4.81913
-4.88191
-4.94477
-5.00649
-4.90087
-4.96366
-5.02651
-5.08817
-4.98262
-5.04541
-5.10824
-5.16984
-5.0638
-5.12643
-5.18943
-5.25116
-4.85906
-4.92184
-4.98388
-5.04613
-4.86801
-4.93039
-4.99253
-5.05468
-4.87617
-4.93855
-5.0007
-5.06285
-4.88433
-4.94672
-5.00888
-5.07103
-4.89249
-4.95489
-5.01705
-5.0792
-4.90066
-4.96306
-5.02522
-5.08738
-4.90882
-4.97123
-5.0334
-5.09555
-4.91698
-4.9794
-5.04157
-5.10373
-4.92515
-4.98756
-5.04975
-5.1119
-4.93331
-4.99573
-5.05792
-5.12007
-4.94147
-5.0039
-5.06609
-5.12825
-4.94964
-5.01207
-5.07427
-5.13642
-4.9578
-5.02024
-5.08244
-5.1446
-4.96596
-5.02841
-5.09061
-5.15277
-4.97412
-5.03658
-5.09879
-5.16094
-4.98229
-5.04475
-5.10696
-5.16912
-4.99045
-5.05292
-5.11513
-5.1773
-4.99861
-5.06109
-5.12329
-5.18548
-5.00678
-5.06926
-5.13146
-5.19366
-5.01494
-5.07743
-5.13963
-5.20183
-5.0231
-5.0856
-5.1478
-5.21001
-5.03126
-5.09377
-5.15597
-5.21819
-5.03943
-5.10194
-5.16414
-5.22637
-5.04759
-5.11011
-5.1723
-5.23455
-5.05575
-5.11828
-5.18047
-5.24273
-5.06392
-5.12645
-5.18864
-5.25091
-5.07208
-5.13463
-5.19681
-5.25908
-5.08024
-5.1428
-5.20498
-5.26726
-5.08841
-5.15097
-5.21314
-5.27544
-5.09657
-5.15914
-5.22131
-5.28362
-5.10474
-5.16731
-5.22948
-5.2918
-5.11291
-5.17549
-5.23766
-5.29997
-5.12108
-5.18366
-5.24583
-5.30815
-5.12925
-5.19183
-5.254
-5.31633
-5.13742
-5.2
-5.26218
-5.3245
-5.14559
-5.20818
-5.27035
-5.33268
-5.15377
-5.21635
-5.27853
-5.34086
-5.16194
-5.22452
-5.2867
-5.34903
-5.17011
-5.2327
-5.29488
-5.35721
-5.17828
-5.24087
-5.30305
-5.36538
-5.18645
-5.24905
-5.31122
-5.37356
-5.19462
-5.25722
-5.3194
-5.38174
-5.2028
-5.26539
-5.32757
-5.38991
-5.21097
-5.27357
-5.33575
-5.39809
-5.21914
-5.28174
-5.34392
-5.40626
-5.22731
-5.28991
-5.3521
-5.41444
-5.23549
-5.29809
-5.36027
-5.42261
-5.24366
-5.30626
-5.36845
-5.43079
-5.25184
-5.31444
-5.37662
-5.43897
-5.26001
-5.32261
-5.3848
-5.44714
-5.26819
-5.33079
-5.39297
-5.45532
-5.27636
-5.33896
-5.40115
-5.4635
-5.28454
-5.34714
-5.40932
-5.47167
-5.29271
-5.35531
-5.4175
-5.47985
-5.30089
-5.36348
-5.42567
-5.48802
-5.30906
-5.37166
-5.43385
-5.4962
-5.31724
-5.37983
-5.44202
-5.50437
-5.32541
-5.38801
-5.4502
-5.51255
-5.33359
-5.39618
-5.45837
-5.52072
-5.34176
-5.40436
-5.46655
-5.5289
-5.10863
-5.17128
-5.23432
-5.2966
-5.11724
-5.1801
-5.24302
-5.30548
-5.12542
-5.18827
-5.25119
-5.31364
-5.13359
-5.19645
-5.25936
-5.32181
-5.14177
-5.20462
-5.26754
-5.32998
-5.14994
-5.21279
-5.27571
-5.33815
-5.15812
-5.22097
-5.28388
-5.34632
-5.16629
-5.22914
-5.29206
-5.35448
-5.17447
-5.23731
-5.30023
-5.36265
-5.18264
-5.24548
-5.3084
-5.37082
-5.19081
-5.25366
-5.31657
-5.37899
-5.19899
-5.26183
-5.32475
-5.38716
-5.20716
-5.27
-5.33292
-5.39533
-5.21534
-5.27818
-5.3411
-5.4035
-5.22351
-5.28635
-5.34927
-5.41167
-5.23169
-5.29453
-5.35744
-5.41984
-5.23986
-5.3027
-5.36561
-5.42802
-5.24804
-5.31088
-5.37378
-5.4362
-5.25622
-5.31905
-5.38194
-5.44437
-5.2644
-5.32723
-5.39011
-5.45255
-5.27257
-5.3354
-5.39828
-5.46073
-5.28075
-5.34358
-5.40645
-5.46891
-5.28893
-5.35176
-5.41462
-5.47708
-5.2971
-5.35993
-5.42279
-5.48526
-5.30528
-5.36811
-5.43095
-5.49344
-5.31346
-5.37629
-5.43912
-5.50161
-5.32164
-5.38446
-5.44729
-5.50979
-5.32981
-5.39264
-5.45546
-5.51797
-5.33799
-5.40081
-5.46363
-5.52615
-5.34616
-5.40899
-5.4718
-5.53433
-5.35434
-5.41716
-5.47996
-5.5425
-5.36251
-5.42534
-5.48813
-5.55068
-5.37069
-5.43351
-5.49631
-5.55885
-5.37887
-5.44168
-5.50448
-5.56703
-5.38704
-5.44986
-5.51265
-5.5752
-5.39522
-5.45803
-5.52082
-5.58338
-5.40339
-5.46621
-5.52899
-5.59155
-5.41157
-5.47438
-5.53716
-5.59973
-5.41974
-5.48255
-5.54533
-5.6079
-5.42791
-5.49072
-5.55351
-5.61608
-5.43609
-5.4989
-5.56168
-5.62425
-5.44426
-5.50707
-5.56985
-5.63243
-5.45244
-5.51524
-5.57802
-5.64061
-5.46061
-5.52342
-5.58619
-5.64878
-5.46878
-5.53159
-5.59436
-5.65696
-5.47696
-5.53977
-5.60254
-5.66513
-5.48514
-5.54794
-5.61071
-5.67331
-5.49331
-5.55612
-5.61889
-5.68148
-5.50149
-5.56429
-5.62706
-5.68966
-5.50966
-5.57246
-5.63523
-5.69783
-5.51784
-5.58064
-5.64341
-5.70601
-5.52601
-5.58881
-5.65158
-5.71418
-5.53419
-5.59699
-5.65976
-5.72235
-5.54236
-5.60516
-5.66793
-5.73053
-5.55054
-5.61334
-5.6761
-5.7387
-5.55872
-5.62151
-5.68428
-5.74688
-5.56689
-5.62969
-5.69245
-5.75505
-5.57507
-5.63786
-5.70063
-5.76323
-5.58324
-5.64604
-5.7088
-5.7714
-5.59142
-5.65421
-5.71698
-5.77958
)
;

boundaryField
{
    topWall
    {
        type            calculated;
        value           nonuniform List<scalar> 8(-5.34585 -5.40845 -5.47064 -5.53299 -5.5955 -5.6583 -5.72107 -5.78367);
    }
    botWall
    {
        type            calculated;
        value           nonuniform List<scalar> 8(0.0408772 -0.0152285 -0.0756094 -0.138048 -0.200679 -0.262131 -0.324683 -0.389942);
    }
    inlet
    {
        type            cyclic;
    }
    outlet
    {
        type            cyclic;
    }
    fixWall
    {
        type            empty;
    }
}


// ************************************************************************* //
