/*--------------------------------*- C++ -*----------------------------------*\
  =========                 |
  \\      /  F ield         | OpenFOAM: The Open Source CFD Toolbox
   \\    /   O peration     | Website:  https://openfoam.org
    \\  /    A nd           | Version:  dev
     \\/     M anipulation  |

   OpenFOAM for Windows 20.09 (v1)
   Built by CFD Support, www.cfdsupport.com (based on Symscape).
\*---------------------------------------------------------------------------*/
FoamFile
{
    version     2.0;
    format      ascii;
    class       volScalarField;
    location    "4";
    object      p_rgh;
}
// * * * * * * * * * * * * * * * * * * * * * * * * * * * * * * * * * * * * * //

dimensions      [1 -1 -2 0 0 0 0];

internalField   nonuniform List<scalar> 
960
(
0.0408772
-0.0152285
-0.0756094
-0.138048
0.0385324
-0.0155707
-0.075631
-0.138076
0.0387995
-0.0155646
-0.0756302
-0.138075
0.0391081
-0.0155396
-0.0756292
-0.138073
0.0394086
-0.0155306
-0.075628
-0.138076
0.0396992
-0.0155151
-0.0756266
-0.138076
0.0399817
-0.0154957
-0.0756248
-0.138075
0.0402583
-0.015473
-0.0756228
-0.138074
0.0405272
-0.0154482
-0.0756205
-0.138073
0.0407898
-0.0154229
-0.0756179
-0.138065
0.0410469
-0.0153926
-0.075615
-0.138067
0.0412998
-0.0153598
-0.0756121
-0.138067
0.0415454
-0.015273
-0.0756008
-0.138018
0.0417935
-0.0151948
-0.0756009
-0.137957
0.0420375
-0.0151514
-0.0755872
-0.135858
0.0435613
-0.0145409
-0.0749493
-0.136975
0.0415565
-0.0153983
-0.0761492
-0.136964
0.0417688
-0.0153609
-0.0761463
-0.136972
0.041975
-0.0153196
-0.0761435
-0.136974
0.0421766
-0.0152782
-0.076141
-0.136975
0.0423733
-0.0152331
-0.0761377
-0.136976
0.0425654
-0.0151861
-0.0761357
-0.136974
0.0427532
-0.0151366
-0.076136
-0.136979
0.042938
-0.0150845
-0.0761328
-0.136979
0.043113
-0.0150338
-0.0761291
-0.136979
0.0432878
-0.014979
-0.0761248
-0.136978
0.0434583
-0.0149232
-0.0761114
-0.136968
0.0436248
-0.0148666
-0.0761063
-0.136987
0.0437886
-0.0148076
-0.0760979
-0.136986
0.0446928
-0.0147008
-0.074756
-0.13563
0.0443843
-0.0141511
-0.0750254
-0.136777
0.0445454
-0.0163164
-0.0751007
-0.136762
0.0447211
-0.0162447
-0.0751005
-0.13675
0.0448821
-0.0161839
-0.0750937
-0.136739
0.0450438
-0.0161133
-0.0751051
-0.136727
0.0452029
-0.0160424
-0.0751038
-0.136715
0.0453592
-0.0159689
-0.0751002
-0.136702
0.0455174
-0.0158952
-0.0750983
-0.136689
0.0456653
-0.0158242
-0.0750974
-0.136678
0.0458125
-0.0157504
-0.0750954
-0.13666
0.0459576
-0.0156759
-0.075088
-0.136648
0.0461039
-0.0155997
-0.0750914
-0.136633
0.0462461
-0.0155219
-0.075088
-0.136614
0.0463946
-0.0154457
-0.0750843
-0.136567
0.0483021
-0.0144034
-0.0750156
-0.136487
0.0480485
-0.0143808
-0.0747868
-0.135992
0.0482571
-0.0144654
-0.0756534
-0.138107
0.0483799
-0.0144312
-0.0756446
-0.138103
0.0484934
-0.0144069
-0.0756357
-0.138098
0.0486497
-0.0143416
-0.0756266
-0.138093
0.0488192
-0.0142743
-0.0756172
-0.138087
0.0489635
-0.014204
-0.0756057
-0.138082
0.0491187
-0.0141486
-0.0755963
-0.138078
0.049273
-0.0140799
-0.0755896
-0.138072
0.0494277
-0.0140106
-0.075578
-0.138065
0.0495818
-0.013941
-0.075567
-0.138059
0.0497288
-0.0138571
-0.075526
-0.138008
0.0498955
-0.0138232
-0.0755191
-0.138019
0.0500293
-0.01376
-0.0755377
-0.138026
0.00533143
-0.084944
-0.141535
-0.215183
-0.200679
-0.262131
-0.324683
-0.389942
-0.200705
-0.262182
-0.324705
-0.389993
-0.200702
-0.262182
-0.324704
-0.389988
-0.200708
-0.262184
-0.324709
-0.389956
-0.200721
-0.2622
-0.324708
-0.389974
-0.20072
-0.262201
-0.324712
-0.389957
-0.200718
-0.262202
-0.32471
-0.389936
-0.200717
-0.262202
-0.324709
-0.389912
-0.200715
-0.262203
-0.324707
-0.389885
-0.200701
-0.262202
-0.324703
-0.389853
-0.2007
-0.262204
-0.3247
-0.389824
-0.200699
-0.262207
-0.3247
-0.389793
-0.200647
-0.262205
-0.324697
-0.389732
-0.200596
-0.262191
-0.324693
-0.389685
-0.199342
-0.262164
-0.324659
-0.389614
-0.199971
-0.26192
-0.324435
-0.387821
-0.199962
-0.263054
-0.325427
-0.392084
-0.19998
-0.26305
-0.32542
-0.392043
-0.199982
-0.263046
-0.325412
-0.392001
-0.199976
-0.263041
-0.325403
-0.391957
-0.199966
-0.263032
-0.325394
-0.39191
-0.199962
-0.263029
-0.325385
-0.391865
-0.199956
-0.263024
-0.325375
-0.391816
-0.19995
-0.263019
-0.325364
-0.391765
-0.199943
-0.263014
-0.325358
-0.391713
-0.199936
-0.263009
-0.325347
-0.391659
-0.199929
-0.263004
-0.325336
-0.391589
-0.199921
-0.262996
-0.325324
-0.391533
-0.199913
-0.262987
-0.325312
-0.391456
-0.1999
-0.26299
-0.323623
-0.389353
-0.198822
-0.262619
-0.325068
-0.390147
-0.200305
-0.263337
-0.325067
-0.390111
-0.200324
-0.263327
-0.325061
-0.390047
-0.20033
-0.263333
-0.325056
-0.389988
-0.200335
-0.263332
-0.32505
-0.389917
-0.200338
-0.263329
-0.325047
-0.389845
-0.200346
-0.263326
-0.325039
-0.389771
-0.200351
-0.263322
-0.325031
-0.389695
-0.200357
-0.263319
-0.325019
-0.389621
-0.200362
-0.263309
-0.325006
-0.389545
-0.200365
-0.263313
-0.324998
-0.389468
-0.200363
-0.263311
-0.32499
-0.38939
-0.200374
-0.263311
-0.324982
-0.38931
-0.200383
-0.26329
-0.324972
-0.389228
-0.199384
-0.263167
-0.324149
-0.38745
-0.200235
-0.262868
-0.325479
-0.388457
-0.200225
-0.263044
-0.326067
-0.388358
-0.200277
-0.263041
-0.326052
-0.388287
-0.200298
-0.263032
-0.326034
-0.388216
-0.200295
-0.263041
-0.326019
-0.388143
-0.200293
-0.263039
-0.326003
-0.388069
-0.20029
-0.263037
-0.325987
-0.387994
-0.200288
-0.263036
-0.32597
-0.387919
-0.200285
-0.263034
-0.325953
-0.387844
-0.200282
-0.263028
-0.325935
-0.387769
-0.200279
-0.263036
-0.325906
-0.387692
-0.200262
-0.263033
-0.325899
-0.387617
-0.200246
-0.263034
-0.325882
-0.387541
-0.200257
-0.263041
-0.32591
-0.387501
-0.266374
-0.348596
-0.390044
-0.43009
-4.268
-4.38215
-4.43137
-4.50534
-4.36523
-4.42754
-4.48971
-4.55188
-4.36523
-4.42762
-4.48976
-4.55192
-4.36522
-4.42761
-4.48976
-4.55192
-4.36521
-4.4276
-4.48976
-4.55192
-4.3652
-4.4276
-4.48976
-4.55191
-4.36518
-4.42759
-4.48976
-4.55191
-4.36517
-4.42758
-4.48976
-4.55191
-4.36516
-4.42758
-4.48976
-4.55191
-4.36515
-4.42757
-4.48976
-4.55191
-4.36514
-4.42757
-4.48976
-4.55191
-4.36512
-4.42756
-4.48975
-4.55191
-4.36511
-4.42755
-4.48975
-4.55191
-4.3651
-4.42755
-4.48975
-4.55191
-4.36509
-4.42754
-4.48975
-4.55191
-4.36507
-4.42754
-4.48974
-4.55191
-4.36506
-4.42753
-4.48974
-4.55191
-4.36505
-4.42753
-4.48973
-4.55191
-4.36504
-4.42752
-4.48973
-4.55192
-4.36503
-4.42752
-4.48972
-4.55192
-4.36501
-4.42751
-4.48971
-4.55193
-4.365
-4.42751
-4.48971
-4.55193
-4.36499
-4.42751
-4.4897
-4.55193
-4.36498
-4.4275
-4.48969
-4.55194
-4.36496
-4.4275
-4.48968
-4.55194
-4.36495
-4.42749
-4.48968
-4.55194
-4.36494
-4.42749
-4.48967
-4.55195
-4.36493
-4.42749
-4.48966
-4.55195
-4.36492
-4.42748
-4.48966
-4.55195
-4.36491
-4.42748
-4.48965
-4.55196
-4.3649
-4.42748
-4.48965
-4.55196
-4.3649
-4.42747
-4.48964
-4.55196
-4.36489
-4.42747
-4.48964
-4.55196
-4.36489
-4.42747
-4.48964
-4.55196
-4.36488
-4.42747
-4.48964
-4.55197
-4.36488
-4.42747
-4.48964
-4.55197
-4.36488
-4.42746
-4.48964
-4.55197
-4.36488
-4.42746
-4.48964
-4.55197
-4.36487
-4.42746
-4.48964
-4.55197
-4.36487
-4.42746
-4.48964
-4.55197
-4.36487
-4.42746
-4.48964
-4.55197
-4.36486
-4.42746
-4.48964
-4.55197
-4.36486
-4.42745
-4.48964
-4.55197
-4.36486
-4.42745
-4.48964
-4.55197
-4.36485
-4.42745
-4.48963
-4.55197
-4.36485
-4.42745
-4.48963
-4.55198
-4.36485
-4.42745
-4.48963
-4.55198
-4.36485
-4.42745
-4.48963
-4.55198
-4.36485
-4.42745
-4.48963
-4.55198
-4.36485
-4.42745
-4.48963
-4.55198
-4.36485
-4.42745
-4.48963
-4.55198
-4.36485
-4.42745
-4.48963
-4.55198
-4.36485
-4.42745
-4.48963
-4.55198
-4.36485
-4.42745
-4.48963
-4.55198
-4.36485
-4.42745
-4.48963
-4.55198
-4.36485
-4.42745
-4.48964
-4.55199
-4.36485
-4.42745
-4.48964
-4.55199
-4.36485
-4.42745
-4.48964
-4.55199
-4.36485
-4.42745
-4.48964
-4.55199
-4.36485
-4.42745
-4.48964
-4.55199
-4.55985
-4.59764
-4.67544
-4.71547
-4.61445
-4.67732
-4.74022
-4.8027
-4.61448
-4.67734
-4.74025
-4.80271
-4.61448
-4.67733
-4.74025
-4.8027
-4.61448
-4.67733
-4.74025
-4.80269
-4.61448
-4.67733
-4.74025
-4.80268
-4.61448
-4.67733
-4.74024
-4.80268
-4.61448
-4.67733
-4.74024
-4.80267
-4.61448
-4.67732
-4.74024
-4.80267
-4.61448
-4.67732
-4.74024
-4.80266
-4.61448
-4.67732
-4.74024
-4.80265
-4.61448
-4.67732
-4.74024
-4.80265
-4.61448
-4.67732
-4.74023
-4.80264
-4.61448
-4.67732
-4.74023
-4.80264
-4.61448
-4.67732
-4.74023
-4.80263
-4.61448
-4.67732
-4.74023
-4.80263
-4.61448
-4.67731
-4.74022
-4.80263
-4.61448
-4.67731
-4.74021
-4.80263
-4.61448
-4.67731
-4.74021
-4.80264
-4.61448
-4.67732
-4.7402
-4.80264
-4.61448
-4.67732
-4.74019
-4.80264
-4.61449
-4.67732
-4.74019
-4.80264
-4.61449
-4.67732
-4.74018
-4.80265
-4.61449
-4.67732
-4.74017
-4.80265
-4.61449
-4.67732
-4.74017
-4.80265
-4.6145
-4.67732
-4.74016
-4.80265
-4.6145
-4.67732
-4.74015
-4.80266
-4.6145
-4.67732
-4.74015
-4.80266
-4.6145
-4.67733
-4.74014
-4.80266
-4.6145
-4.67732
-4.74013
-4.80266
-4.6145
-4.67732
-4.74013
-4.80267
-4.6145
-4.67732
-4.74012
-4.80267
-4.6145
-4.67732
-4.74012
-4.80267
-4.6145
-4.67732
-4.74012
-4.80266
-4.6145
-4.67732
-4.74011
-4.80267
-4.6145
-4.67732
-4.74011
-4.80267
-4.6145
-4.67732
-4.7401
-4.80267
-4.6145
-4.67732
-4.7401
-4.80267
-4.6145
-4.67731
-4.7401
-4.80267
-4.6145
-4.67731
-4.74009
-4.80267
-4.6145
-4.67731
-4.74009
-4.80267
-4.6145
-4.67731
-4.74009
-4.80267
-4.6145
-4.67731
-4.74008
-4.80267
-4.6145
-4.67731
-4.74008
-4.80267
-4.6145
-4.6773
-4.74008
-4.80267
-4.6145
-4.6773
-4.74008
-4.80267
-4.6145
-4.6773
-4.74007
-4.80267
-4.6145
-4.6773
-4.74007
-4.80267
-4.6145
-4.6773
-4.74007
-4.80267
-4.6145
-4.6773
-4.74007
-4.80267
-4.6145
-4.6773
-4.74007
-4.80267
-4.6145
-4.6773
-4.74007
-4.80267
-4.6145
-4.6773
-4.74007
-4.80267
-4.6145
-4.6773
-4.74007
-4.80267
-4.6145
-4.6773
-4.74007
-4.80267
-4.6145
-4.6773
-4.74007
-4.80267
-4.6145
-4.6773
-4.74007
-4.80267
-4.6145
-4.6773
-4.74007
-4.80267
-4.6145
-4.6773
-4.74007
-4.80267
-4.6145
-4.6773
-4.74007
-4.80267
)
;

boundaryField
{
    topWall
    {
        type            zeroGradient;
    }
    botWall
    {
        type            zeroGradient;
    }
    inlet
    {
        type            fixedJump;
        patchType       cyclic;
        jump            uniform -0.5;
        value           nonuniform List<scalar> 
120
(
-4.33396
-4.24174
0.0376205
0.0812639
0.0811775
0.0810558
0.080945
0.0808292
0.0807144
0.0805996
0.0804845
0.080375
0.0802533
0.0801389
0.0800466
0.0799494
0.0797958
0.0804262
0.0785831
0.0784681
0.0783569
0.0782446
0.0781339
0.0780223
0.0779111
0.0777943
0.0776791
0.0775634
0.0774471
0.0773373
0.0772172
0.0771189
0.0776698
0.0761661
0.0760461
0.0759348
0.0758146
0.0757001
0.0755864
0.0754687
0.07535
0.0752317
0.0751096
0.0749869
0.0748627
0.0747364
0.0778702
0.0762119
0.0760541
0.0759067
0.0757535
0.0756116
0.0754683
0.0753213
0.0751731
0.0750227
0.0748711
0.0747171
0.0745759
0.0744057
0.0742696
0.0754674
-4.33397
-4.33396
-4.33395
-4.33394
-4.33393
-4.33392
-4.33391
-4.3339
-4.3339
-4.33389
-4.33388
-4.33387
-4.33386
-4.33385
-4.33385
-4.33384
-4.33384
-4.33383
-4.33383
-4.33382
-4.33382
-4.33381
-4.33381
-4.3338
-4.3338
-4.33379
-4.33379
-4.33379
-4.33378
-4.33378
-4.33378
-4.33378
-4.33377
-4.33377
-4.33377
-4.33377
-4.33377
-4.33377
-4.33377
-4.33377
-4.33376
-4.33376
-4.33376
-4.33376
-4.33376
-4.33376
-4.33376
-4.33376
-4.33376
-4.33376
-4.33376
-4.33376
-4.33376
-4.33376
-4.33376
-4.33376
-4.33376
-4.33376
)
;
    }
    outlet
    {
        type            fixedJump;
        patchType       cyclic;
        value           nonuniform List<scalar> 
120
(
-4.83396
-4.74174
-0.46238
-0.418736
-0.418822
-0.418944
-0.419055
-0.419171
-0.419286
-0.4194
-0.419515
-0.419625
-0.419747
-0.419861
-0.419953
-0.420051
-0.420204
-0.419574
-0.421417
-0.421532
-0.421643
-0.421755
-0.421866
-0.421978
-0.422089
-0.422206
-0.422321
-0.422437
-0.422553
-0.422663
-0.422783
-0.422881
-0.42233
-0.423834
-0.423954
-0.424065
-0.424185
-0.4243
-0.424414
-0.424531
-0.42465
-0.424768
-0.42489
-0.425013
-0.425137
-0.425264
-0.42213
-0.423788
-0.423946
-0.424093
-0.424247
-0.424388
-0.424532
-0.424679
-0.424827
-0.424977
-0.425129
-0.425283
-0.425424
-0.425594
-0.42573
-0.424533
-4.83397
-4.83396
-4.83395
-4.83394
-4.83393
-4.83392
-4.83391
-4.8339
-4.8339
-4.83389
-4.83388
-4.83387
-4.83386
-4.83385
-4.83385
-4.83384
-4.83384
-4.83383
-4.83383
-4.83382
-4.83382
-4.83381
-4.83381
-4.8338
-4.8338
-4.83379
-4.83379
-4.83379
-4.83378
-4.83378
-4.83378
-4.83378
-4.83377
-4.83377
-4.83377
-4.83377
-4.83377
-4.83377
-4.83377
-4.83377
-4.83376
-4.83376
-4.83376
-4.83376
-4.83376
-4.83376
-4.83376
-4.83376
-4.83376
-4.83376
-4.83376
-4.83376
-4.83376
-4.83376
-4.83376
-4.83376
-4.83376
-4.83376
)
;
    }
    fixWall
    {
        type            empty;
    }
}


// ************************************************************************* //
