/*--------------------------------*- C++ -*----------------------------------*\
  =========                 |
  \\      /  F ield         | OpenFOAM: The Open Source CFD Toolbox
   \\    /   O peration     | Website:  https://openfoam.org
    \\  /    A nd           | Version:  dev
     \\/     M anipulation  |

   OpenFOAM for Windows 20.09 (v1)
   Built by CFD Support, www.cfdsupport.com (based on Symscape).
\*---------------------------------------------------------------------------*/
FoamFile
{
    version     2.0;
    format      ascii;
    class       surfaceScalarField;
    location    "4";
    object      phi;
}
// * * * * * * * * * * * * * * * * * * * * * * * * * * * * * * * * * * * * * //

dimensions      [0 3 -1 0 0 0 0];

internalField   nonuniform List<scalar> 
1792
(
1.52164e-09
4.25121e-11
1.54129e-09
-1.95775e-11
1.54413e-09
-2.86785e-12
8.53673e-12
1.53555e-09
4.24159e-09
9.16324e-11
4.26959e-09
-4.75376e-11
4.27023e-09
-3.53527e-12
3.24798e-11
4.24624e-09
6.62537e-09
1.40034e-10
6.65853e-09
-8.07315e-11
6.65661e-09
-1.62451e-12
6.86578e-11
6.62041e-09
8.6989e-09
1.89346e-10
8.73584e-09
-1.17716e-10
8.73251e-09
1.68795e-12
1.1368e-10
8.68748e-09
1.04926e-08
2.39227e-10
1.05326e-08
-1.57718e-10
1.05273e-08
6.97242e-12
1.64921e-10
1.04761e-08
1.20347e-08
2.88371e-10
1.2077e-08
-2.00048e-10
1.20699e-08
1.40824e-11
2.2052e-10
1.20143e-08
1.33517e-08
3.35956e-10
1.3396e-08
-2.44324e-10
1.33874e-08
2.27627e-11
2.79114e-10
1.33288e-08
1.44689e-08
3.81793e-10
1.45147e-08
-2.90121e-10
1.45052e-08
3.22494e-11
3.39364e-10
1.4445e-08
1.54098e-08
4.25542e-10
1.5457e-08
-3.37275e-10
1.54473e-08
4.19596e-11
4.00432e-10
1.53862e-08
1.61965e-08
4.67432e-10
1.62449e-08
-3.85694e-10
1.62356e-08
5.13264e-11
4.6064e-10
1.61754e-08
1.68492e-08
5.06825e-10
1.68991e-08
-4.356e-10
1.68904e-08
6.01174e-11
5.19873e-10
1.68312e-08
1.73863e-08
5.44673e-10
1.74373e-08
-4.867e-10
1.74299e-08
6.75555e-11
5.76298e-10
1.73735e-08
1.78249e-08
5.80058e-10
1.78775e-08
-5.39387e-10
1.78707e-08
7.43973e-11
6.28831e-10
1.78183e-08
1.81774e-08
6.1486e-10
1.82328e-08
-5.94948e-10
1.82275e-08
7.9754e-11
6.75034e-10
1.81814e-08
1.84593e-08
6.47924e-10
1.85179e-08
-6.52172e-10
1.85147e-08
8.0895e-11
7.13327e-10
1.84741e-08
1.86792e-08
6.74321e-10
1.87467e-08
-7.18418e-10
1.87352e-08
9.12895e-11
7.33399e-10
1.87147e-08
1.88616e-08
7.00611e-10
1.89257e-08
-7.82556e-10
1.89187e-08
9.83163e-11
7.47513e-10
1.89046e-08
1.90036e-08
7.25843e-10
1.90674e-08
-8.46305e-10
1.90631e-08
1.02629e-10
7.55692e-10
1.90549e-08
1.91158e-08
7.49057e-10
1.91789e-08
-9.09379e-10
1.91759e-08
1.05625e-10
7.59685e-10
1.91719e-08
1.92022e-08
7.71947e-10
1.92645e-08
-9.71711e-10
1.92637e-08
1.06452e-10
7.605e-10
1.92629e-08
1.92692e-08
7.94069e-10
1.93307e-08
-1.03318e-09
1.9331e-08
1.06198e-10
7.59148e-10
1.93324e-08
1.93203e-08
8.16256e-10
1.93805e-08
-1.09342e-09
1.9382e-08
1.04727e-10
7.55843e-10
1.93854e-08
1.93593e-08
8.38127e-10
1.94181e-08
-1.15218e-09
1.94206e-08
1.02205e-10
7.51267e-10
1.94253e-08
1.93885e-08
8.60735e-10
1.94457e-08
-1.20935e-09
1.94491e-08
9.88197e-11
7.45468e-10
1.9455e-08
1.94114e-08
8.82986e-10
1.94661e-08
-1.26403e-09
1.94701e-08
9.47715e-11
7.38397e-10
1.94773e-08
1.94286e-08
9.05771e-10
1.94806e-08
-1.31603e-09
1.94851e-08
9.0317e-11
7.30587e-10
1.94929e-08
1.94427e-08
9.28561e-10
1.94913e-08
-1.36456e-09
1.9496e-08
8.55243e-11
7.21779e-10
1.95049e-08
1.94543e-08
9.52185e-10
1.94984e-08
-1.40866e-09
1.95027e-08
8.12172e-11
7.12265e-10
1.95122e-08
1.94657e-08
9.75738e-10
1.95035e-08
-1.44651e-09
1.95077e-08
7.70547e-11
7.01181e-10
1.95188e-08
1.94815e-08
9.91622e-10
1.95015e-08
-1.46534e-09
1.95105e-08
6.95377e-11
6.87945e-10
1.95216e-08
1.94925e-08
1.01507e-09
1.95044e-08
-1.47589e-09
1.95153e-08
5.96087e-11
6.7324e-10
1.95297e-08
1.95036e-08
1.04014e-09
1.95043e-08
-1.4766e-09
1.95175e-08
4.63951e-11
6.58317e-10
1.95325e-08
1.95145e-08
1.0667e-09
1.95092e-08
-1.47133e-09
1.95216e-08
3.39826e-11
6.42189e-10
1.95377e-08
1.95257e-08
1.09448e-09
1.95156e-08
-1.46123e-09
1.95269e-08
2.26349e-11
6.25559e-10
1.95435e-08
1.95394e-08
1.12286e-09
1.95255e-08
-1.4473e-09
1.95361e-08
1.2027e-11
6.08104e-10
1.95535e-08
1.95557e-08
1.1522e-09
1.95388e-08
-1.43049e-09
1.95489e-08
1.94294e-12
5.89985e-10
1.9567e-08
1.95769e-08
1.18201e-09
1.95573e-08
-1.41086e-09
1.95671e-08
-7.94355e-12
5.70881e-10
1.95862e-08
1.96041e-08
1.21251e-09
1.95823e-08
-1.38901e-09
1.95917e-08
-1.74479e-11
5.50635e-10
1.9612e-08
1.96402e-08
1.24341e-09
1.96159e-08
-1.36471e-09
1.96249e-08
-2.65281e-11
5.2895e-10
1.96466e-08
1.96871e-08
1.27452e-09
1.96603e-08
-1.33792e-09
1.96689e-08
-3.51691e-11
5.05632e-10
1.96923e-08
1.9749e-08
1.30536e-09
1.9719e-08
-1.30791e-09
1.97267e-08
-4.28413e-11
4.80295e-10
1.9752e-08
1.98289e-08
1.33545e-09
1.97954e-08
-1.27448e-09
1.98023e-08
-4.96974e-11
4.53145e-10
1.98295e-08
1.99325e-08
1.36383e-09
1.98948e-08
-1.23682e-09
1.99e-08
-5.48457e-11
4.23842e-10
1.99293e-08
2.00645e-08
1.38922e-09
2.00231e-08
-1.19538e-09
2.00261e-08
-5.78567e-11
3.93162e-10
2.00567e-08
2.02319e-08
1.40985e-09
2.01867e-08
-1.14779e-09
2.01865e-08
-5.95343e-11
3.61871e-10
2.02205e-08
2.04438e-08
1.41998e-09
2.04e-08
-1.1027e-09
2.03932e-08
-5.50128e-11
3.43374e-10
2.04109e-08
2.07057e-08
1.42283e-09
2.06541e-08
-1.05114e-09
2.06413e-08
-4.2136e-11
3.23233e-10
2.06614e-08
2.10254e-08
1.42155e-09
2.09681e-08
-9.93821e-10
2.09517e-08
-2.5705e-11
3.01589e-10
2.09733e-08
2.14157e-08
1.41868e-09
2.13532e-08
-9.31323e-10
2.13344e-08
-6.91021e-12
2.78032e-10
2.13579e-08
2.18887e-08
1.41487e-09
2.18223e-08
-8.6493e-10
2.18024e-08
1.29325e-11
2.52394e-10
2.18281e-08
2.24597e-08
1.41154e-09
2.23899e-08
-7.95177e-10
2.23694e-08
3.34631e-11
2.24777e-10
2.2397e-08
2.31437e-08
1.40817e-09
2.30718e-08
-7.23261e-10
2.30513e-08
5.39945e-11
1.95073e-10
2.3081e-08
2.3959e-08
1.40597e-09
2.38851e-08
-6.49351e-10
2.38647e-08
7.43539e-11
1.63251e-10
2.38966e-08
2.49242e-08
1.40427e-09
2.48489e-08
-5.74076e-10
2.48292e-08
9.41074e-11
1.29279e-10
2.48632e-08
2.60601e-08
1.40446e-09
2.59836e-08
-4.97656e-10
2.59642e-08
1.13569e-10
9.36624e-11
2.59998e-08
2.73889e-08
1.40554e-09
2.73109e-08
-4.19734e-10
2.72919e-08
1.32647e-10
5.66041e-11
2.73289e-08
2.8933e-08
1.40923e-09
2.88535e-08
-3.40251e-10
2.88347e-08
1.5147e-10
1.99098e-11
2.88714e-08
3.07208e-08
1.41365e-09
3.06369e-08
-2.56297e-10
3.06168e-08
1.71524e-10
-1.57353e-11
3.06525e-08
3.27735e-08
1.42208e-09
3.26851e-08
-1.67844e-10
3.26617e-08
1.94874e-10
-4.70501e-11
3.2693e-08
3.5132e-08
1.42577e-09
3.50361e-08
-7.17918e-11
3.50103e-08
2.21031e-10
3.50377e-08
-7.32377e-11
1.52914e-09
6.44368e-12
1.53394e-09
-4.74882e-12
1.544e-09
-1.01133e-11
-2.0606e-11
4.23166e-09
2.10404e-11
4.2424e-09
-1.55085e-11
4.26488e-09
-3.26046e-11
-4.64099e-11
6.60021e-09
4.12255e-11
6.61464e-09
-3.0027e-11
6.64617e-09
-6.4124e-11
-7.40819e-11
8.6632e-09
6.54939e-11
8.68003e-09
-4.69424e-11
8.72112e-09
-1.0521e-10
-1.013e-10
1.04489e-08
9.26779e-11
1.04684e-08
-6.64965e-11
1.05146e-08
-1.51486e-10
-1.29301e-10
1.19849e-08
1.22057e-10
1.20055e-08
-8.71571e-11
1.20572e-08
-2.03112e-10
-1.5603e-10
1.32977e-08
1.53112e-10
1.33189e-08
-1.08358e-10
1.33737e-08
-2.57919e-10
-1.81617e-10
1.44127e-08
1.85368e-10
1.44342e-08
-1.29749e-10
1.44906e-08
-3.14395e-10
-2.05589e-10
1.53533e-08
2.18313e-10
1.53747e-08
-1.51088e-10
1.54315e-08
-3.71158e-10
-2.27501e-10
1.61419e-08
2.51761e-10
1.61635e-08
-1.72549e-10
1.62192e-08
-4.26815e-10
-2.46514e-10
1.67989e-08
2.84038e-10
1.68202e-08
-1.93742e-10
1.68739e-08
-4.80503e-10
-2.61059e-10
1.73426e-08
3.15024e-10
1.73646e-08
-2.15698e-10
1.74149e-08
-5.30749e-10
-2.70153e-10
1.77896e-08
3.43668e-10
1.78123e-08
-2.38335e-10
1.78578e-08
-5.76241e-10
-2.72546e-10
1.81557e-08
3.69369e-10
1.818e-08
-2.62697e-10
1.82212e-08
-6.17394e-10
-2.6346e-10
1.84524e-08
3.87945e-10
1.84794e-08
-2.88444e-10
1.85146e-08
-6.51318e-10
-2.41031e-10
1.87019e-08
3.95825e-10
1.87194e-08
-3.0376e-10
1.87644e-08
-6.94056e-10
-1.82672e-10
1.88937e-08
4.0667e-10
1.89117e-08
-3.21698e-10
1.89408e-08
-7.23164e-10
-1.29759e-10
1.9046e-08
4.15592e-10
1.9062e-08
-3.3769e-10
1.90863e-08
-7.47449e-10
-7.23756e-11
1.91642e-08
4.2332e-10
1.91781e-08
-3.51574e-10
1.91986e-08
-7.68041e-10
-1.27352e-11
1.92563e-08
4.29883e-10
1.92688e-08
-3.64098e-10
1.92864e-08
-7.85664e-10
4.86905e-11
1.93267e-08
4.35547e-10
1.93379e-08
-3.7533e-10
1.93534e-08
-8.01171e-10
1.1078e-10
1.93806e-08
4.40247e-10
1.93912e-08
-3.85836e-10
1.9405e-08
-8.15003e-10
1.73337e-10
1.94213e-08
4.4416e-10
1.94312e-08
-3.9567e-10
1.94438e-08
-8.27579e-10
2.3591e-10
1.94517e-08
4.47341e-10
1.94617e-08
-4.05553e-10
1.94735e-08
-8.39411e-10
2.98285e-10
1.94747e-08
4.49905e-10
1.94845e-08
-4.15334e-10
1.94957e-08
-8.50612e-10
3.6034e-10
1.94909e-08
4.5189e-10
1.95016e-08
-4.26002e-10
1.95129e-08
-8.61874e-10
4.21836e-10
1.95034e-08
4.53299e-10
1.95146e-08
-4.37155e-10
1.95256e-08
-8.72908e-10
4.8198e-10
1.95112e-08
4.54274e-10
1.9524e-08
-4.4996e-10
1.9536e-08
-8.84873e-10
5.40094e-10
1.9518e-08
4.55053e-10
1.95315e-08
-4.6339e-10
1.95437e-08
-8.97182e-10
5.94588e-10
1.95213e-08
4.55442e-10
1.95365e-08
-4.79294e-10
1.95518e-08
-9.11125e-10
6.4741e-10
1.95276e-08
4.56896e-10
1.95377e-08
-4.89009e-10
1.95544e-08
-9.26868e-10
6.84366e-10
1.9528e-08
4.61308e-10
1.95417e-08
-5.02695e-10
1.95616e-08
-9.4679e-10
7.17316e-10
1.95333e-08
4.65699e-10
1.95482e-08
-5.17502e-10
1.957e-08
-9.68624e-10
7.46262e-10
1.95394e-08
4.69791e-10
1.95561e-08
-5.34128e-10
1.95804e-08
-9.92916e-10
7.73178e-10
1.95499e-08
4.7337e-10
1.95678e-08
-5.51974e-10
1.95929e-08
-1.018e-09
7.98223e-10
1.95637e-08
4.76642e-10
1.95827e-08
-5.70892e-10
1.96091e-08
-1.0444e-09
8.22253e-10
1.95836e-08
4.79264e-10
1.9603e-08
-5.90276e-10
1.96298e-08
-1.07125e-09
8.45316e-10
1.961e-08
4.81272e-10
1.96297e-08
-6.10011e-10
1.96568e-08
-1.09835e-09
8.67457e-10
1.96456e-08
4.82252e-10
1.96651e-08
-6.29562e-10
1.9692e-08
-1.12519e-09
8.88334e-10
1.96923e-08
4.82192e-10
1.97115e-08
-6.48729e-10
1.97377e-08
-1.15143e-09
9.07775e-10
1.97537e-08
4.80434e-10
1.97719e-08
-6.66926e-10
1.97969e-08
-1.17643e-09
9.24827e-10
1.98329e-08
4.76975e-10
1.98499e-08
-6.83916e-10
1.98732e-08
-1.19983e-09
9.39111e-10
1.99353e-08
4.70942e-10
1.99505e-08
-6.99132e-10
1.99711e-08
-1.22042e-09
9.49358e-10
2.00648e-08
4.62896e-10
2.00787e-08
-7.13051e-10
2.00959e-08
-1.23759e-09
9.55351e-10
2.02286e-08
4.55899e-10
2.02415e-08
-7.25115e-10
2.0255e-08
-1.25244e-09
9.56545e-10
2.04341e-08
4.35224e-10
2.0449e-08
-7.41391e-10
2.04471e-08
-1.25247e-09
9.48277e-10
2.0689e-08
4.07678e-10
2.07035e-08
-7.55921e-10
2.06937e-08
-1.24263e-09
9.33425e-10
2.10043e-08
3.76648e-10
2.10175e-08
-7.69102e-10
2.10036e-08
-1.22867e-09
9.12933e-10
2.13917e-08
3.42922e-10
2.14039e-08
-7.81355e-10
2.13876e-08
-1.21227e-09
8.87744e-10
2.18637e-08
3.07322e-10
2.18745e-08
-7.92104e-10
2.18567e-08
-1.19452e-09
8.59669e-10
2.24347e-08
2.69662e-10
2.24445e-08
-8.01893e-10
2.2426e-08
-1.17597e-09
8.29348e-10
2.31202e-08
2.30491e-10
2.31288e-08
-8.10432e-10
2.31091e-08
-1.15627e-09
7.98136e-10
2.39377e-08
1.89399e-10
2.39457e-08
-8.18368e-10
2.39254e-08
-1.13592e-09
7.66718e-10
2.49061e-08
1.46474e-10
2.49128e-08
-8.24983e-10
2.48909e-08
-1.11393e-09
7.35082e-10
2.60457e-08
1.00614e-10
2.6052e-08
-8.31246e-10
2.60295e-08
-1.09134e-09
7.04336e-10
2.73771e-08
5.24511e-11
2.73826e-08
-8.36679e-10
2.73582e-08
-1.0669e-09
6.7265e-10
2.89233e-08
5.66808e-13
2.89298e-08
-8.43123e-10
2.89048e-08
-1.04191e-09
6.4083e-10
3.07059e-08
-5.28544e-11
3.07133e-08
-8.50413e-10
3.06884e-08
-1.017e-09
6.0395e-10
3.27489e-08
-1.08707e-10
3.27611e-08
-8.6254e-10
3.27412e-08
-9.9713e-10
5.6323e-10
3.50945e-08
-1.65408e-10
3.51092e-08
-8.76859e-10
3.5085e-08
-9.73494e-10
5.12082e-10
3.96757e-08
1.41295e-09
3.95856e-08
1.81961e-11
3.95492e-08
2.57703e-10
-9.14041e-11
3.95688e-08
6.16746e-08
1.03217e-09
6.18706e-08
-1.77822e-10
6.17805e-08
3.47869e-10
-1.132e-10
6.18023e-08
8.23861e-08
7.22905e-10
8.24785e-08
-2.702e-10
8.23471e-08
4.79339e-10
-9.02784e-11
8.23241e-08
1.00396e-07
4.70307e-10
1.00415e-07
-2.88733e-10
1.00276e-07
6.17909e-10
-5.01652e-11
1.00236e-07
1.1597e-07
2.74852e-10
1.1595e-07
-2.69242e-10
1.15814e-07
7.54683e-10
-8.59938e-13
1.15764e-07
1.2935e-07
1.19031e-10
1.29309e-07
-2.27171e-10
1.29192e-07
8.71465e-10
3.76412e-11
1.29153e-07
1.40771e-07
1.24496e-12
1.40727e-07
-1.83491e-10
1.40633e-07
9.66178e-10
6.4623e-11
1.40606e-07
1.50473e-07
-8.73093e-11
1.50426e-07
-1.36121e-10
1.50354e-07
1.03778e-09
7.19144e-11
1.50347e-07
1.58653e-07
-1.487e-10
1.58611e-07
-9.31597e-11
1.58561e-07
1.08772e-09
6.06324e-11
1.58572e-07
1.65507e-07
-1.84973e-10
1.65471e-07
-5.64478e-11
1.65446e-07
1.11206e-09
3.96293e-11
1.65467e-07
1.71212e-07
-2.02085e-10
1.71188e-07
-3.18844e-11
1.71183e-07
1.11665e-09
2.27329e-11
1.712e-07
1.75928e-07
-2.01012e-10
1.75909e-07
-1.20716e-11
1.75928e-07
1.0972e-09
1.61989e-11
1.75935e-07
1.79796e-07
-1.86276e-10
1.79787e-07
-3.73594e-12
1.79827e-07
1.05774e-09
2.24349e-11
1.79821e-07
1.82952e-07
-1.60865e-10
1.82947e-07
1.5758e-12
1.83005e-07
9.99731e-10
3.82421e-11
1.82989e-07
1.85501e-07
-1.24993e-10
1.85502e-07
-3.50031e-12
1.85574e-07
9.28924e-10
6.57821e-11
1.8555e-07
1.87553e-07
-8.12954e-11
1.87552e-07
-3.5139e-12
1.87635e-07
8.47512e-10
9.84553e-11
1.87607e-07
1.89187e-07
-3.11987e-11
1.89183e-07
2.89355e-13
1.89276e-07
7.54488e-10
1.2999e-10
1.89245e-07
1.9048e-07
2.41948e-11
1.90471e-07
9.20586e-12
1.90572e-07
6.53693e-10
1.59966e-10
1.90542e-07
1.91492e-07
8.34662e-11
1.91481e-07
2.07607e-11
1.91587e-07
5.46831e-10
1.87875e-10
1.9156e-07
1.9228e-07
1.46476e-10
1.92264e-07
3.66182e-11
1.92375e-07
4.35518e-10
2.08561e-10
1.92355e-07
1.92887e-07
2.13074e-10
1.92868e-07
5.59811e-11
1.92982e-07
3.21058e-10
2.24363e-10
1.92966e-07
1.93351e-07
2.81899e-10
1.93328e-07
7.92649e-11
1.93444e-07
2.0501e-10
2.29943e-10
1.93439e-07
1.93703e-07
3.52687e-10
1.93676e-07
1.0577e-10
1.93793e-07
8.83153e-11
2.29554e-10
1.93794e-07
1.93965e-07
4.23679e-10
1.93936e-07
1.35074e-10
1.94052e-07
-2.74911e-11
2.16053e-10
1.94066e-07
1.9416e-07
4.93687e-10
1.94129e-07
1.6604e-10
1.94244e-07
-1.41936e-10
1.99123e-10
1.94261e-07
1.943e-07
5.6174e-10
1.94268e-07
1.98332e-10
1.94379e-07
-2.53211e-10
1.76431e-10
1.94402e-07
1.944e-07
6.25424e-10
1.94367e-07
2.30282e-10
1.94476e-07
-3.61526e-10
1.5438e-10
1.94498e-07
1.94465e-07
6.85079e-10
1.94433e-07
2.61963e-10
1.94535e-07
-4.6408e-10
1.30315e-10
1.9456e-07
1.94505e-07
7.36619e-10
1.94475e-07
2.91533e-10
1.94574e-07
-5.62205e-10
1.0848e-10
1.94595e-07
1.9452e-07
7.82484e-10
1.94493e-07
3.16542e-10
1.94582e-07
-6.53634e-10
9.15364e-11
1.94602e-07
1.94518e-07
8.14144e-10
1.94496e-07
3.36241e-10
1.94578e-07
-7.39176e-10
8.07673e-11
1.94594e-07
1.9449e-07
8.3775e-10
1.94473e-07
3.52573e-10
1.94535e-07
-8.01144e-10
7.13965e-11
1.94545e-07
1.94445e-07
8.42154e-10
1.94436e-07
3.61992e-10
1.94477e-07
-8.42627e-10
6.34851e-11
1.94485e-07
1.94363e-07
8.33169e-10
1.94364e-07
3.60915e-10
1.94373e-07
-8.51792e-10
6.00738e-11
1.94377e-07
1.94256e-07
7.98004e-10
1.94275e-07
3.41631e-10
1.94254e-07
-8.30641e-10
6.20923e-11
1.94252e-07
1.94094e-07
7.53666e-10
1.94129e-07
3.06514e-10
1.94089e-07
-7.89885e-10
6.87011e-11
1.94082e-07
1.93883e-07
7.01188e-10
1.93928e-07
2.61928e-10
1.93872e-07
-7.3442e-10
7.97382e-11
1.93861e-07
1.93592e-07
6.50567e-10
1.93645e-07
2.09612e-10
1.9358e-07
-6.70303e-10
9.27129e-11
1.93567e-07
1.93208e-07
6.04224e-10
1.93264e-07
1.53914e-10
1.93195e-07
-6.01105e-10
1.07301e-10
1.9318e-07
1.92698e-07
5.67215e-10
1.92757e-07
9.57536e-11
1.92684e-07
-5.28613e-10
1.22191e-10
1.92669e-07
1.9203e-07
5.38707e-10
1.92086e-07
3.94432e-11
1.92015e-07
-4.57188e-10
1.35342e-10
1.92001e-07
1.91157e-07
5.14153e-10
1.91211e-07
-1.45801e-11
1.91142e-07
-3.8732e-10
1.47058e-10
1.9113e-07
1.90029e-07
4.98753e-10
1.90073e-07
-5.85701e-11
1.90012e-07
-3.26783e-10
1.49644e-10
1.9001e-07
1.88588e-07
4.79498e-10
1.88628e-07
-9.80981e-11
1.88571e-07
-2.70174e-10
1.52116e-10
1.88569e-07
1.8676e-07
4.66923e-10
1.8679e-07
-1.28334e-10
1.86742e-07
-2.21406e-10
1.53006e-10
1.86747e-07
1.84457e-07
4.47765e-10
1.84483e-07
-1.56935e-10
1.84439e-07
-1.78468e-10
1.51809e-10
1.84441e-07
1.8158e-07
4.36729e-10
1.81595e-07
-1.71617e-10
1.81562e-07
-1.45215e-10
1.42577e-10
1.81571e-07
1.7801e-07
4.20226e-10
1.78021e-07
-1.82397e-10
1.77993e-07
-1.17156e-10
1.38705e-10
1.77997e-07
1.73619e-07
4.07532e-10
1.7362e-07
-1.83727e-10
1.73602e-07
-9.85223e-11
1.29225e-10
1.73611e-07
1.68252e-07
3.86173e-10
1.6825e-07
-1.81545e-10
1.68235e-07
-8.38084e-11
1.24543e-10
1.6824e-07
1.61742e-07
3.53621e-10
1.61734e-07
-1.73423e-10
1.61722e-07
-7.20292e-11
1.13053e-10
1.61733e-07
1.53903e-07
3.10831e-10
1.53888e-07
-1.58376e-10
1.53875e-07
-5.92864e-11
9.94732e-11
1.53889e-07
1.44529e-07
2.62663e-10
1.44509e-07
-1.38545e-10
1.44497e-07
-4.76362e-11
8.10264e-11
1.44515e-07
1.33398e-07
2.12846e-10
1.33376e-07
-1.16263e-10
1.33364e-07
-3.64344e-11
6.25537e-11
1.33383e-07
1.20273e-07
1.64061e-10
1.20249e-07
-9.28889e-11
1.20239e-07
-2.62876e-11
4.42317e-11
1.20257e-07
1.04899e-07
1.18357e-10
1.04876e-07
-6.97859e-11
1.04867e-07
-1.7352e-11
2.83274e-11
1.04883e-07
8.70095e-08
7.68767e-11
8.69875e-08
-4.78825e-11
8.69796e-08
-9.57314e-12
1.60332e-11
8.69919e-08
6.63226e-08
4.14312e-11
6.63024e-08
-2.77526e-11
6.62961e-08
-3.38671e-12
7.85842e-12
6.63042e-08
4.25481e-08
1.39014e-11
4.25304e-08
-1.00575e-11
4.25268e-08
8.64385e-14
2.75187e-12
4.25318e-08
1.53874e-08
1.53773e-08
1.53773e-08
1.53801e-08
3.96187e-08
-2.15482e-10
3.96433e-08
-8.9961e-10
3.96164e-08
-9.47502e-10
4.66018e-10
6.15489e-08
3.79759e-11
6.15093e-08
-8.60098e-10
6.14631e-08
-9.01171e-10
6.35116e-10
8.2115e-08
2.47133e-10
8.21255e-08
-8.7076e-10
8.21473e-08
-9.23019e-10
7.0552e-10
1.00079e-07
4.04854e-10
1.00113e-07
-9.05097e-10
1.00147e-07
-9.57249e-10
7.08701e-10
1.15658e-07
5.11523e-10
1.15712e-07
-9.59964e-10
1.15751e-07
-9.95624e-10
6.85265e-10
1.29089e-07
5.76123e-10
1.29139e-07
-1.01032e-09
1.29155e-07
-1.01139e-09
6.45534e-10
1.40579e-07
6.02854e-10
1.40628e-07
-1.05975e-09
1.40622e-07
-1.00526e-09
6.14777e-10
1.50345e-07
6.04981e-10
1.50382e-07
-1.09663e-09
1.50357e-07
-9.80695e-10
5.87503e-10
1.58586e-07
5.90439e-10
1.58611e-07
-1.12153e-09
1.58576e-07
-9.45192e-10
5.71376e-10
1.65483e-07
5.74383e-10
1.65499e-07
-1.13726e-09
1.65462e-07
-9.07833e-10
5.62099e-10
1.71213e-07
5.61251e-10
1.71232e-07
-1.15614e-09
1.71197e-07
-8.73013e-10
5.6414e-10
1.75935e-07
5.60961e-10
1.75957e-07
-1.17855e-09
1.75929e-07
-8.45232e-10
5.64025e-10
1.7981e-07
5.71702e-10
1.7984e-07
-1.20853e-09
1.79817e-07
-8.22065e-10
5.70129e-10
1.82964e-07
5.96289e-10
1.82993e-07
-1.23757e-09
1.82976e-07
-8.0479e-10
5.688e-10
1.85516e-07
6.24969e-10
1.85549e-07
-1.26859e-09
1.85539e-07
-7.94442e-10
5.71491e-10
1.87564e-07
6.65193e-10
1.8759e-07
-1.29282e-09
1.87586e-07
-7.9153e-10
5.58706e-10
1.89196e-07
7.13628e-10
1.89212e-07
-1.30837e-09
1.89211e-07
-7.90208e-10
5.32295e-10
1.9049e-07
7.6583e-10
1.90491e-07
-1.30913e-09
1.90492e-07
-7.91739e-10
4.89001e-10
1.91506e-07
8.19025e-10
1.91494e-07
-1.29684e-09
1.91496e-07
-7.93752e-10
4.33807e-10
1.92305e-07
8.68852e-10
1.92275e-07
-1.26733e-09
1.92275e-07
-7.93254e-10
3.65958e-10
1.92919e-07
9.16053e-10
1.92877e-07
-1.22518e-09
1.92876e-07
-7.91991e-10
2.88474e-10
1.93401e-07
9.53942e-10
1.93342e-07
-1.16682e-09
1.93334e-07
-7.83479e-10
2.02687e-10
1.93761e-07
9.87223e-10
1.93691e-07
-1.09767e-09
1.93681e-07
-7.73072e-10
1.10455e-10
1.94048e-07
1.0052e-09
1.93964e-07
-1.01353e-09
1.93941e-07
-7.4994e-10
1.51453e-11
1.94244e-07
1.0216e-09
1.94154e-07
-9.2307e-10
1.94131e-07
-7.27154e-10
-8.3169e-11
1.94396e-07
1.02757e-09
1.94302e-07
-8.28401e-10
1.94272e-07
-6.96835e-10
-1.79717e-10
1.94488e-07
1.03762e-09
1.94393e-07
-7.32995e-10
1.94367e-07
-6.71079e-10
-2.75803e-10
1.94559e-07
1.03822e-09
1.94466e-07
-6.40069e-10
1.94435e-07
-6.39512e-10
-3.65364e-10
1.94586e-07
1.04799e-09
1.94495e-07
-5.49346e-10
1.94471e-07
-6.15389e-10
-4.51111e-10
1.946e-07
1.04658e-09
1.94518e-07
-4.6594e-10
1.94491e-07
-5.91564e-10
-5.23456e-10
1.94576e-07
1.06304e-09
1.94498e-07
-3.8634e-10
1.94482e-07
-5.77656e-10
-5.91758e-10
1.94543e-07
1.06453e-09
1.9448e-07
-3.23466e-10
1.94459e-07
-5.56586e-10
-6.45984e-10
1.94482e-07
1.06764e-09
1.94421e-07
-2.62581e-10
1.94403e-07
-5.38769e-10
-6.92361e-10
1.94401e-07
1.04362e-09
1.94352e-07
-2.13207e-10
1.94326e-07
-5.12935e-10
-7.20937e-10
1.94288e-07
1.007e-09
1.9424e-07
-1.64935e-10
1.94206e-07
-4.79054e-10
-7.35475e-10
1.94135e-07
9.53783e-10
1.94094e-07
-1.23415e-10
1.94054e-07
-4.39428e-10
-7.31746e-10
1.9392e-07
8.94998e-10
1.93884e-07
-8.80328e-11
1.93846e-07
-4.01214e-10
-7.1652e-10
1.93634e-07
8.28165e-10
1.93606e-07
-6.0551e-11
1.93571e-07
-3.65868e-10
-6.87227e-10
1.93249e-07
7.59172e-10
1.93231e-07
-4.23625e-11
1.93203e-07
-3.38096e-10
-6.46456e-10
1.92741e-07
6.86794e-10
1.92734e-07
-3.54711e-11
1.92716e-07
-3.19939e-10
-5.91774e-10
1.92074e-07
6.13952e-10
1.92074e-07
-3.56018e-11
1.92063e-07
-3.09104e-10
-5.29726e-10
1.91203e-07
5.41043e-10
1.91207e-07
-4.03065e-11
1.91199e-07
-3.00949e-10
-4.63499e-10
1.90082e-07
4.68899e-10
1.90085e-07
-4.30742e-11
1.90077e-07
-2.93715e-10
-3.99697e-10
1.88638e-07
3.99666e-10
1.88641e-07
-4.60463e-11
1.88629e-07
-2.81932e-10
-3.39646e-10
1.86814e-07
3.32225e-10
1.8681e-07
-4.16199e-11
1.86798e-07
-2.68633e-10
-2.88162e-10
1.84501e-07
2.71814e-10
1.84504e-07
-4.48989e-11
1.8449e-07
-2.58555e-10
-2.32637e-10
1.81625e-07
2.1729e-10
1.8162e-07
-3.96699e-11
1.81608e-07
-2.46845e-10
-1.93355e-10
1.78043e-07
1.71513e-10
1.78046e-07
-4.25396e-11
1.78032e-07
-2.33211e-10
-1.55234e-10
1.73649e-07
1.33899e-10
1.73645e-07
-3.85279e-11
1.73634e-07
-2.22162e-10
-1.27786e-10
1.68267e-07
1.06429e-10
1.6827e-07
-4.16285e-11
1.68257e-07
-2.08676e-10
-1.01507e-10
1.61755e-07
8.51242e-11
1.61749e-07
-3.59833e-11
1.61727e-07
-1.87207e-10
-8.31161e-11
1.53903e-07
7.06659e-11
1.53902e-07
-3.46209e-11
1.53878e-07
-1.63334e-10
-6.52576e-11
1.44528e-07
5.79551e-11
1.44522e-07
-2.87865e-11
1.44494e-07
-1.34749e-10
-5.17883e-11
1.33394e-07
4.71271e-11
1.3339e-07
-2.47417e-11
1.33361e-07
-1.05972e-10
-3.89502e-11
1.20268e-07
3.67206e-11
1.20262e-07
-1.87585e-11
1.20234e-07
-7.76129e-11
-2.92947e-11
1.04892e-07
2.77302e-11
1.04886e-07
-1.30625e-11
1.04861e-07
-5.25636e-11
-2.14955e-11
8.7e-08
1.96412e-11
8.69942e-08
-7.18629e-12
8.69732e-08
-3.15046e-11
-1.62848e-11
6.63115e-08
1.24193e-11
6.63074e-08
-3.07164e-12
6.62918e-08
-1.57762e-11
-1.16519e-11
4.25393e-08
4.99173e-12
4.25373e-08
-9.83416e-13
4.25267e-08
-5.06323e-12
-5.61653e-12
1.53851e-08
1.53842e-08
1.53792e-08
)
;

boundaryField
{
    topWall
    {
        type            calculated;
        value           uniform 0;
    }
    botWall
    {
        type            calculated;
        value           uniform 0;
    }
    inlet
    {
        type            cyclic;
        value           nonuniform List<scalar> 
120
(
-6.12938e-08
-3.96627e-08
-3.51354e-08
-3.27819e-08
-3.07252e-08
-2.89366e-08
-2.73899e-08
-2.60602e-08
-2.49225e-08
-2.39568e-08
-2.31403e-08
-2.24563e-08
-2.18848e-08
-2.14128e-08
-2.10241e-08
-2.07085e-08
-2.0454e-08
-2.02523e-08
-2.00899e-08
-1.99608e-08
-1.9859e-08
-1.97799e-08
-1.97182e-08
-1.96711e-08
-1.96346e-08
-1.96067e-08
-1.9585e-08
-1.95678e-08
-1.95535e-08
-1.9541e-08
-1.95287e-08
-1.9516e-08
-1.94976e-08
-1.94893e-08
-1.94779e-08
-1.94655e-08
-1.94514e-08
-1.94336e-08
-1.94111e-08
-1.93812e-08
-1.93424e-08
-1.92913e-08
-1.9225e-08
-1.9139e-08
-1.90289e-08
-1.88879e-08
-1.87055e-08
-1.8492e-08
-1.82122e-08
-1.78604e-08
-1.74242e-08
-1.68886e-08
-1.62383e-08
-1.54535e-08
-1.45147e-08
-1.33993e-08
-1.20838e-08
-1.05425e-08
-8.74816e-09
-6.67371e-09
-4.29065e-09
-1.5647e-09
-8.20769e-08
-1.00144e-07
-1.15774e-07
-1.29195e-07
-1.40653e-07
-1.50385e-07
-1.58592e-07
-1.65471e-07
-1.71195e-07
-1.75929e-07
-1.7981e-07
-1.82978e-07
-1.85537e-07
-1.87598e-07
-1.89237e-07
-1.90536e-07
-1.91551e-07
-1.92343e-07
-1.92953e-07
-1.9342e-07
-1.93773e-07
-1.94036e-07
-1.9423e-07
-1.94368e-07
-1.94463e-07
-1.94524e-07
-1.94556e-07
-1.94566e-07
-1.9455e-07
-1.94513e-07
-1.9445e-07
-1.94354e-07
-1.9422e-07
-1.9405e-07
-1.9383e-07
-1.93542e-07
-1.93162e-07
-1.92661e-07
-1.92001e-07
-1.91133e-07
-1.90014e-07
-1.88569e-07
-1.86747e-07
-1.8444e-07
-1.81569e-07
-1.77994e-07
-1.73606e-07
-1.68231e-07
-1.61709e-07
-1.5386e-07
-1.4448e-07
-1.33348e-07
-1.20224e-07
-1.04854e-07
-8.6968e-08
-6.62872e-08
-4.25206e-08
-1.53735e-08
)
;
    }
    outlet
    {
        type            cyclic;
        value           nonuniform List<scalar> 
120
(
6.12938e-08
3.96627e-08
3.51354e-08
3.27819e-08
3.07252e-08
2.89366e-08
2.73899e-08
2.60602e-08
2.49225e-08
2.39568e-08
2.31403e-08
2.24563e-08
2.18848e-08
2.14128e-08
2.10241e-08
2.07085e-08
2.0454e-08
2.02523e-08
2.00899e-08
1.99608e-08
1.9859e-08
1.97799e-08
1.97182e-08
1.96711e-08
1.96346e-08
1.96067e-08
1.9585e-08
1.95678e-08
1.95535e-08
1.9541e-08
1.95287e-08
1.9516e-08
1.94976e-08
1.94893e-08
1.94779e-08
1.94655e-08
1.94514e-08
1.94336e-08
1.94111e-08
1.93812e-08
1.93424e-08
1.92913e-08
1.9225e-08
1.9139e-08
1.90289e-08
1.88879e-08
1.87055e-08
1.8492e-08
1.82122e-08
1.78604e-08
1.74242e-08
1.68886e-08
1.62383e-08
1.54535e-08
1.45147e-08
1.33993e-08
1.20838e-08
1.05425e-08
8.74816e-09
6.67371e-09
4.29065e-09
1.5647e-09
8.20769e-08
1.00144e-07
1.15774e-07
1.29195e-07
1.40653e-07
1.50385e-07
1.58592e-07
1.65471e-07
1.71195e-07
1.75929e-07
1.7981e-07
1.82978e-07
1.85537e-07
1.87598e-07
1.89237e-07
1.90536e-07
1.91551e-07
1.92343e-07
1.92953e-07
1.9342e-07
1.93773e-07
1.94036e-07
1.9423e-07
1.94368e-07
1.94463e-07
1.94524e-07
1.94556e-07
1.94566e-07
1.9455e-07
1.94513e-07
1.9445e-07
1.94354e-07
1.9422e-07
1.9405e-07
1.9383e-07
1.93542e-07
1.93162e-07
1.92661e-07
1.92001e-07
1.91133e-07
1.90014e-07
1.88569e-07
1.86747e-07
1.8444e-07
1.81569e-07
1.77994e-07
1.73606e-07
1.68231e-07
1.61709e-07
1.5386e-07
1.4448e-07
1.33348e-07
1.20224e-07
1.04854e-07
8.6968e-08
6.62872e-08
4.25206e-08
1.53735e-08
)
;
    }
    fixWall
    {
        type            empty;
        value           nonuniform List<scalar> 0();
    }
}


// ************************************************************************* //
