/*--------------------------------*- C++ -*----------------------------------*\
  =========                 |
  \\      /  F ield         | OpenFOAM: The Open Source CFD Toolbox
   \\    /   O peration     | Website:  https://openfoam.org
    \\  /    A nd           | Version:  dev
     \\/     M anipulation  |

   OpenFOAM for Windows 20.09 (v1)
   Built by CFD Support, www.cfdsupport.com (based on Symscape).
\*---------------------------------------------------------------------------*/
FoamFile
{
    version     2.0;
    format      ascii;
    class       volVectorField;
    location    "4";
    object      U;
}
// * * * * * * * * * * * * * * * * * * * * * * * * * * * * * * * * * * * * * //

dimensions      [0 1 -1 0 0 0 0];

internalField   nonuniform List<vector> 
960
(
(0.00185098 1.1755e-05 0)
(0.00183775 -7.8145e-08 0)
(0.00185498 -1.30612e-08 0)
(0.00184782 2.55026e-08 0)
(0.00511653 -1.47853e-06 0)
(0.00510567 -7.54488e-07 0)
(0.00513488 -8.85192e-08 0)
(0.00510962 3.53882e-07 0)
(0.00797414 8.83547e-06 0)
(0.00796777 -1.21909e-06 0)
(0.0080066 -4.72598e-08 0)
(0.0079652 9.69081e-07 0)
(0.0104601 1.94883e-06 0)
(0.0104566 -2.01725e-06 0)
(0.010504 -3.7284e-08 0)
(0.0104499 1.77313e-06 0)
(0.01261 5.09679e-06 0)
(0.0126102 -2.67158e-06 0)
(0.012663 1.22106e-07 0)
(0.0125986 2.77328e-06 0)
(0.0144574 4.28296e-06 0)
(0.0144622 -3.63643e-06 0)
(0.0145179 1.32231e-07 0)
(0.0144458 3.82008e-06 0)
(0.0160347 7.00546e-06 0)
(0.0160445 -4.33265e-06 0)
(0.0161018 4.59778e-07 0)
(0.0160239 5.00016e-06 0)
(0.0173724 6.61363e-06 0)
(0.0173865 -5.44645e-06 0)
(0.0174449 4.17322e-07 0)
(0.0173638 6.16563e-06 0)
(0.0184986 8.51617e-06 0)
(0.0185172 -6.13192e-06 0)
(0.0185762 9.02736e-07 0)
(0.0184933 7.40566e-06 0)
(0.01944 8.55887e-06 0)
(0.0194626 -7.36187e-06 0)
(0.019522 7.52663e-07 0)
(0.0194397 8.60786e-06 0)
(0.02022 1.00305e-05 0)
(0.0202479 -8.03222e-06 0)
(0.0203072 1.3533e-06 0)
(0.020226 9.82249e-06 0)
(0.0208616 1.02928e-05 0)
(0.0208943 -9.37687e-06 0)
(0.0209527 1.03148e-06 0)
(0.0208754 1.09841e-05 0)
(0.0213831 1.14241e-05 0)
(0.0214242 -1.00884e-05 0)
(0.0214797 1.63885e-06 0)
(0.0214065 1.20739e-05 0)
(0.0218013 1.18436e-05 0)
(0.0218515 -1.13056e-05 0)
(0.0219045 1.41962e-06 0)
(0.0218384 1.31301e-05 0)
(0.0221316 1.28306e-05 0)
(0.022197 -1.24835e-05 0)
(0.0222444 1.6053e-06 0)
(0.0221847 1.39203e-05 0)
(0.0223878 1.3025e-05 0)
(0.0224689 -1.35977e-05 0)
(0.0225109 1.85136e-06 0)
(0.0224613 1.44823e-05 0)
(0.0226018 1.39266e-05 0)
(0.02269 -1.51412e-05 0)
(0.0227248 1.736e-06 0)
(0.0226839 1.49109e-05 0)
(0.0227709 1.40798e-05 0)
(0.022861 -1.62512e-05 0)
(0.022894 2.18068e-06 0)
(0.0228613 1.49517e-05 0)
(0.022904 1.48024e-05 0)
(0.0229961 -1.76664e-05 0)
(0.0230268 1.92876e-06 0)
(0.0229993 1.52479e-05 0)
(0.0230079 1.518e-05 0)
(0.0230988 -1.87162e-05 0)
(0.0231297 2.26548e-06 0)
(0.0231072 1.51516e-05 0)
(0.0230885 1.56725e-05 0)
(0.0231785 -2.01446e-05 0)
(0.023209 2.004e-06 0)
(0.0231894 1.52605e-05 0)
(0.0231507 1.60871e-05 0)
(0.0232381 -2.12068e-05 0)
(0.0232689 2.20903e-06 0)
(0.0232523 1.50859e-05 0)
(0.0231983 1.65482e-05 0)
(0.0232835 -2.24863e-05 0)
(0.023314 2.02162e-06 0)
(0.0232998 1.51713e-05 0)
(0.023235 1.6956e-05 0)
(0.0233167 -2.36423e-05 0)
(0.023347 2.02766e-06 0)
(0.0233353 1.48586e-05 0)
(0.0232636 1.74849e-05 0)
(0.0233419 -2.46745e-05 0)
(0.0233708 1.96407e-06 0)
(0.0233619 1.49742e-05 0)
(0.0232862 1.78778e-05 0)
(0.0233601 -2.58e-05 0)
(0.0233876 1.81323e-06 0)
(0.023381 1.45845e-05 0)
(0.0233053 1.82379e-05 0)
(0.0233742 -2.68742e-05 0)
(0.0233991 1.79106e-06 0)
(0.0233957 1.46179e-05 0)
(0.0233223 1.87929e-05 0)
(0.0233846 -2.78065e-05 0)
(0.0234056 1.66504e-06 0)
(0.0234053 1.42053e-05 0)
(0.02334 1.89689e-05 0)
(0.0233937 -2.86153e-05 0)
(0.0234091 1.61559e-06 0)
(0.0234139 1.41352e-05 0)
(0.0233592 1.97697e-05 0)
(0.0234005 -2.93286e-05 0)
(0.0234067 1.50388e-06 0)
(0.023419 1.38305e-05 0)
(0.0233819 2.01034e-05 0)
(0.0234075 -2.9259e-05 0)
(0.0234082 1.26439e-06 0)
(0.0234288 1.36625e-05 0)
(0.0234007 2.06371e-05 0)
(0.0234124 -2.95429e-05 0)
(0.023407 1.11618e-06 0)
(0.0234333 1.33955e-05 0)
(0.0234183 2.1206e-05 0)
(0.0234206 -2.9533e-05 0)
(0.0234102 6.69377e-07 0)
(0.0234401 1.30211e-05 0)
(0.0234349 2.16163e-05 0)
(0.0234303 -2.91807e-05 0)
(0.0234158 6.80515e-07 0)
(0.0234476 1.2765e-05 0)
(0.0234537 2.20743e-05 0)
(0.023444 -2.92957e-05 0)
(0.0234258 2.01186e-07 0)
(0.0234596 1.22544e-05 0)
(0.0234752 2.28142e-05 0)
(0.0234612 -2.86974e-05 0)
(0.0234407 2.77623e-07 0)
(0.0234758 1.20285e-05 0)
(0.0235024 2.33003e-05 0)
(0.0234845 -2.84851e-05 0)
(0.0234616 -1.87826e-07 0)
(0.0234986 1.1623e-05 0)
(0.0235366 2.39229e-05 0)
(0.0235153 -2.79749e-05 0)
(0.0234906 -1.52246e-07 0)
(0.023529 1.11431e-05 0)
(0.0235816 2.46129e-05 0)
(0.0235567 -2.755e-05 0)
(0.0235296 -5.08915e-07 0)
(0.0235697 1.09605e-05 0)
(0.0236396 2.50546e-05 0)
(0.023611 -2.7056e-05 0)
(0.0235818 -5.97098e-07 0)
(0.0236235 1.01274e-05 0)
(0.023716 2.59073e-05 0)
(0.023683 -2.65026e-05 0)
(0.0236504 -7.63396e-07 0)
(0.0236938 1.01035e-05 0)
(0.0238139 2.62404e-05 0)
(0.0237765 -2.58418e-05 0)
(0.0237403 -1.02566e-06 0)
(0.0237855 9.11555e-06 0)
(0.0239407 2.71023e-05 0)
(0.0238981 -2.49455e-05 0)
(0.0238571 -9.32673e-07 0)
(0.0239035 9.05617e-06 0)
(0.024101 2.709e-05 0)
(0.0240545 -2.43195e-05 0)
(0.0240082 -1.3507e-06 0)
(0.0240553 8.11405e-06 0)
(0.0243033 2.83199e-05 0)
(0.0242539 -2.33085e-05 0)
(0.0242027 -1.04377e-06 0)
(0.0242478 7.60515e-06 0)
(0.0245563 2.81239e-05 0)
(0.0245103 -2.25652e-05 0)
(0.024453 -1.23579e-06 0)
(0.024485 7.09512e-06 0)
(0.024871 2.86071e-05 0)
(0.0248209 -2.18262e-05 0)
(0.0247541 -9.93958e-07 0)
(0.024782 6.39262e-06 0)
(0.0252567 2.86894e-05 0)
(0.025202 -2.03822e-05 0)
(0.0251267 -5.95068e-07 0)
(0.0251544 6.42738e-06 0)
(0.0257279 2.8334e-05 0)
(0.0256673 -1.94973e-05 0)
(0.0255857 -3.8224e-07 0)
(0.0256142 5.53986e-06 0)
(0.0262976 2.83444e-05 0)
(0.0262324 -1.77864e-05 0)
(0.0261463 4.41707e-08 0)
(0.0261769 5.55237e-06 0)
(0.0269851 2.83604e-05 0)
(0.0269151 -1.67018e-05 0)
(0.0268258 5.59295e-07 0)
(0.0268581 4.62177e-06 0)
(0.0278072 2.80386e-05 0)
(0.0277343 -1.51188e-05 0)
(0.0276431 7.1598e-07 0)
(0.0276776 4.33774e-06 0)
(0.028787 2.83646e-05 0)
(0.0287107 -1.37756e-05 0)
(0.0286186 1.51291e-06 0)
(0.0286544 3.47813e-06 0)
(0.0299463 2.77302e-05 0)
(0.0298676 -1.22273e-05 0)
(0.029775 1.38986e-06 0)
(0.0298128 3.07042e-06 0)
(0.0313108 2.85779e-05 0)
(0.0312285 -1.06989e-05 0)
(0.0311373 2.43794e-06 0)
(0.0311746 2.05793e-06 0)
(0.0329075 2.73962e-05 0)
(0.0328208 -9.30932e-06 0)
(0.0327305 2.03452e-06 0)
(0.0327679 1.72887e-06 0)
(0.0347632 2.9342e-05 0)
(0.0346702 -7.43539e-06 0)
(0.0345836 3.39094e-06 0)
(0.0346173 4.58246e-07 0)
(0.0369141 2.73765e-05 0)
(0.03681 -5.84784e-06 0)
(0.0367236 2.73311e-06 0)
(0.0367548 3.85972e-07 0)
(0.0393822 3.08595e-05 0)
(0.0392681 -3.35858e-06 0)
(0.0391812 4.36761e-06 0)
(0.039205 -9.76616e-07 0)
(0.042218 3.2143e-05 0)
(0.0420916 -2.01546e-07 0)
(0.0420006 3.69814e-06 0)
(0.0420224 -6.28833e-07 0)
(0.00183591 2.32421e-08 0)
(0.00183675 -3.77823e-08 0)
(0.0018467 -5.03702e-08 0)
(0.00186639 -9.20501e-08 0)
(0.00507898 2.62266e-07 0)
(0.00508101 -1.78275e-07 0)
(0.00510382 -3.79948e-07 0)
(0.00513821 -7.73185e-07 0)
(0.00792139 5.6863e-07 0)
(0.00792313 -4.37113e-07 0)
(0.00795506 -9.33451e-07 0)
(0.00800148 -1.16975e-06 0)
(0.0103976 1.0815e-06 0)
(0.0103978 -7.5643e-07 0)
(0.0104383 -1.63464e-06 0)
(0.0104963 -1.78882e-06 0)
(0.0125416 1.53285e-06 0)
(0.0125398 -1.12228e-06 0)
(0.0125869 -2.56333e-06 0)
(0.0126535 -2.25887e-06 0)
(0.0143861 2.17819e-06 0)
(0.0143817 -1.53861e-06 0)
(0.0144346 -3.49389e-06 0)
(0.0145069 -2.89787e-06 0)
(0.0159627 2.70822e-06 0)
(0.0159558 -1.94268e-06 0)
(0.0160127 -4.63805e-06 0)
(0.0160883 -3.32371e-06 0)
(0.0173018 3.412e-06 0)
(0.0172927 -2.39816e-06 0)
(0.0173523 -5.67422e-06 0)
(0.0174289 -3.9382e-06 0)
(0.0184312 4.01886e-06 0)
(0.0184206 -2.78435e-06 0)
(0.0184817 -6.89955e-06 0)
(0.0185571 -4.26867e-06 0)
(0.0193783 4.7054e-06 0)
(0.0193666 -3.26944e-06 0)
(0.0194285 -7.95438e-06 0)
(0.0195004 -4.82771e-06 0)
(0.0201665 5.36495e-06 0)
(0.0201545 -3.65128e-06 0)
(0.020217 -9.11338e-06 0)
(0.0202827 -4.97761e-06 0)
(0.0208188 6.00958e-06 0)
(0.0208072 -4.10445e-06 0)
(0.0208707 -1.01496e-05 0)
(0.0209272 -5.43449e-06 0)
(0.0213554 6.60822e-06 0)
(0.0213433 -4.5345e-06 0)
(0.0214087 -1.10317e-05 0)
(0.0214531 -5.40516e-06 0)
(0.0217946 7.1265e-06 0)
(0.0217825 -5.09113e-06 0)
(0.0218523 -1.20739e-05 0)
(0.0218805 -5.30832e-06 0)
(0.0221528 7.56917e-06 0)
(0.0221382 -5.45868e-06 0)
(0.0222137 -1.26207e-05 0)
(0.0222229 -5.25734e-06 0)
(0.0224497 7.87916e-06 0)
(0.0224311 -5.97927e-06 0)
(0.0225119 -1.35044e-05 0)
(0.022499 -4.14738e-06 0)
(0.0226832 7.99251e-06 0)
(0.0226602 -6.2607e-06 0)
(0.0227368 -1.42338e-05 0)
(0.0227126 -3.27336e-06 0)
(0.0228667 8.30905e-06 0)
(0.0228422 -6.51393e-06 0)
(0.0229156 -1.46232e-05 0)
(0.0228828 -2.071e-06 0)
(0.0230094 8.37385e-06 0)
(0.0229832 -6.95553e-06 0)
(0.0230531 -1.52457e-05 0)
(0.0230149 -8.67168e-07 0)
(0.0231199 8.5565e-06 0)
(0.0230938 -7.11375e-06 0)
(0.0231603 -1.55077e-05 0)
(0.0231182 3.87369e-07 0)
(0.0232043 8.65659e-06 0)
(0.0231783 -7.40698e-06 0)
(0.0232416 -1.58805e-05 0)
(0.0231975 1.51524e-06 0)
(0.0232686 8.74649e-06 0)
(0.0232435 -7.62325e-06 0)
(0.0233041 -1.6171e-05 0)
(0.0232586 2.91597e-06 0)
(0.0233171 8.87727e-06 0)
(0.0232926 -7.7933e-06 0)
(0.023351 -1.6426e-05 0)
(0.0233047 4.03678e-06 0)
(0.0233529 8.87798e-06 0)
(0.0233298 -8.05276e-06 0)
(0.0233868 -1.66862e-05 0)
(0.0233403 5.393e-06 0)
(0.0233799 9.02402e-06 0)
(0.0233578 -8.14683e-06 0)
(0.0234136 -1.68737e-05 0)
(0.0233665 6.56418e-06 0)
(0.0233983 8.9013e-06 0)
(0.0233783 -8.53814e-06 0)
(0.0234342 -1.71544e-05 0)
(0.0233871 7.96779e-06 0)
(0.0234124 9.16667e-06 0)
(0.0233942 -8.55295e-06 0)
(0.0234494 -1.7464e-05 0)
(0.0234025 8.77586e-06 0)
(0.0234204 9.14678e-06 0)
(0.0234048 -8.81201e-06 0)
(0.0234614 -1.72934e-05 0)
(0.0234155 1.04738e-05 0)
(0.0234278 9.17361e-06 0)
(0.0234139 -9.21306e-06 0)
(0.0234699 -1.80211e-05 0)
(0.0234255 1.1089e-05 0)
(0.0234308 9.24876e-06 0)
(0.0234186 -9.20922e-06 0)
(0.0234765 -1.78371e-05 0)
(0.0234353 1.24716e-05 0)
(0.0234387 8.9702e-06 0)
(0.0234236 -9.82897e-06 0)
(0.0234777 -1.83057e-05 0)
(0.0234469 1.36173e-05 0)
(0.0234401 9.10738e-06 0)
(0.0234257 -9.93018e-06 0)
(0.0234829 -1.90524e-05 0)
(0.0234595 1.38045e-05 0)
(0.0234458 9.151e-06 0)
(0.023433 -1.0234e-05 0)
(0.0234909 -1.8944e-05 0)
(0.0234717 1.49404e-05 0)
(0.0234522 9.35688e-06 0)
(0.0234411 -1.04655e-05 0)
(0.0235017 -1.98062e-05 0)
(0.0234857 1.50754e-05 0)
(0.0234641 9.39998e-06 0)
(0.0234546 -1.09811e-05 0)
(0.023516 -2.00879e-05 0)
(0.0235016 1.57122e-05 0)
(0.0234801 9.62963e-06 0)
(0.0234718 -1.09814e-05 0)
(0.0235346 -2.05029e-05 0)
(0.0235218 1.62404e-05 0)
(0.0235034 9.41927e-06 0)
(0.0234961 -1.18565e-05 0)
(0.0235589 -2.12558e-05 0)
(0.0235472 1.66593e-05 0)
(0.0235347 9.76094e-06 0)
(0.0235282 -1.17405e-05 0)
(0.0235908 -2.16089e-05 0)
(0.0235802 1.71567e-05 0)
(0.023577 9.48782e-06 0)
(0.0235714 -1.268e-05 0)
(0.0236326 -2.23167e-05 0)
(0.023623 1.75565e-05 0)
(0.0236326 9.79604e-06 0)
(0.023628 -1.24835e-05 0)
(0.023687 -2.26978e-05 0)
(0.0236784 1.79752e-05 0)
(0.0237056 9.56935e-06 0)
(0.0237026 -1.33757e-05 0)
(0.0237575 -2.32559e-05 0)
(0.0237501 1.82658e-05 0)
(0.0237997 9.6202e-06 0)
(0.0237984 -1.33379e-05 0)
(0.0238487 -2.38257e-05 0)
(0.0238423 1.86719e-05 0)
(0.0239212 9.35696e-06 0)
(0.0239228 -1.40701e-05 0)
(0.0239657 -2.42831e-05 0)
(0.0239603 1.90882e-05 0)
(0.0240749 9.3407e-06 0)
(0.0240801 -1.39662e-05 0)
(0.0241157 -2.45907e-05 0)
(0.0241099 1.90272e-05 0)
(0.0242696 9.1056e-06 0)
(0.0242817 -1.46129e-05 0)
(0.0243061 -2.51533e-05 0)
(0.0242984 1.94255e-05 0)
(0.024506 9.01228e-06 0)
(0.0245338 -1.4499e-05 0)
(0.0245437 -2.48581e-05 0)
(0.0245303 1.8953e-05 0)
(0.0248073 8.6014e-06 0)
(0.0248453 -1.48789e-05 0)
(0.0248416 -2.49728e-05 0)
(0.0248264 1.86356e-05 0)
(0.0251832 7.81744e-06 0)
(0.0252265 -1.54229e-05 0)
(0.0252137 -2.4743e-05 0)
(0.0251983 1.86111e-05 0)
(0.0256463 7.37421e-06 0)
(0.0256934 -1.52259e-05 0)
(0.0256738 -2.42749e-05 0)
(0.02566 1.77389e-05 0)
(0.0262118 6.32364e-06 0)
(0.0262606 -1.60645e-05 0)
(0.026236 -2.42483e-05 0)
(0.0262237 1.77302e-05 0)
(0.0268961 5.93281e-06 0)
(0.0269464 -1.57116e-05 0)
(0.0269182 -2.36113e-05 0)
(0.0269078 1.67869e-05 0)
(0.0277183 4.81628e-06 0)
(0.0277695 -1.63e-05 0)
(0.0277375 -2.34298e-05 0)
(0.027728 1.64074e-05 0)
(0.0286988 4.44091e-06 0)
(0.028751 -1.62631e-05 0)
(0.0287165 -2.28162e-05 0)
(0.028708 1.55114e-05 0)
(0.0298604 3.1002e-06 0)
(0.0299137 -1.62502e-05 0)
(0.0298749 -2.26176e-05 0)
(0.0298669 1.51593e-05 0)
(0.0312265 2.74636e-06 0)
(0.0312822 -1.71044e-05 0)
(0.0312407 -2.20379e-05 0)
(0.0312334 1.42393e-05 0)
(0.0328231 1.3681e-06 0)
(0.0328812 -1.56726e-05 0)
(0.0328351 -2.14293e-05 0)
(0.0328282 1.38978e-05 0)
(0.0346757 6.97914e-07 0)
(0.034739 -1.81383e-05 0)
(0.0346903 -2.12737e-05 0)
(0.034685 1.30989e-05 0)
(0.0368127 -7.92984e-07 0)
(0.0368806 -1.57436e-05 0)
(0.0368289 -2.07118e-05 0)
(0.0368269 1.26056e-05 0)
(0.0392598 -1.27826e-06 0)
(0.0393366 -1.81042e-05 0)
(0.0392876 -1.93283e-05 0)
(0.0392952 1.23057e-05 0)
(0.042069 -3.17532e-06 0)
(0.0421579 -1.6542e-05 0)
(0.0421003 -1.98772e-05 0)
(0.0421082 1.34069e-05 0)
(0.0476496 2.92972e-05 0)
(0.047566 -1.20579e-06 0)
(0.0474449 4.39718e-06 0)
(0.0474734 -1.46361e-06 0)
(0.0735442 1.97619e-05 0)
(0.0744735 -4.68176e-06 0)
(0.0740202 7.14638e-06 0)
(0.07426 -3.79614e-06 0)
(0.09852 1.48004e-05 0)
(0.0992051 -2.26807e-06 0)
(0.0987477 5.1029e-06 0)
(0.0988928 1.61274e-07 0)
(0.120246 1.67363e-05 0)
(0.120703 -7.44877e-06 0)
(0.120297 1.46734e-05 0)
(0.120374 -4.44544e-06 0)
(0.139007 1.09463e-06 0)
(0.139318 -4.80635e-06 0)
(0.138967 9.95547e-06 0)
(0.138993 2.50588e-06 0)
(0.155125 9.53869e-06 0)
(0.155314 -5.26348e-06 0)
(0.15503 2.00924e-05 0)
(0.155038 -2.16927e-06 0)
(0.168864 -4.45459e-06 0)
(0.168984 -4.20832e-06 0)
(0.168766 1.47719e-05 0)
(0.168761 3.32529e-06 0)
(0.180534 3.4448e-06 0)
(0.180599 -3.2613e-06 0)
(0.180427 2.36331e-05 0)
(0.180431 -4.49748e-07 0)
(0.190365 -5.81185e-06 0)
(0.1904 -1.98885e-06 0)
(0.190269 1.83445e-05 0)
(0.190284 3.05644e-06 0)
(0.198604 -1.22351e-06 0)
(0.19861 -1.91927e-06 0)
(0.198523 2.45513e-05 0)
(0.198556 -5.27765e-07 0)
(0.205457 -5.38256e-06 0)
(0.205449 -7.71155e-07 0)
(0.205406 2.07608e-05 0)
(0.205442 1.89158e-06 0)
(0.211133 -3.70111e-06 0)
(0.211091 -6.49189e-07 0)
(0.211093 2.31223e-05 0)
(0.211143 -7.87051e-07 0)
(0.215781 -3.59525e-06 0)
(0.215724 7.11875e-07 0)
(0.215769 2.11188e-05 0)
(0.215824 1.52752e-06 0)
(0.219582 -3.93857e-06 0)
(0.219499 -7.96235e-07 0)
(0.219577 2.04558e-05 0)
(0.219643 4.95489e-07 0)
(0.222647 -2.5365e-06 0)
(0.22255 1.79783e-06 0)
(0.222658 1.89926e-05 0)
(0.222727 1.0868e-06 0)
(0.225122 -1.47557e-06 0)
(0.224999 -1.64635e-06 0)
(0.225128 1.84773e-05 0)
(0.225205 2.28193e-06 0)
(0.227095 -2.79883e-06 0)
(0.226948 2.74476e-07 0)
(0.227096 1.55285e-05 0)
(0.227175 4.07274e-07 0)
(0.228659 1.63383e-06 0)
(0.228487 -1.45396e-07 0)
(0.228649 1.5105e-05 0)
(0.228732 4.58726e-06 0)
(0.229882 -6.30674e-07 0)
(0.229692 -1.64953e-07 0)
(0.229866 1.16289e-05 0)
(0.229951 1.15432e-06 0)
(0.230836 3.49588e-06 0)
(0.230628 1.01349e-06 0)
(0.230811 1.00131e-05 0)
(0.230897 6.1955e-06 0)
(0.231571 2.95274e-06 0)
(0.231349 9.71122e-07 0)
(0.231539 7.55779e-06 0)
(0.231625 2.6474e-06 0)
(0.232134 5.39402e-06 0)
(0.2319 1.2851e-06 0)
(0.232093 5.11544e-06 0)
(0.232178 5.91432e-06 0)
(0.23256 6.16751e-06 0)
(0.232318 1.8994e-06 0)
(0.232512 3.23508e-06 0)
(0.232597 3.67906e-06 0)
(0.232878 7.58698e-06 0)
(0.23263 2.26731e-06 0)
(0.232824 2.34868e-07 0)
(0.232906 5.10584e-06 0)
(0.233111 9.79122e-06 0)
(0.232863 3.23352e-06 0)
(0.233054 -1.31268e-06 0)
(0.233135 3.80419e-06 0)
(0.233278 1.05011e-05 0)
(0.233032 4.16357e-06 0)
(0.233219 -4.23163e-06 0)
(0.233295 4.07809e-06 0)
(0.233392 1.13363e-05 0)
(0.233155 3.21175e-06 0)
(0.233335 -6.02795e-06 0)
(0.23341 3.04858e-06 0)
(0.233465 1.42371e-05 0)
(0.233238 5.90248e-06 0)
(0.23341 -7.86855e-06 0)
(0.233478 2.86696e-06 0)
(0.233503 1.3919e-05 0)
(0.233296 4.72123e-06 0)
(0.233454 -9.82176e-06 0)
(0.233524 2.21873e-06 0)
(0.233512 1.48995e-05 0)
(0.233324 5.60651e-06 0)
(0.23347 -1.24066e-05 0)
(0.233529 1.84208e-06 0)
(0.233493 1.74908e-05 0)
(0.233337 7.96364e-06 0)
(0.233462 -1.35873e-05 0)
(0.233526 1.89842e-06 0)
(0.233443 1.50663e-05 0)
(0.233319 6.09746e-06 0)
(0.233427 -1.64362e-05 0)
(0.233459 1.57633e-06 0)
(0.233365 1.72157e-05 0)
(0.233289 7.61327e-06 0)
(0.233366 -1.65647e-05 0)
(0.23338 1.40044e-06 0)
(0.233242 1.66737e-05 0)
(0.233217 7.55444e-06 0)
(0.233268 -1.73551e-05 0)
(0.23323 1.33886e-06 0)
(0.233077 1.59765e-05 0)
(0.233123 6.343e-06 0)
(0.233147 -1.68193e-05 0)
(0.233063 1.016e-06 0)
(0.23286 1.55858e-05 0)
(0.232953 6.93093e-06 0)
(0.232968 -1.63646e-05 0)
(0.232846 1.38826e-06 0)
(0.232589 1.46689e-05 0)
(0.232716 5.44159e-06 0)
(0.23272 -1.52858e-05 0)
(0.232574 1.3669e-06 0)
(0.232229 1.33177e-05 0)
(0.232378 4.9634e-06 0)
(0.232379 -1.40584e-05 0)
(0.232214 1.79815e-06 0)
(0.231763 1.27437e-05 0)
(0.231923 3.46698e-06 0)
(0.231921 -1.27801e-05 0)
(0.231748 1.94644e-06 0)
(0.231147 1.14318e-05 0)
(0.231315 2.65821e-06 0)
(0.231311 -1.12544e-05 0)
(0.231131 2.31823e-06 0)
(0.230346 1.12682e-05 0)
(0.23051 1.24317e-06 0)
(0.230506 -9.86935e-06 0)
(0.230329 2.56904e-06 0)
(0.229301 1.02815e-05 0)
(0.229462 3.51362e-07 0)
(0.229456 -8.42065e-06 0)
(0.229284 2.82556e-06 0)
(0.227959 1.04804e-05 0)
(0.228096 -8.73189e-07 0)
(0.22809 -7.10743e-06 0)
(0.22794 3.10016e-06 0)
(0.226234 9.95043e-06 0)
(0.226362 -1.44105e-06 0)
(0.226354 -5.8644e-06 0)
(0.226217 3.15165e-06 0)
(0.224053 9.53137e-06 0)
(0.224157 -2.4781e-06 0)
(0.22415 -4.90552e-06 0)
(0.224032 3.05489e-06 0)
(0.221293 9.07468e-06 0)
(0.221389 -2.78748e-06 0)
(0.22138 -3.94167e-06 0)
(0.221275 3.10434e-06 0)
(0.217854 8.68794e-06 0)
(0.217923 -3.35119e-06 0)
(0.217915 -3.20301e-06 0)
(0.217833 2.75704e-06 0)
(0.213574 8.29146e-06 0)
(0.213636 -3.61517e-06 0)
(0.213625 -2.65216e-06 0)
(0.213559 2.80388e-06 0)
(0.208316 8.25964e-06 0)
(0.208355 -3.65334e-06 0)
(0.208344 -2.13238e-06 0)
(0.2083 2.6007e-06 0)
(0.201876 8.07674e-06 0)
(0.201914 -3.68769e-06 0)
(0.201896 -1.81584e-06 0)
(0.201868 2.6302e-06 0)
(0.194064 7.35041e-06 0)
(0.194101 -3.63183e-06 0)
(0.19407 -1.55097e-06 0)
(0.194063 2.35221e-06 0)
(0.184656 6.73255e-06 0)
(0.184697 -3.30346e-06 0)
(0.184645 -1.32512e-06 0)
(0.184656 2.16693e-06 0)
(0.173408 5.73031e-06 0)
(0.173446 -3.02089e-06 0)
(0.173385 -1.03629e-06 0)
(0.173408 1.79716e-06 0)
(0.160052 4.76534e-06 0)
(0.160089 -2.53432e-06 0)
(0.160023 -8.72463e-07 0)
(0.160051 1.45229e-06 0)
(0.144304 3.75852e-06 0)
(0.144336 -2.11397e-06 0)
(0.144273 -5.87301e-07 0)
(0.144301 1.05442e-06 0)
(0.125858 2.80393e-06 0)
(0.125885 -1.60829e-06 0)
(0.125828 -4.59998e-07 0)
(0.125853 7.14086e-07 0)
(0.104393 1.92604e-06 0)
(0.104415 -1.17886e-06 0)
(0.104366 -2.38949e-07 0)
(0.104385 4.25729e-07 0)
(0.0795718 1.14868e-06 0)
(0.0795876 -7.44977e-07 0)
(0.0795484 -1.38117e-07 0)
(0.0795621 2.20194e-07 0)
(0.0510455 5.13008e-07 0)
(0.0510551 -3.60211e-07 0)
(0.051028 -9.94969e-09 0)
(0.0510362 1.17035e-07 0)
(0.0184582 1.00774e-07 0)
(0.0184616 -9.49744e-08 0)
(0.0184508 -1.62513e-09 0)
(0.0184548 -3.58743e-09 0)
(0.0474912 -2.79069e-06 0)
(0.047595 -1.73693e-05 0)
(0.0475426 -1.8563e-05 0)
(0.0475419 1.13275e-05 0)
(0.0740633 -2.37266e-06 0)
(0.0736497 -1.94985e-05 0)
(0.0739637 -1.8034e-05 0)
(0.073557 4.84273e-06 0)
(0.098683 5.47543e-08 0)
(0.0983888 -1.37367e-05 0)
(0.0987028 -2.11733e-05 0)
(0.0984606 1.52975e-05 0)
(0.120191 9.57024e-06 0)
(0.119994 -2.3363e-05 0)
(0.120267 -1.5809e-05 0)
(0.120096 1.2637e-05 0)
(0.138839 6.55901e-06 0)
(0.138736 -1.1178e-05 0)
(0.138964 -2.16824e-05 0)
(0.138848 1.5424e-05 0)
(0.154928 1.40534e-05 0)
(0.154881 -2.76205e-05 0)
(0.155042 -1.85968e-05 0)
(0.154939 1.2587e-05 0)
(0.16869 8.82174e-06 0)
(0.168695 -1.3816e-05 0)
(0.168802 -2.19683e-05 0)
(0.168701 1.30148e-05 0)
(0.180399 1.53746e-05 0)
(0.180425 -2.6892e-05 0)
(0.180481 -1.82594e-05 0)
(0.180386 1.12647e-05 0)
(0.190286 8.89739e-06 0)
(0.190318 -1.86129e-05 0)
(0.190339 -2.07742e-05 0)
(0.190253 1.24854e-05 0)
(0.198563 1.45186e-05 0)
(0.198593 -2.47545e-05 0)
(0.198594 -1.73469e-05 0)
(0.198524 1.01889e-05 0)
(0.205436 9.17622e-06 0)
(0.205473 -2.13758e-05 0)
(0.205474 -1.79257e-05 0)
(0.20541 1.20049e-05 0)
(0.211098 1.28606e-05 0)
(0.211142 -2.4055e-05 0)
(0.211144 -1.73537e-05 0)
(0.211096 1.03664e-05 0)
(0.215743 9.98921e-06 0)
(0.215797 -2.41143e-05 0)
(0.215808 -1.71238e-05 0)
(0.215762 1.29897e-05 0)
(0.219528 1.29031e-05 0)
(0.219583 -2.35511e-05 0)
(0.21959 -1.63381e-05 0)
(0.219563 1.07362e-05 0)
(0.222589 1.12266e-05 0)
(0.222647 -2.68551e-05 0)
(0.222662 -1.73893e-05 0)
(0.222641 1.32498e-05 0)
(0.225049 1.31242e-05 0)
(0.225101 -2.39218e-05 0)
(0.225105 -1.44457e-05 0)
(0.225111 1.02232e-05 0)
(0.22701 1.4475e-05 0)
(0.227058 -2.65465e-05 0)
(0.227041 -1.55785e-05 0)
(0.227074 1.04195e-05 0)
(0.228567 1.30621e-05 0)
(0.228605 -2.64306e-05 0)
(0.228563 -1.55071e-05 0)
(0.228627 1.01992e-05 0)
(0.22979 1.78724e-05 0)
(0.229821 -2.53195e-05 0)
(0.229755 -1.52358e-05 0)
(0.229843 8.22916e-06 0)
(0.230753 1.47589e-05 0)
(0.230775 -2.69806e-05 0)
(0.230677 -1.65628e-05 0)
(0.230789 8.968e-06 0)
(0.231493 1.97189e-05 0)
(0.231509 -2.39146e-05 0)
(0.231388 -1.57626e-05 0)
(0.231521 6.20747e-06 0)
(0.232073 1.6973e-05 0)
(0.232084 -2.53664e-05 0)
(0.231929 -1.59902e-05 0)
(0.232078 5.30203e-06 0)
(0.232507 2.10217e-05 0)
(0.232513 -2.11347e-05 0)
(0.232338 -1.52814e-05 0)
(0.232501 2.84839e-06 0)
(0.232851 1.85818e-05 0)
(0.232859 -2.27874e-05 0)
(0.232647 -1.56015e-05 0)
(0.232816 1.49479e-06 0)
(0.23309 2.15112e-05 0)
(0.233091 -1.77827e-05 0)
(0.232871 -1.43939e-05 0)
(0.233048 -8.26797e-07 0)
(0.233269 1.92655e-05 0)
(0.233276 -1.95109e-05 0)
(0.233041 -1.44722e-05 0)
(0.233214 -1.51564e-06 0)
(0.233385 2.14185e-05 0)
(0.233381 -1.42992e-05 0)
(0.233155 -1.49612e-05 0)
(0.233328 -6.86668e-06 0)
(0.233465 2.05922e-05 0)
(0.233472 -1.41807e-05 0)
(0.233242 -1.04164e-05 0)
(0.233403 -4.19667e-06 0)
(0.233505 2.06335e-05 0)
(0.233495 -1.2228e-05 0)
(0.233288 -1.51354e-05 0)
(0.233443 -1.06366e-05 0)
(0.233517 2.16192e-05 0)
(0.233518 -8.90511e-06 0)
(0.23332 -9.50489e-06 0)
(0.233457 -9.59263e-06 0)
(0.233501 2.1022e-05 0)
(0.233476 -8.92289e-06 0)
(0.233315 -1.13586e-05 0)
(0.23344 -9.10298e-06 0)
(0.23345 2.04989e-05 0)
(0.233448 -7.72541e-06 0)
(0.2333 -1.41945e-05 0)
(0.233401 -1.46237e-05 0)
(0.233385 2.23639e-05 0)
(0.233366 -5.03184e-06 0)
(0.23324 -8.35673e-06 0)
(0.233326 -1.10372e-05 0)
(0.233276 2.0141e-05 0)
(0.233281 -5.4378e-06 0)
(0.233159 -1.31648e-05 0)
(0.233222 -1.55179e-05 0)
(0.233142 2.11927e-05 0)
(0.233144 -3.65686e-06 0)
(0.233028 -8.77766e-06 0)
(0.233065 -1.43652e-05 0)
(0.232953 1.96406e-05 0)
(0.232967 -2.18953e-06 0)
(0.232855 -9.11547e-06 0)
(0.232873 -1.492e-05 0)
(0.232694 1.85296e-05 0)
(0.232708 -2.49874e-06 0)
(0.232611 -8.40752e-06 0)
(0.232617 -1.43757e-05 0)
(0.232349 1.72753e-05 0)
(0.232368 -1.16726e-06 0)
(0.232284 -7.67565e-06 0)
(0.232284 -1.42465e-05 0)
(0.231886 1.58481e-05 0)
(0.231906 -1.17555e-06 0)
(0.231845 -6.95286e-06 0)
(0.23184 -1.32634e-05 0)
(0.231276 1.45203e-05 0)
(0.231298 -5.98868e-07 0)
(0.231262 -6.60991e-06 0)
(0.231254 -1.2528e-05 0)
(0.230475 1.28868e-05 0)
(0.230497 -8.63379e-07 0)
(0.230478 -6.30977e-06 0)
(0.230471 -1.11701e-05 0)
(0.229429 1.16747e-05 0)
(0.229452 -5.38383e-07 0)
(0.229443 -5.94549e-06 0)
(0.229432 -9.93582e-06 0)
(0.228085 1.01996e-05 0)
(0.228106 -9.1133e-07 0)
(0.228094 -5.84782e-06 0)
(0.228088 -8.82626e-06 0)
(0.22635 8.87448e-06 0)
(0.226375 -7.06595e-07 0)
(0.22636 -5.60893e-06 0)
(0.226346 -7.28652e-06 0)
(0.224164 7.36212e-06 0)
(0.224184 -8.7465e-07 0)
(0.224158 -5.51424e-06 0)
(0.224154 -6.37957e-06 0)
(0.221385 5.88563e-06 0)
(0.221412 -9.82292e-07 0)
(0.221394 -5.45805e-06 0)
(0.221377 -5.16184e-06 0)
(0.217939 4.7263e-06 0)
(0.217956 -8.48859e-07 0)
(0.217929 -5.15884e-06 0)
(0.217927 -4.00385e-06 0)
(0.213636 3.63998e-06 0)
(0.213661 -9.72176e-07 0)
(0.213646 -4.93223e-06 0)
(0.213626 -3.5206e-06 0)
(0.208369 3.05249e-06 0)
(0.208383 -7.72626e-07 0)
(0.208362 -4.48302e-06 0)
(0.208355 -2.69694e-06 0)
(0.201909 2.36029e-06 0)
(0.201927 -8.27668e-07 0)
(0.20192 -4.3189e-06 0)
(0.201893 -2.33717e-06 0)
(0.194099 1.93295e-06 0)
(0.194106 -7.31717e-07 0)
(0.194089 -3.96302e-06 0)
(0.194053 -1.82118e-06 0)
(0.184679 1.49665e-06 0)
(0.184683 -7.69741e-07 0)
(0.184679 -3.55372e-06 0)
(0.184624 -1.47904e-06 0)
(0.173431 1.30549e-06 0)
(0.173431 -5.84071e-07 0)
(0.17342 -2.96587e-06 0)
(0.17336 -1.13825e-06 0)
(0.16007 1.02145e-06 0)
(0.160069 -5.87115e-07 0)
(0.160063 -2.4284e-06 0)
(0.159999 -9.15748e-07 0)
(0.144319 8.49954e-07 0)
(0.144318 -4.00292e-07 0)
(0.144308 -1.80852e-06 0)
(0.144249 -6.5268e-07 0)
(0.125868 6.29374e-07 0)
(0.125867 -3.46193e-07 0)
(0.125857 -1.30006e-06 0)
(0.125805 -5.10748e-07 0)
(0.104397 4.71749e-07 0)
(0.104397 -1.78733e-07 0)
(0.104386 -8.06292e-07 0)
(0.104345 -3.56483e-07 0)
(0.07957 3.22499e-07 0)
(0.0795718 -1.0331e-07 0)
(0.0795635 -4.49186e-07 0)
(0.0795324 -2.96328e-07 0)
(0.0510423 1.72027e-07 0)
(0.0510464 -3.86738e-08 0)
(0.0510406 -2.10576e-07 0)
(0.0510189 -1.5687e-07 0)
(0.0184588 5.66836e-08 0)
(0.0184617 2.55885e-08 0)
(0.0184587 -7.2107e-09 0)
(0.0184483 -8.79077e-08 0)
)
;

boundaryField
{
    topWall
    {
        type            noSlip;
    }
    botWall
    {
        type            noSlip;
    }
    inlet
    {
        type            cyclic;
    }
    outlet
    {
        type            cyclic;
    }
    fixWall
    {
        type            empty;
    }
}


// ************************************************************************* //
