/*--------------------------------*- C++ -*----------------------------------*\
  =========                 |
  \\      /  F ield         | OpenFOAM: The Open Source CFD Toolbox
   \\    /   O peration     | Website:  https://openfoam.org
    \\  /    A nd           | Version:  dev
     \\/     M anipulation  |

   OpenFOAM for Windows 20.09 (v1)
   Built by CFD Support, www.cfdsupport.com (based on Symscape).
\*---------------------------------------------------------------------------*/
FoamFile
{
    version     2.0;
    format      ascii;
    class       volVectorField;
    location    "4";
    object      UMean;
}
// * * * * * * * * * * * * * * * * * * * * * * * * * * * * * * * * * * * * * //

dimensions      [0 1 -1 0 0 0 0];

internalField   nonuniform List<vector> 
960
(
(0.00173113 7.69217e-06 0)
(0.00172689 -6.30059e-08 0)
(0.00174058 -8.36971e-09 0)
(0.00173369 1.27514e-08 0)
(0.00476363 -1.00348e-06 0)
(0.00476849 -6.23868e-07 0)
(0.00479186 -4.14718e-08 0)
(0.00476857 2.79753e-07 0)
(0.00739438 5.71842e-06 0)
(0.0074073 -1.05539e-06 0)
(0.00743865 1.14391e-08 0)
(0.00740075 7.70476e-07 0)
(0.00966143 9.66296e-07 0)
(0.00967964 -1.79743e-06 0)
(0.00971781 7.41753e-08 0)
(0.00966844 1.44694e-06 0)
(0.0116025 3.22365e-06 0)
(0.0116249 -2.42077e-06 0)
(0.0116672 2.33524e-07 0)
(0.0116091 2.25972e-06 0)
(0.0132523 2.17579e-06 0)
(0.0132789 -3.3308e-06 0)
(0.0133233 3.25689e-07 0)
(0.0132588 3.15585e-06 0)
(0.0146449 4.3121e-06 0)
(0.0146751 -3.98806e-06 0)
(0.0147205 6.09247e-07 0)
(0.0146515 4.10415e-06 0)
(0.0158115 3.46086e-06 0)
(0.0158447 -5.01664e-06 0)
(0.0158906 6.85754e-07 0)
(0.0158192 5.11128e-06 0)
(0.0167814 5.0187e-06 0)
(0.0168174 -5.65177e-06 0)
(0.0168637 1.07219e-06 0)
(0.016791 6.09101e-06 0)
(0.0175817 4.56201e-06 0)
(0.0176199 -6.76305e-06 0)
(0.0176664 1.09043e-06 0)
(0.0175942 7.14063e-06 0)
(0.018236 5.67241e-06 0)
(0.0182773 -7.3769e-06 0)
(0.0183237 1.54413e-06 0)
(0.0182526 8.09232e-06 0)
(0.0187673 5.51982e-06 0)
(0.0188108 -8.54647e-06 0)
(0.0188566 1.44708e-06 0)
(0.0187889 9.10256e-06 0)
(0.0191934 6.26705e-06 0)
(0.0192415 -9.19259e-06 0)
(0.0192859 1.89868e-06 0)
(0.0192218 9.96758e-06 0)
(0.0195315 6.31421e-06 0)
(0.0195838 -1.02315e-05 0)
(0.0196272 1.83014e-06 0)
(0.0195689 1.08728e-05 0)
(0.0197952 6.89858e-06 0)
(0.0198561 -1.12716e-05 0)
(0.0198977 1.99654e-06 0)
(0.0198441 1.15498e-05 0)
(0.0199982 6.82926e-06 0)
(0.0200661 -1.21504e-05 0)
(0.0201056 2.17567e-06 0)
(0.0200605 1.21126e-05 0)
(0.0201627 7.35082e-06 0)
(0.0202337 -1.34517e-05 0)
(0.0202704 2.07834e-06 0)
(0.0202322 1.26007e-05 0)
(0.020291 7.28853e-06 0)
(0.020362 -1.4309e-05 0)
(0.0203984 2.30692e-06 0)
(0.0203666 1.27905e-05 0)
(0.02039 7.68259e-06 0)
(0.0204618 -1.54841e-05 0)
(0.0204977 2.1047e-06 0)
(0.0204699 1.3216e-05 0)
(0.0204662 7.80123e-06 0)
(0.0205369 -1.63557e-05 0)
(0.0205735 2.22353e-06 0)
(0.0205492 1.32927e-05 0)
(0.0205243 8.01843e-06 0)
(0.0205943 -1.75352e-05 0)
(0.0206311 1.99958e-06 0)
(0.0206089 1.36049e-05 0)
(0.0205684 8.1674e-06 0)
(0.0206368 -1.8416e-05 0)
(0.020674 2.03227e-06 0)
(0.0206537 1.36399e-05 0)
(0.0206017 8.34412e-06 0)
(0.0206688 -1.94972e-05 0)
(0.0207059 1.84451e-06 0)
(0.0206871 1.39204e-05 0)
(0.0206268 8.51446e-06 0)
(0.0206918 -2.04623e-05 0)
(0.0207289 1.756e-06 0)
(0.0207116 1.38815e-05 0)
(0.0206463 8.70478e-06 0)
(0.0207092 -2.13587e-05 0)
(0.0207452 1.63964e-06 0)
(0.0207299 1.41705e-05 0)
(0.0206615 8.91198e-06 0)
(0.0207213 -2.2347e-05 0)
(0.0207562 1.44589e-06 0)
(0.0207427 1.40891e-05 0)
(0.0206745 8.95947e-06 0)
(0.0207307 -2.32502e-05 0)
(0.0207633 1.36434e-06 0)
(0.0207525 1.42651e-05 0)
(0.0206862 9.26733e-06 0)
(0.0207371 -2.39839e-05 0)
(0.0207665 1.22529e-06 0)
(0.0207585 1.41979e-05 0)
(0.0206987 9.23926e-06 0)
(0.0207428 -2.48131e-05 0)
(0.0207671 1.05707e-06 0)
(0.0207637 1.4259e-05 0)
(0.0207125 9.76462e-06 0)
(0.0207462 -2.53356e-05 0)
(0.020763 9.64194e-07 0)
(0.0207659 1.42168e-05 0)
(0.0207283 9.9361e-06 0)
(0.0207499 -2.54892e-05 0)
(0.0207601 6.98262e-07 0)
(0.0207705 1.41919e-05 0)
(0.0207411 1.03125e-05 0)
(0.020752 -2.58892e-05 0)
(0.020758 5.26429e-07 0)
(0.0207732 1.40029e-05 0)
(0.020753 1.07002e-05 0)
(0.020757 -2.5835e-05 0)
(0.0207592 2.53758e-07 0)
(0.0207775 1.38201e-05 0)
(0.0207637 1.09634e-05 0)
(0.0207628 -2.58324e-05 0)
(0.0207624 1.30209e-07 0)
(0.0207824 1.36195e-05 0)
(0.020776 1.13181e-05 0)
(0.0207718 -2.59029e-05 0)
(0.0207689 -1.87784e-07 0)
(0.0207906 1.33119e-05 0)
(0.02079 1.18498e-05 0)
(0.0207831 -2.56532e-05 0)
(0.0207789 -2.30068e-07 0)
(0.0208017 1.31451e-05 0)
(0.0208082 1.21942e-05 0)
(0.020799 -2.55902e-05 0)
(0.0207935 -6.02864e-07 0)
(0.0208176 1.29108e-05 0)
(0.0208315 1.2734e-05 0)
(0.0208202 -2.54433e-05 0)
(0.0208138 -6.50777e-07 0)
(0.0208388 1.25326e-05 0)
(0.0208628 1.31326e-05 0)
(0.0208492 -2.5159e-05 0)
(0.0208416 -9.68301e-07 0)
(0.0208677 1.24875e-05 0)
(0.0209038 1.36375e-05 0)
(0.0208879 -2.51059e-05 0)
(0.0208789 -1.08333e-06 0)
(0.0209063 1.18275e-05 0)
(0.0209589 1.40885e-05 0)
(0.0209398 -2.46582e-05 0)
(0.0209287 -1.28645e-06 0)
(0.0209575 1.19183e-05 0)
(0.0210308 1.45456e-05 0)
(0.0210084 -2.45655e-05 0)
(0.0209945 -1.54421e-06 0)
(0.0210251 1.11335e-05 0)
(0.0211255 1.50545e-05 0)
(0.0210987 -2.39242e-05 0)
(0.0210809 -1.57283e-06 0)
(0.0211134 1.121e-05 0)
(0.0212474 1.51874e-05 0)
(0.0212167 -2.36582e-05 0)
(0.0211938 -1.90693e-06 0)
(0.0212282 1.04313e-05 0)
(0.0214042 1.60728e-05 0)
(0.0213693 -2.30769e-05 0)
(0.0213406 -1.84451e-06 0)
(0.021376 1.01219e-05 0)
(0.0216035 1.59494e-05 0)
(0.0215678 -2.24154e-05 0)
(0.0215316 -1.98074e-06 0)
(0.0215611 9.60705e-06 0)
(0.0218529 1.64045e-05 0)
(0.0218121 -2.19648e-05 0)
(0.0217682 -1.9579e-06 0)
(0.0217966 8.97255e-06 0)
(0.0221626 1.64252e-05 0)
(0.0221174 -2.08159e-05 0)
(0.022067 -1.78864e-06 0)
(0.0220965 8.9281e-06 0)
(0.0225464 1.64506e-05 0)
(0.0224961 -2.02628e-05 0)
(0.0224413 -1.69576e-06 0)
(0.0224723 8.01962e-06 0)
(0.0230174 1.63338e-05 0)
(0.0229636 -1.88722e-05 0)
(0.0229057 -1.55848e-06 0)
(0.0229388 8.0236e-06 0)
(0.023594 1.67321e-05 0)
(0.0235366 -1.8225e-05 0)
(0.0234768 -1.28911e-06 0)
(0.0235116 7.05801e-06 0)
(0.0242936 1.62816e-05 0)
(0.0242342 -1.68413e-05 0)
(0.0241733 -1.3035e-06 0)
(0.02421 6.82199e-06 0)
(0.0251387 1.69929e-05 0)
(0.025077 -1.60792e-05 0)
(0.025016 -8.98136e-07 0)
(0.0250538 5.95201e-06 0)
(0.0261515 1.62064e-05 0)
(0.0260885 -1.46545e-05 0)
(0.0260277 -1.06708e-06 0)
(0.0260667 5.56458e-06 0)
(0.0273582 1.7427e-05 0)
(0.027293 -1.39344e-05 0)
(0.0272339 -5.69783e-07 0)
(0.0272729 4.71689e-06 0)
(0.028786 1.60719e-05 0)
(0.0287183 -1.23615e-05 0)
(0.0286608 -8.1495e-07 0)
(0.0287004 4.24511e-06 0)
(0.0304639 1.82409e-05 0)
(0.0303919 -1.17777e-05 0)
(0.030338 -3.13555e-07 0)
(0.0303765 3.44011e-06 0)
(0.0324258 1.62479e-05 0)
(0.0323471 -9.97366e-06 0)
(0.0322943 -7.35552e-07 0)
(0.032334 2.93034e-06 0)
(0.0346992 1.94996e-05 0)
(0.0346136 -8.80562e-06 0)
(0.0345615 7.44497e-08 0)
(0.0346007 2.21837e-06 0)
(0.0373315 1.96573e-05 0)
(0.03724 -6.36746e-06 0)
(0.0371815 -6.89337e-07 0)
(0.0372238 2.0748e-06 0)
(0.00172485 2.40067e-08 0)
(0.00172188 2.22296e-09 0)
(0.0017323 -8.5468e-08 0)
(0.00174651 -3.14392e-08 0)
(0.00474554 2.4178e-07 0)
(0.00474023 -4.90946e-08 0)
(0.00476423 -4.48027e-07 0)
(0.00478818 -3.59678e-07 0)
(0.00736746 5.10003e-07 0)
(0.00736142 -1.85293e-07 0)
(0.00739459 -1.02876e-06 0)
(0.00742586 -4.18198e-07 0)
(0.00962834 9.61762e-07 0)
(0.00962192 -3.73282e-07 0)
(0.0096626 -1.69466e-06 0)
(0.00970049 -6.39288e-07 0)
(0.0115649 1.3141e-06 0)
(0.0115581 -6.28456e-07 0)
(0.0116041 -2.55176e-06 0)
(0.0116469 -6.8287e-07 0)
(0.0132122 1.88828e-06 0)
(0.0132044 -9.08194e-07 0)
(0.0132547 -3.3634e-06 0)
(0.0133008 -9.08181e-07 0)
(0.0146036 2.24838e-06 0)
(0.0145946 -1.21235e-06 0)
(0.0146477 -4.3699e-06 0)
(0.0146958 -9.0278e-07 0)
(0.0157706 2.91175e-06 0)
(0.0157605 -1.5275e-06 0)
(0.0158153 -5.24159e-06 0)
(0.015864 -1.12226e-06 0)
(0.0167423 3.26218e-06 0)
(0.0167312 -1.82266e-06 0)
(0.0167866 -6.31034e-06 0)
(0.0168348 -1.05556e-06 0)
(0.0175459 3.96923e-06 0)
(0.0175342 -2.1532e-06 0)
(0.0175897 -7.1821e-06 0)
(0.0176357 -1.24659e-06 0)
(0.0182058 4.31641e-06 0)
(0.0181936 -2.42769e-06 0)
(0.0182484 -8.2075e-06 0)
(0.0182906 -1.09651e-06 0)
(0.0187441 4.9988e-06 0)
(0.0187319 -2.73424e-06 0)
(0.0187861 -9.0584e-06 0)
(0.0188227 -1.19795e-06 0)
(0.0191806 5.31473e-06 0)
(0.0191677 -3.02028e-06 0)
(0.0192211 -9.85905e-06 0)
(0.0192501 -9.98203e-07 0)
(0.0195323 5.91376e-06 0)
(0.0195196 -3.31517e-06 0)
(0.0195736 -1.07352e-05 0)
(0.0195924 -7.2969e-07 0)
(0.019814 6.22184e-06 0)
(0.0198008 -3.5757e-06 0)
(0.0198557 -1.12277e-05 0)
(0.0198615 -5.72798e-07 0)
(0.0200433 6.57147e-06 0)
(0.0200287 -3.82304e-06 0)
(0.0200828 -1.19373e-05 0)
(0.0200746 2.70911e-07 0)
(0.0202213 6.80067e-06 0)
(0.020205 -3.97061e-06 0)
(0.0202543 -1.24469e-05 0)
(0.0202378 8.8472e-07 0)
(0.0203594 6.93652e-06 0)
(0.0203423 -4.10103e-06 0)
(0.0203883 -1.27618e-05 0)
(0.0203663 1.78546e-06 0)
(0.0204651 7.24517e-06 0)
(0.0204469 -4.29324e-06 0)
(0.0204896 -1.31822e-05 0)
(0.0204639 2.60442e-06 0)
(0.0205459 7.27574e-06 0)
(0.0205279 -4.33955e-06 0)
(0.0205678 -1.33979e-05 0)
(0.0205395 3.54506e-06 0)
(0.0206067 7.59472e-06 0)
(0.0205886 -4.44983e-06 0)
(0.020626 -1.36515e-05 0)
(0.0205964 4.31673e-06 0)
(0.0206524 7.62269e-06 0)
(0.0206351 -4.50266e-06 0)
(0.0206706 -1.38739e-05 0)
(0.0206399 5.33058e-06 0)
(0.0206865 7.88608e-06 0)
(0.0206695 -4.53895e-06 0)
(0.0207034 -1.40535e-05 0)
(0.0206721 6.10677e-06 0)
(0.0207114 7.9425e-06 0)
(0.0206953 -4.62642e-06 0)
(0.0207285 -1.42416e-05 0)
(0.0206969 7.09794e-06 0)
(0.0207301 8.12939e-06 0)
(0.0207142 -4.60044e-06 0)
(0.0207467 -1.4391e-05 0)
(0.0207151 7.90995e-06 0)
(0.0207429 8.21193e-06 0)
(0.0207281 -4.77969e-06 0)
(0.0207609 -1.45853e-05 0)
(0.0207295 8.95143e-06 0)
(0.0207529 8.32695e-06 0)
(0.0207384 -4.71755e-06 0)
(0.0207711 -1.48377e-05 0)
(0.0207403 9.48842e-06 0)
(0.0207588 8.58119e-06 0)
(0.0207456 -4.76291e-06 0)
(0.0207794 -1.472e-05 0)
(0.0207498 1.07102e-05 0)
(0.0207644 8.53776e-06 0)
(0.0207517 -4.94766e-06 0)
(0.0207848 -1.52726e-05 0)
(0.020757 1.11502e-05 0)
(0.020767 8.76462e-06 0)
(0.0207557 -4.84953e-06 0)
(0.0207895 -1.51698e-05 0)
(0.0207642 1.21127e-05 0)
(0.0207728 8.7468e-06 0)
(0.0207588 -5.20093e-06 0)
(0.0207903 -1.5451e-05 0)
(0.0207725 1.29547e-05 0)
(0.0207745 8.78271e-06 0)
(0.0207607 -5.23619e-06 0)
(0.0207942 -1.59616e-05 0)
(0.0207819 1.30154e-05 0)
(0.0207789 9.06186e-06 0)
(0.0207649 -5.38925e-06 0)
(0.0207992 -1.58207e-05 0)
(0.0207909 1.37858e-05 0)
(0.0207837 9.10183e-06 0)
(0.0207698 -5.48006e-06 0)
(0.0208065 -1.63924e-05 0)
(0.0208013 1.37691e-05 0)
(0.0207921 9.37071e-06 0)
(0.020778 -5.74712e-06 0)
(0.0208158 -1.65639e-05 0)
(0.0208126 1.41842e-05 0)
(0.0208033 9.50395e-06 0)
(0.0207892 -5.68041e-06 0)
(0.0208285 -1.68617e-05 0)
(0.0208269 1.44673e-05 0)
(0.0208197 9.58254e-06 0)
(0.0208054 -6.18849e-06 0)
(0.0208452 -1.73759e-05 0)
(0.0208446 1.47787e-05 0)
(0.0208417 9.81789e-06 0)
(0.0208275 -6.04292e-06 0)
(0.0208674 -1.76296e-05 0)
(0.0208678 1.50101e-05 0)
(0.0208717 9.83196e-06 0)
(0.0208579 -6.59061e-06 0)
(0.0208969 -1.81418e-05 0)
(0.0208981 1.53448e-05 0)
(0.0209115 1.00801e-05 0)
(0.0208982 -6.38461e-06 0)
(0.020936 -1.83975e-05 0)
(0.0209377 1.55053e-05 0)
(0.0209646 1.00678e-05 0)
(0.0209523 -6.91859e-06 0)
(0.0209874 -1.88205e-05 0)
(0.0209899 1.57829e-05 0)
(0.0210339 1.02215e-05 0)
(0.0210227 -6.79669e-06 0)
(0.0210549 -1.91979e-05 0)
(0.0210578 1.59533e-05 0)
(0.0211249 1.01735e-05 0)
(0.021116 -7.23221e-06 0)
(0.0211429 -1.95761e-05 0)
(0.0211461 1.63163e-05 0)
(0.021242 1.02028e-05 0)
(0.0212357 -7.10257e-06 0)
(0.0212571 -1.97431e-05 0)
(0.0212598 1.61895e-05 0)
(0.0213933 1.02494e-05 0)
(0.0213919 -7.37354e-06 0)
(0.0214043 -2.0185e-05 0)
(0.0214053 1.6468e-05 0)
(0.0215794 1.01214e-05 0)
(0.0215885 -7.25502e-06 0)
(0.0215904 -1.99261e-05 0)
(0.0215878 1.6078e-05 0)
(0.0218193 9.93359e-06 0)
(0.0218354 -7.34244e-06 0)
(0.0218279 -1.99857e-05 0)
(0.0218245 1.57673e-05 0)
(0.0221222 9.50125e-06 0)
(0.022142 -7.6084e-06 0)
(0.0221284 -1.98641e-05 0)
(0.0221248 1.57489e-05 0)
(0.0225006 9.13194e-06 0)
(0.0225231 -7.35965e-06 0)
(0.0225049 -1.95001e-05 0)
(0.0225021 1.5008e-05 0)
(0.0229688 8.56276e-06 0)
(0.0229925 -7.83786e-06 0)
(0.0229711 -1.95114e-05 0)
(0.022969 1.50568e-05 0)
(0.0235434 8.26799e-06 0)
(0.023568 -7.41801e-06 0)
(0.0235445 -1.9077e-05 0)
(0.0235433 1.42244e-05 0)
(0.0242432 7.58429e-06 0)
(0.024268 -7.8041e-06 0)
(0.0242424 -1.89157e-05 0)
(0.0242416 1.40566e-05 0)
(0.0250887 7.3408e-06 0)
(0.0251139 -7.54532e-06 0)
(0.0250872 -1.85526e-05 0)
(0.0250867 1.32096e-05 0)
(0.0261031 6.537e-06 0)
(0.0261286 -7.59222e-06 0)
(0.0260998 -1.83364e-05 0)
(0.0260994 1.31411e-05 0)
(0.027311 6.3199e-06 0)
(0.0273376 -7.84329e-06 0)
(0.0273079 -1.80614e-05 0)
(0.0273076 1.21949e-05 0)
(0.0287391 5.49232e-06 0)
(0.0287667 -7.08373e-06 0)
(0.0287345 -1.75163e-05 0)
(0.0287348 1.22297e-05 0)
(0.0304152 5.1831e-06 0)
(0.0304452 -8.23043e-06 0)
(0.0304126 -1.76035e-05 0)
(0.0304143 1.13007e-05 0)
(0.0323696 4.37698e-06 0)
(0.0324016 -6.97515e-06 0)
(0.0323668 -1.7105e-05 0)
(0.0323721 1.12696e-05 0)
(0.0346321 4.0262e-06 0)
(0.0346668 -8.04624e-06 0)
(0.0346346 -1.62544e-05 0)
(0.0346485 1.06588e-05 0)
(0.0372463 3.09014e-06 0)
(0.0372881 -7.17592e-06 0)
(0.037249 -1.67683e-05 0)
(0.0372658 1.17517e-05 0)
(0.0424227 1.81866e-05 0)
(0.0423622 -6.83243e-06 0)
(0.0422686 -6.00836e-08 0)
(0.0423138 1.49702e-06 0)
(0.0671481 1.2816e-05 0)
(0.0677222 -9.11759e-06 0)
(0.0672962 2.44391e-06 0)
(0.0673108 -4.34734e-07 0)
(0.090108 5.53721e-06 0)
(0.0905255 -4.28006e-06 0)
(0.0901205 2.45522e-06 0)
(0.0901493 8.94408e-07 0)
(0.109905 1.14936e-05 0)
(0.110182 -9.80826e-06 0)
(0.109831 1.08739e-05 0)
(0.109868 -1.55735e-06 0)
(0.126848 -4.91161e-06 0)
(0.127035 -2.71223e-06 0)
(0.126741 8.30009e-06 0)
(0.126773 5.42905e-07 0)
(0.141259 7.13854e-06 0)
(0.141373 -7.69562e-06 0)
(0.141137 1.46768e-05 0)
(0.14117 -1.64116e-06 0)
(0.153417 -8.42836e-06 0)
(0.15349 -1.16784e-06 0)
(0.153311 1.19597e-05 0)
(0.153335 -3.53743e-08 0)
(0.163624 2.87917e-06 0)
(0.163662 -5.12536e-06 0)
(0.163524 1.73206e-05 0)
(0.163552 -1.95411e-06 0)
(0.172117 -8.61098e-06 0)
(0.172137 2.71493e-07 0)
(0.172037 1.41112e-05 0)
(0.172064 -3.9074e-07 0)
(0.179141 -8.89377e-07 0)
(0.179145 -3.34517e-06 0)
(0.179082 1.81004e-05 0)
(0.179115 -2.89017e-06 0)
(0.184908 -7.62934e-06 0)
(0.184904 9.71381e-07 0)
(0.184877 1.56755e-05 0)
(0.184906 -8.80429e-07 0)
(0.189617 -3.38637e-06 0)
(0.189586 -2.14853e-06 0)
(0.189596 1.69301e-05 0)
(0.189636 -3.28938e-06 0)
(0.193424 -5.52269e-06 0)
(0.193376 1.10502e-06 0)
(0.19342 1.5518e-05 0)
(0.193461 -6.25968e-07 0)
(0.196487 -4.32879e-06 0)
(0.196416 -1.15386e-06 0)
(0.196487 1.50709e-05 0)
(0.196537 -2.07492e-06 0)
(0.198921 -3.84045e-06 0)
(0.198838 6.32835e-07 0)
(0.198931 1.34727e-05 0)
(0.198983 -7.91027e-07 0)
(0.200859 -3.16817e-06 0)
(0.200751 -6.52196e-07 0)
(0.200862 1.36357e-05 0)
(0.20092 -1.69832e-07 0)
(0.202379 -3.25838e-06 0)
(0.202251 -6.23491e-07 0)
(0.202376 1.10294e-05 0)
(0.202436 -1.47441e-06 0)
(0.203567 -1.14392e-06 0)
(0.203418 5.35741e-07 0)
(0.203554 1.04419e-05 0)
(0.203617 2.14504e-06 0)
(0.204482 -9.75784e-07 0)
(0.204319 -9.98971e-07 0)
(0.204463 8.0578e-06 0)
(0.204528 -7.2251e-07 0)
(0.205185 3.80192e-07 0)
(0.205008 1.61556e-06 0)
(0.205159 6.33703e-06 0)
(0.205224 3.77593e-06 0)
(0.205719 1.97021e-06 0)
(0.205532 -1.56103e-07 0)
(0.205687 4.65149e-06 0)
(0.205752 8.86555e-07 0)
(0.206122 2.30122e-06 0)
(0.205926 1.90003e-06 0)
(0.206084 2.64179e-06 0)
(0.206148 3.93846e-06 0)
(0.206423 4.28029e-06 0)
(0.206221 1.14958e-06 0)
(0.206379 1.2137e-06 0)
(0.206443 2.18691e-06 0)
(0.206643 4.69298e-06 0)
(0.206439 2.35935e-06 0)
(0.206596 -1.16987e-06 0)
(0.206657 3.75796e-06 0)
(0.206803 6.76584e-06 0)
(0.2066 2.70142e-06 0)
(0.206754 -2.32791e-06 0)
(0.206814 2.95914e-06 0)
(0.206915 7.54275e-06 0)
(0.206716 3.4454e-06 0)
(0.206864 -4.7499e-06 0)
(0.20692 3.52443e-06 0)
(0.20699 7.99414e-06 0)
(0.2068 2.93959e-06 0)
(0.206942 -5.93554e-06 0)
(0.206996 2.7123e-06 0)
(0.207037 1.03973e-05 0)
(0.206856 5.27566e-06 0)
(0.206989 -7.31741e-06 0)
(0.207037 3.18977e-06 0)
(0.20706 1.0089e-05 0)
(0.206897 3.73224e-06 0)
(0.207018 -9.0278e-06 0)
(0.207064 2.39984e-06 0)
(0.207064 1.11124e-05 0)
(0.206917 5.60061e-06 0)
(0.207024 -1.02054e-05 0)
(0.20706 2.47071e-06 0)
(0.207048 1.29918e-05 0)
(0.206929 6.57381e-06 0)
(0.207017 -1.15141e-05 0)
(0.207051 2.65177e-06 0)
(0.207013 1.14752e-05 0)
(0.206918 5.07853e-06 0)
(0.206989 -1.32817e-05 0)
(0.207001 1.90531e-06 0)
(0.206957 1.31739e-05 0)
(0.206902 7.16617e-06 0)
(0.206951 -1.28767e-05 0)
(0.206947 2.0435e-06 0)
(0.206868 1.22845e-05 0)
(0.206852 6.21017e-06 0)
(0.206883 -1.37328e-05 0)
(0.206847 1.58083e-06 0)
(0.206753 1.23977e-05 0)
(0.206789 5.97023e-06 0)
(0.206804 -1.28753e-05 0)
(0.206735 1.27077e-06 0)
(0.206604 1.14812e-05 0)
(0.206672 6.44243e-06 0)
(0.20668 -1.24178e-05 0)
(0.206587 1.35043e-06 0)
(0.206415 1.1422e-05 0)
(0.206508 5.08241e-06 0)
(0.20651 -1.17858e-05 0)
(0.206401 1.14294e-06 0)
(0.206165 1.01604e-05 0)
(0.206273 4.89518e-06 0)
(0.206272 -1.0656e-05 0)
(0.206151 1.18775e-06 0)
(0.205836 9.99568e-06 0)
(0.205952 3.76618e-06 0)
(0.20595 -9.83409e-06 0)
(0.205824 1.0879e-06 0)
(0.205397 9.12973e-06 0)
(0.205519 3.1651e-06 0)
(0.205516 -8.55234e-06 0)
(0.205385 1.10416e-06 0)
(0.204819 9.04152e-06 0)
(0.204938 2.17986e-06 0)
(0.204934 -7.67512e-06 0)
(0.204807 1.05975e-06 0)
(0.204055 8.5942e-06 0)
(0.204172 1.53205e-06 0)
(0.204167 -6.40482e-06 0)
(0.204043 1.05016e-06 0)
(0.203058 8.58441e-06 0)
(0.203157 6.84942e-07 0)
(0.203153 -5.63297e-06 0)
(0.203045 1.05126e-06 0)
(0.201757 8.49058e-06 0)
(0.201853 1.42019e-07 0)
(0.201847 -4.5077e-06 0)
(0.201746 1.00965e-06 0)
(0.200087 8.21081e-06 0)
(0.200165 -5.48214e-07 0)
(0.200161 -3.84951e-06 0)
(0.200074 7.84869e-07 0)
(0.19794 7.85763e-06 0)
(0.198019 -8.90769e-07 0)
(0.198012 -3.14975e-06 0)
(0.197932 7.95573e-07 0)
(0.195227 7.75249e-06 0)
(0.195283 -1.35813e-06 0)
(0.195278 -2.42148e-06 0)
(0.195218 5.90931e-07 0)
(0.191797 7.16643e-06 0)
(0.191852 -1.51952e-06 0)
(0.191844 -2.16325e-06 0)
(0.191794 6.19644e-07 0)
(0.18752 7.18192e-06 0)
(0.187559 -1.72195e-06 0)
(0.18755 -1.57954e-06 0)
(0.187519 5.97704e-07 0)
(0.182204 6.74788e-06 0)
(0.182243 -1.78565e-06 0)
(0.182229 -1.45885e-06 0)
(0.18221 6.69759e-07 0)
(0.175664 6.20155e-06 0)
(0.175702 -1.88155e-06 0)
(0.175679 -1.1199e-06 0)
(0.175675 6.06162e-07 0)
(0.167676 5.46981e-06 0)
(0.167716 -1.73321e-06 0)
(0.167683 -1.05369e-06 0)
(0.167689 6.21542e-07 0)
(0.157996 4.65514e-06 0)
(0.158035 -1.67158e-06 0)
(0.157994 -7.44509e-07 0)
(0.158007 5.81091e-07 0)
(0.146352 3.75102e-06 0)
(0.146388 -1.44626e-06 0)
(0.146347 -6.56103e-07 0)
(0.146363 5.20925e-07 0)
(0.132451 2.92349e-06 0)
(0.132482 -1.27425e-06 0)
(0.132441 -4.03489e-07 0)
(0.132459 4.50911e-07 0)
(0.115975 2.1313e-06 0)
(0.116 -1.00551e-06 0)
(0.115962 -3.36125e-07 0)
(0.115981 3.47211e-07 0)
(0.0965864 1.43585e-06 0)
(0.0966056 -7.57724e-07 0)
(0.0965728 -1.66754e-07 0)
(0.0965887 2.51021e-07 0)
(0.0739285 8.43555e-07 0)
(0.0739424 -4.98128e-07 0)
(0.0739163 -1.13772e-07 0)
(0.0739286 1.61404e-07 0)
(0.047631 3.59366e-07 0)
(0.0476395 -2.57548e-07 0)
(0.047621 -2.484e-08 0)
(0.0476291 1.11793e-07 0)
(0.0173137 7.21594e-08 0)
(0.0173161 -6.47474e-08 0)
(0.0173081 -4.44898e-09 0)
(0.0173121 1.07235e-08 0)
(0.0423251 3.17945e-06 0)
(0.0423743 -7.64859e-06 0)
(0.0423393 -1.58336e-05 0)
(0.0423522 1.00499e-05 0)
(0.0673777 2.98521e-06 0)
(0.0672092 -8.52004e-06 0)
(0.0673762 -1.50225e-05 0)
(0.0670225 5.07921e-06 0)
(0.0901662 2.87938e-06 0)
(0.0900351 -6.33369e-06 0)
(0.0901973 -1.66964e-05 0)
(0.0899927 1.31646e-05 0)
(0.109853 5.98998e-06 0)
(0.109765 -1.106e-05 0)
(0.109903 -1.19017e-05 0)
(0.109767 8.75825e-06 0)
(0.126748 4.17627e-06 0)
(0.126699 -5.29187e-06 0)
(0.126815 -1.48376e-05 0)
(0.126732 1.33111e-05 0)
(0.141146 7.77135e-06 0)
(0.141125 -1.35676e-05 0)
(0.141206 -1.35763e-05 0)
(0.141136 8.49882e-06 0)
(0.15332 4.39085e-06 0)
(0.153327 -6.74982e-06 0)
(0.153383 -1.42753e-05 0)
(0.153316 1.1722e-05 0)
(0.163545 8.15007e-06 0)
(0.163565 -1.32124e-05 0)
(0.163597 -1.29419e-05 0)
(0.163533 7.81163e-06 0)
(0.172067 4.18761e-06 0)
(0.172097 -9.61352e-06 0)
(0.17211 -1.33885e-05 0)
(0.172048 1.12803e-05 0)
(0.179111 7.4001e-06 0)
(0.179142 -1.2368e-05 0)
(0.179148 -1.19257e-05 0)
(0.179091 7.5483e-06 0)
(0.184887 4.1669e-06 0)
(0.184926 -1.14916e-05 0)
(0.184933 -1.13754e-05 0)
(0.184877 1.07749e-05 0)
(0.189582 6.50536e-06 0)
(0.189625 -1.2634e-05 0)
(0.189636 -1.17056e-05 0)
(0.189592 8.29859e-06 0)
(0.193381 4.96851e-06 0)
(0.193432 -1.33943e-05 0)
(0.193447 -1.09484e-05 0)
(0.19341 1.12356e-05 0)
(0.196429 6.61946e-06 0)
(0.196478 -1.30576e-05 0)
(0.196494 -1.09302e-05 0)
(0.196474 9.00554e-06 0)
(0.19886 6.34759e-06 0)
(0.198911 -1.54219e-05 0)
(0.198931 -1.12264e-05 0)
(0.198918 1.1137e-05 0)
(0.200781 7.01309e-06 0)
(0.200825 -1.39029e-05 0)
(0.200837 -9.31212e-06 0)
(0.200852 8.83012e-06 0)
(0.202291 8.36816e-06 0)
(0.202331 -1.57535e-05 0)
(0.202325 -1.01716e-05 0)
(0.202363 8.59881e-06 0)
(0.20347 7.99312e-06 0)
(0.203497 -1.58159e-05 0)
(0.203474 -1.02188e-05 0)
(0.203541 8.85239e-06 0)
(0.204383 1.09122e-05 0)
(0.204403 -1.50982e-05 0)
(0.204363 -1.04213e-05 0)
(0.20445 6.37559e-06 0)
(0.205088 9.92711e-06 0)
(0.205101 -1.6379e-05 0)
(0.205042 -1.15921e-05 0)
(0.205148 7.59585e-06 0)
(0.205624 1.30413e-05 0)
(0.205633 -1.41748e-05 0)
(0.205558 -1.12896e-05 0)
(0.20568 4.47449e-06 0)
(0.206036 1.19175e-05 0)
(0.206043 -1.55068e-05 0)
(0.205946 -1.16916e-05 0)
(0.206079 4.35076e-06 0)
(0.206342 1.4673e-05 0)
(0.206345 -1.25549e-05 0)
(0.206236 -1.15542e-05 0)
(0.206378 1.69193e-06 0)
(0.206579 1.36408e-05 0)
(0.206584 -1.39476e-05 0)
(0.206451 -1.2018e-05 0)
(0.206597 1.00503e-06 0)
(0.206744 1.58007e-05 0)
(0.206744 -1.05111e-05 0)
(0.206606 -1.15712e-05 0)
(0.206756 -1.25708e-06 0)
(0.206869 1.49955e-05 0)
(0.206873 -1.18752e-05 0)
(0.206722 -1.18626e-05 0)
(0.206868 -1.65944e-06 0)
(0.206949 1.58181e-05 0)
(0.206946 -8.47772e-06 0)
(0.206799 -1.25035e-05 0)
(0.206943 -6.01996e-06 0)
(0.20701 1.66959e-05 0)
(0.207014 -8.40176e-06 0)
(0.206857 -9.44844e-06 0)
(0.206992 -3.99995e-06 0)
(0.207038 1.58099e-05 0)
(0.207031 -7.0595e-06 0)
(0.206887 -1.2884e-05 0)
(0.207016 -9.01327e-06 0)
(0.207052 1.68154e-05 0)
(0.207054 -5.00355e-06 0)
(0.206909 -9.16926e-06 0)
(0.207024 -8.31349e-06 0)
(0.207046 1.71262e-05 0)
(0.207031 -4.57048e-06 0)
(0.206907 -1.0474e-05 0)
(0.207011 -7.95847e-06 0)
(0.207015 1.53218e-05 0)
(0.207016 -3.93254e-06 0)
(0.206897 -1.26268e-05 0)
(0.206983 -1.22978e-05 0)
(0.206976 1.74398e-05 0)
(0.206966 -1.94009e-06 0)
(0.206859 -8.38787e-06 0)
(0.206931 -9.60027e-06 0)
(0.206905 1.51038e-05 0)
(0.206911 -1.98628e-06 0)
(0.206807 -1.16329e-05 0)
(0.206857 -1.3042e-05 0)
(0.206817 1.56885e-05 0)
(0.206821 -8.16617e-07 0)
(0.206721 -8.36833e-06 0)
(0.206751 -1.21782e-05 0)
(0.20669 1.44382e-05 0)
(0.206701 3.91902e-07 0)
(0.206605 -8.42777e-06 0)
(0.20662 -1.25326e-05 0)
(0.206514 1.34233e-05 0)
(0.206525 3.31771e-07 0)
(0.206439 -7.80145e-06 0)
(0.206444 -1.21075e-05 0)
(0.206274 1.22938e-05 0)
(0.206289 1.31855e-06 0)
(0.206214 -7.06642e-06 0)
(0.206213 -1.19159e-05 0)
(0.205949 1.10313e-05 0)
(0.205965 1.44161e-06 0)
(0.205908 -6.44316e-06 0)
(0.205903 -1.11544e-05 0)
(0.205514 9.88886e-06 0)
(0.205531 1.88092e-06 0)
(0.205495 -5.98885e-06 0)
(0.205488 -1.04789e-05 0)
(0.204935 8.48399e-06 0)
(0.204952 1.75499e-06 0)
(0.204931 -5.71395e-06 0)
(0.204924 -9.41462e-06 0)
(0.204166 7.46449e-06 0)
(0.204185 1.95742e-06 0)
(0.204173 -5.29804e-06 0)
(0.204163 -8.3541e-06 0)
(0.203164 6.16817e-06 0)
(0.203184 1.70612e-06 0)
(0.203173 -5.21997e-06 0)
(0.203164 -7.45272e-06 0)
(0.201853 5.17319e-06 0)
(0.201876 1.81803e-06 0)
(0.201863 -4.83877e-06 0)
(0.201847 -6.25049e-06 0)
(0.200174 3.8572e-06 0)
(0.200193 1.57785e-06 0)
(0.200176 -4.78599e-06 0)
(0.200167 -5.44452e-06 0)
(0.19801 2.85238e-06 0)
(0.198028 1.42701e-06 0)
(0.198021 -4.68049e-06 0)
(0.198006 -4.48611e-06 0)
(0.195287 2.10256e-06 0)
(0.195296 1.43419e-06 0)
(0.195286 -4.43944e-06 0)
(0.195281 -3.6316e-06 0)
(0.19184 1.32894e-06 0)
(0.191854 1.24464e-06 0)
(0.191852 -4.4233e-06 0)
(0.191834 -3.21024e-06 0)
(0.187557 1.17506e-06 0)
(0.187564 1.37929e-06 0)
(0.187557 -3.98058e-06 0)
(0.187543 -2.64563e-06 0)
(0.182222 6.96304e-07 0)
(0.182238 1.22081e-06 0)
(0.182242 -3.87966e-06 0)
(0.182207 -2.36821e-06 0)
(0.17568 5.69481e-07 0)
(0.175693 1.13753e-06 0)
(0.175691 -3.47169e-06 0)
(0.175646 -1.93546e-06 0)
(0.167681 3.65714e-07 0)
(0.167695 9.12209e-07 0)
(0.167703 -3.10476e-06 0)
(0.167642 -1.62086e-06 0)
(0.157999 3.57589e-07 0)
(0.158012 8.11047e-07 0)
(0.158016 -2.5457e-06 0)
(0.157952 -1.29374e-06 0)
(0.146351 2.54982e-07 0)
(0.146364 5.78505e-07 0)
(0.146371 -2.08345e-06 0)
(0.146306 -1.04963e-06 0)
(0.13245 2.5336e-07 0)
(0.132461 4.72405e-07 0)
(0.132465 -1.53824e-06 0)
(0.132405 -7.76105e-07 0)
(0.115972 1.90019e-07 0)
(0.115981 3.04029e-07 0)
(0.115985 -1.11563e-06 0)
(0.115932 -5.90557e-07 0)
(0.0965817 1.71217e-07 0)
(0.0965891 2.25649e-07 0)
(0.0965909 -6.97726e-07 0)
(0.0965485 -4.05511e-07 0)
(0.0739226 1.38867e-07 0)
(0.0739285 1.34793e-07 0)
(0.0739304 -4.01789e-07 0)
(0.0738984 -2.97849e-07 0)
(0.0476268 1.08506e-07 0)
(0.0476324 6.28708e-08 0)
(0.0476336 -1.88901e-07 0)
(0.0476115 -1.50312e-07 0)
(0.0173134 2.88588e-08 0)
(0.0173171 3.27093e-08 0)
(0.017317 -1.7388e-08 0)
(0.0173069 -6.71327e-08 0)
)
;

boundaryField
{
    topWall
    {
        type            calculated;
        value           uniform (0 0 0);
    }
    botWall
    {
        type            calculated;
        value           uniform (0 0 0);
    }
    inlet
    {
        type            cyclic;
    }
    outlet
    {
        type            cyclic;
    }
    fixWall
    {
        type            empty;
    }
}


// ************************************************************************* //
