/*--------------------------------*- C++ -*----------------------------------*\
  =========                 |
  \\      /  F ield         | OpenFOAM: The Open Source CFD Toolbox
   \\    /   O peration     | Website:  https://openfoam.org
    \\  /    A nd           | Version:  dev
     \\/     M anipulation  |

   OpenFOAM for Windows 20.09 (v1)
   Built by CFD Support, www.cfdsupport.com (based on Symscape).
\*---------------------------------------------------------------------------*/
FoamFile
{
    version     2.0;
    format      ascii;
    class       volSymmTensorField;
    location    "4";
    object      UPrime2Mean;
}
// * * * * * * * * * * * * * * * * * * * * * * * * * * * * * * * * * * * * * //

dimensions      [0 2 -2 0 0 0 0];

internalField   nonuniform List<symmTensor> 
960
(
(2.21702e-08 7.51501e-10 0 2.54735e-11 0 0)
(1.89677e-08 -2.59012e-12 0 3.53692e-16 0 0)
(2.01986e-08 -8.28303e-13 0 3.3967e-17 0 0)
(2.00993e-08 2.24572e-12 0 2.50917e-16 0 0)
(1.9219e-07 -2.58709e-10 0 3.48253e-13 0 0)
(1.75444e-07 -6.79665e-11 0 2.633e-14 0 0)
(1.81578e-07 -2.49046e-11 0 3.41585e-15 0 0)
(1.79497e-07 3.90152e-11 0 8.48027e-15 0 0)
(5.18704e-07 2.7888e-09 0 1.49939e-11 0 0)
(4.84766e-07 -1.41587e-10 0 4.13539e-14 0 0)
(4.9779e-07 -5.14478e-11 0 5.31725e-15 0 0)
(4.91669e-07 1.72998e-10 0 6.08707e-14 0 0)
(9.84339e-07 1.21098e-09 0 1.48979e-12 0 0)
(9.31533e-07 -2.63559e-10 0 7.45689e-14 0 0)
(9.53888e-07 -1.35232e-10 0 1.91716e-14 0 0)
(9.42357e-07 3.93362e-10 0 1.64199e-13 0 0)
(1.56668e-06 2.91256e-09 0 5.41462e-12 0 0)
(1.49796e-06 -3.81334e-10 0 9.7076e-14 0 0)
(1.53024e-06 -1.71219e-10 0 1.91576e-14 0 0)
(1.51104e-06 7.84243e-10 0 4.07028e-13 0 0)
(2.24113e-06 3.91873e-09 0 6.85211e-12 0 0)
(2.16081e-06 -5.58101e-10 0 1.44148e-13 0 0)
(2.20255e-06 -3.56668e-10 0 5.77565e-14 0 0)
(2.1745e-06 1.21678e-09 0 6.80867e-13 0 0)
(2.98092e-06 5.77674e-09 0 1.11948e-11 0 0)
(2.89379e-06 -7.28202e-10 0 1.83247e-13 0 0)
(2.94447e-06 -3.18617e-10 0 3.44772e-14 0 0)
(2.90661e-06 1.89765e-09 0 1.23893e-12 0 0)
(3.75955e-06 7.59406e-09 0 1.53395e-11 0 0)
(3.66849e-06 -1.02266e-09 0 2.85086e-13 0 0)
(3.72773e-06 -6.43826e-10 0 1.11197e-13 0 0)
(3.68146e-06 2.5131e-09 0 1.71553e-12 0 0)
(4.55024e-06 9.26795e-09 0 1.8877e-11 0 0)
(4.4588e-06 -1.2595e-09 0 3.55778e-13 0 0)
(4.52595e-06 -4.47827e-10 0 4.43109e-14 0 0)
(4.47212e-06 3.45367e-09 0 2.66715e-12 0 0)
(5.32923e-06 1.14621e-08 0 2.46527e-11 0 0)
(5.23984e-06 -1.70281e-09 0 5.53369e-13 0 0)
(5.31395e-06 -9.67263e-10 0 1.76064e-13 0 0)
(5.25629e-06 4.17881e-09 0 3.3222e-12 0 0)
(6.07453e-06 1.33433e-08 0 2.93098e-11 0 0)
(5.99289e-06 -1.99291e-09 0 6.62732e-13 0 0)
(6.07129e-06 -5.84126e-10 0 5.61994e-14 0 0)
(6.00964e-06 5.26898e-09 0 4.6196e-12 0 0)
(6.76906e-06 1.54264e-08 0 3.5156e-11 0 0)
(6.69949e-06 -2.67005e-09 0 1.06413e-12 0 0)
(6.78021e-06 -1.34434e-09 0 2.66547e-13 0 0)
(6.71846e-06 6.05841e-09 0 5.4632e-12 0 0)
(7.39982e-06 1.74271e-08 0 4.1042e-11 0 0)
(7.3525e-06 -3.01742e-09 0 1.23833e-12 0 0)
(7.42653e-06 -8.79628e-10 0 1.04187e-13 0 0)
(7.36552e-06 7.10134e-09 0 6.84664e-12 0 0)
(7.95092e-06 1.93688e-08 0 4.71831e-11 0 0)
(7.93597e-06 -3.7589e-09 0 1.78041e-12 0 0)
(8.0031e-06 -1.44268e-09 0 2.60066e-13 0 0)
(7.94814e-06 7.90547e-09 0 7.86303e-12 0 0)
(8.4242e-06 2.13886e-08 0 5.43046e-11 0 0)
(8.45613e-06 -4.37781e-09 0 2.26643e-12 0 0)
(8.49886e-06 -1.41688e-09 0 2.36215e-13 0 0)
(8.45438e-06 8.56212e-09 0 8.67123e-12 0 0)
(8.81143e-06 2.28471e-08 0 5.92399e-11 0 0)
(8.90922e-06 -5.36632e-09 0 3.23231e-12 0 0)
(8.92836e-06 -1.20384e-09 0 1.62317e-13 0 0)
(8.89491e-06 8.77964e-09 0 8.66585e-12 0 0)
(9.18088e-06 2.47517e-08 0 6.67305e-11 0 0)
(9.31029e-06 -6.40402e-09 0 4.40496e-12 0 0)
(9.29689e-06 -1.2967e-09 0 1.8086e-13 0 0)
(9.27645e-06 8.74096e-09 0 8.23639e-12 0 0)
(9.4908e-06 2.59906e-08 0 7.11752e-11 0 0)
(9.63794e-06 -7.49031e-09 0 5.82124e-12 0 0)
(9.61132e-06 -4.86172e-10 0 2.45922e-14 0 0)
(9.60435e-06 8.32036e-09 0 7.20802e-12 0 0)
(9.75337e-06 2.76224e-08 0 7.8229e-11 0 0)
(9.91182e-06 -8.53519e-09 0 7.34976e-12 0 0)
(9.87094e-06 -6.86684e-10 0 4.777e-14 0 0)
(9.87334e-06 7.93165e-09 0 6.37182e-12 0 0)
(9.96949e-06 2.89423e-08 0 8.40222e-11 0 0)
(1.01287e-05 -9.33209e-09 0 8.59818e-12 0 0)
(1.00835e-05 1.65464e-10 0 2.71515e-15 0 0)
(1.00978e-05 7.33794e-09 0 5.33237e-12 0 0)
(1.01469e-05 3.02882e-08 0 9.04093e-11 0 0)
(1.03052e-05 -1.04059e-08 0 1.05076e-11 0 0)
(1.02556e-05 1.75947e-11 0 3.01859e-17 0 0)
(1.02768e-05 6.59313e-09 0 4.22987e-12 0 0)
(1.02907e-05 3.15605e-08 0 9.67927e-11 0 0)
(1.04421e-05 -1.1203e-08 0 1.20193e-11 0 0)
(1.0391e-05 7.07844e-10 0 4.82188e-14 0 0)
(1.0421e-05 5.79855e-09 0 3.22647e-12 0 0)
(1.04055e-05 3.28756e-08 0 1.03869e-10 0 0)
(1.055e-05 -1.20608e-08 0 1.37879e-11 0 0)
(1.04973e-05 7.12837e-10 0 4.84067e-14 0 0)
(1.05341e-05 5.04362e-09 0 2.41483e-12 0 0)
(1.04977e-05 3.39768e-08 0 1.09969e-10 0 0)
(1.06322e-05 -1.28812e-08 0 1.56059e-11 0 0)
(1.0578e-05 1.09758e-09 0 1.13886e-13 0 0)
(1.06224e-05 3.95607e-09 0 1.47335e-12 0 0)
(1.05713e-05 3.54633e-08 0 1.18967e-10 0 0)
(1.06962e-05 -1.34713e-08 0 1.69662e-11 0 0)
(1.06391e-05 1.31458e-09 0 1.62431e-13 0 0)
(1.06905e-05 3.26445e-09 0 9.96836e-13 0 0)
(1.06314e-05 3.63161e-08 0 1.24054e-10 0 0)
(1.07457e-05 -1.40614e-08 0 1.84001e-11 0 0)
(1.06856e-05 1.49168e-09 0 2.08234e-13 0 0)
(1.07418e-05 2.01708e-09 0 3.78764e-13 0 0)
(1.06808e-05 3.76694e-08 0 1.32854e-10 0 0)
(1.07839e-05 -1.47839e-08 0 2.02675e-11 0 0)
(1.07214e-05 1.73573e-09 0 2.81005e-13 0 0)
(1.07819e-05 1.43907e-09 0 1.92075e-13 0 0)
(1.07245e-05 3.8752e-08 0 1.40027e-10 0 0)
(1.08168e-05 -1.56181e-08 0 2.25506e-11 0 0)
(1.07484e-05 1.79098e-09 0 2.98429e-13 0 0)
(1.08111e-05 3.02674e-11 0 8.47383e-17 0 0)
(1.07663e-05 3.96592e-08 0 1.46091e-10 0 0)
(1.08451e-05 -1.55546e-08 0 2.23093e-11 0 0)
(1.07722e-05 2.27723e-09 0 4.81405e-13 0 0)
(1.08392e-05 -5.06382e-10 0 2.3657e-14 0 0)
(1.08104e-05 4.08651e-08 0 1.54478e-10 0 0)
(1.0872e-05 -1.63557e-08 0 2.46052e-11 0 0)
(1.0786e-05 2.20186e-09 0 4.49486e-13 0 0)
(1.08628e-05 -1.58173e-09 0 2.30317e-13 0 0)
(1.08666e-05 4.16355e-08 0 1.59527e-10 0 0)
(1.08994e-05 -1.54608e-08 0 2.19311e-11 0 0)
(1.08215e-05 2.3135e-09 0 4.94597e-13 0 0)
(1.0905e-05 -2.17197e-09 0 4.32594e-13 0 0)
(1.09158e-05 4.23754e-08 0 1.64502e-10 0 0)
(1.09222e-05 -1.50003e-08 0 2.06011e-11 0 0)
(1.08288e-05 2.41084e-09 0 5.36733e-13 0 0)
(1.09207e-05 -2.49383e-09 0 5.69488e-13 0 0)
(1.0963e-05 4.32122e-08 0 1.70327e-10 0 0)
(1.09487e-05 -1.52007e-08 0 2.1104e-11 0 0)
(1.08452e-05 1.70031e-09 0 2.66575e-13 0 0)
(1.09409e-05 -3.28304e-09 0 9.85141e-13 0 0)
(1.10112e-05 4.39137e-08 0 1.75132e-10 0 0)
(1.09808e-05 -1.37835e-08 0 1.73015e-11 0 0)
(1.0865e-05 2.25337e-09 0 4.67343e-13 0 0)
(1.09616e-05 -3.51428e-09 0 1.12668e-12 0 0)
(1.10652e-05 4.44482e-08 0 1.78546e-10 0 0)
(1.10192e-05 -1.39907e-08 0 1.77636e-11 0 0)
(1.08937e-05 1.59484e-09 0 2.33485e-13 0 0)
(1.09934e-05 -4.35591e-09 0 1.72594e-12 0 0)
(1.11269e-05 4.54345e-08 0 1.85523e-10 0 0)
(1.1068e-05 -1.25812e-08 0 1.43013e-11 0 0)
(1.09333e-05 2.0854e-09 0 3.97764e-13 0 0)
(1.10355e-05 -4.6077e-09 0 1.92387e-12 0 0)
(1.12015e-05 4.61758e-08 0 1.90351e-10 0 0)
(1.11293e-05 -1.19974e-08 0 1.29333e-11 0 0)
(1.09858e-05 1.7089e-09 0 2.65829e-13 0 0)
(1.10928e-05 -5.32814e-09 0 2.55924e-12 0 0)
(1.12927e-05 4.67087e-08 0 1.93196e-10 0 0)
(1.12091e-05 -1.05291e-08 0 9.89046e-12 0 0)
(1.10573e-05 2.05935e-09 0 3.83541e-13 0 0)
(1.11686e-05 -5.76845e-09 0 2.97932e-12 0 0)
(1.14074e-05 4.81684e-08 0 2.03393e-10 0 0)
(1.1312e-05 -9.98992e-09 0 8.82237e-12 0 0)
(1.1151e-05 1.90567e-09 0 3.25674e-13 0 0)
(1.1267e-05 -6.36712e-09 0 3.59814e-12 0 0)
(1.15501e-05 4.82013e-08 0 2.01156e-10 0 0)
(1.14435e-05 -8.19505e-09 0 5.86871e-12 0 0)
(1.12739e-05 2.02814e-09 0 3.64856e-13 0 0)
(1.13944e-05 -7.12921e-09 0 4.4606e-12 0 0)
(1.17309e-05 5.02866e-08 0 2.15563e-10 0 0)
(1.16125e-05 -7.80764e-09 0 5.24945e-12 0 0)
(1.14319e-05 2.19693e-09 0 4.22195e-13 0 0)
(1.15546e-05 -7.66362e-09 0 5.08293e-12 0 0)
(1.19534e-05 5.02287e-08 0 2.11064e-10 0 0)
(1.18247e-05 -5.45217e-09 0 2.51391e-12 0 0)
(1.16354e-05 2.19734e-09 0 4.14967e-13 0 0)
(1.17589e-05 -8.59625e-09 0 6.2842e-12 0 0)
(1.22309e-05 5.23419e-08 0 2.23997e-10 0 0)
(1.20936e-05 -4.41187e-09 0 1.60949e-12 0 0)
(1.18941e-05 2.74261e-09 0 6.32409e-13 0 0)
(1.20136e-05 -9.27403e-09 0 7.15916e-12 0 0)
(1.25662e-05 5.24151e-08 0 2.1863e-10 0 0)
(1.24276e-05 -2.89586e-09 0 6.74792e-13 0 0)
(1.22234e-05 2.41581e-09 0 4.77457e-13 0 0)
(1.23339e-05 -1.01098e-08 0 8.28677e-12 0 0)
(1.29706e-05 5.47933e-08 0 2.31471e-10 0 0)
(1.28415e-05 -1.03121e-09 0 8.28085e-14 0 0)
(1.26412e-05 3.53674e-09 0 9.89502e-13 0 0)
(1.2728e-05 -1.11539e-08 0 9.77453e-12 0 0)
(1.34547e-05 5.54757e-08 0 2.28734e-10 0 0)
(1.33616e-05 -6.80136e-10 0 3.46203e-14 0 0)
(1.31706e-05 3.3585e-09 0 8.56419e-13 0 0)
(1.31936e-05 -1.13345e-08 0 9.73731e-12 0 0)
(1.40572e-05 5.68346e-08 0 2.29789e-10 0 0)
(1.39706e-05 6.43563e-10 0 2.96461e-14 0 0)
(1.37587e-05 4.44173e-09 0 1.43393e-12 0 0)
(1.37538e-05 -1.1886e-08 0 1.02717e-11 0 0)
(1.47742e-05 5.85606e-08 0 2.32116e-10 0 0)
(1.46836e-05 2.06431e-09 0 2.90212e-13 0 0)
(1.44472e-05 5.63578e-09 0 2.1985e-12 0 0)
(1.44306e-05 -1.18011e-08 0 9.6507e-12 0 0)
(1.56209e-05 5.83451e-08 0 2.17923e-10 0 0)
(1.55191e-05 3.74633e-09 0 9.04365e-13 0 0)
(1.52581e-05 6.37382e-09 0 2.66255e-12 0 0)
(1.52339e-05 -1.20234e-08 0 9.4896e-12 0 0)
(1.66046e-05 6.07981e-08 0 2.22614e-10 0 0)
(1.64898e-05 5.47758e-09 0 1.81954e-12 0 0)
(1.62062e-05 8.01478e-09 0 3.96372e-12 0 0)
(1.61814e-05 -1.23491e-08 0 9.42439e-12 0 0)
(1.77458e-05 6.08523e-08 0 2.08669e-10 0 0)
(1.76145e-05 7.9415e-09 0 3.58043e-12 0 0)
(1.73084e-05 9.55297e-09 0 5.27254e-12 0 0)
(1.72821e-05 -1.25815e-08 0 9.15942e-12 0 0)
(1.90512e-05 6.37488e-08 0 2.13315e-10 0 0)
(1.89058e-05 9.30418e-09 0 4.57889e-12 0 0)
(1.85792e-05 1.08135e-08 0 6.29372e-12 0 0)
(1.85559e-05 -1.32938e-08 0 9.52395e-12 0 0)
(2.05411e-05 6.40249e-08 0 1.9956e-10 0 0)
(2.03758e-05 1.29176e-08 0 8.18934e-12 0 0)
(2.00291e-05 1.34045e-08 0 8.97095e-12 0 0)
(2.00075e-05 -1.37464e-08 0 9.44458e-12 0 0)
(2.22234e-05 6.74864e-08 0 2.04938e-10 0 0)
(2.20391e-05 1.41554e-08 0 9.09184e-12 0 0)
(2.16704e-05 1.42083e-08 0 9.31572e-12 0 0)
(2.16555e-05 -1.44185e-08 0 9.60004e-12 0 0)
(2.41101e-05 6.80178e-08 0 1.91888e-10 0 0)
(2.39015e-05 1.96503e-08 0 1.61553e-11 0 0)
(2.35125e-05 1.81176e-08 0 1.39605e-11 0 0)
(2.34927e-05 -1.601e-08 0 1.09107e-11 0 0)
(2.62141e-05 7.20266e-08 0 1.97902e-10 0 0)
(2.59737e-05 1.9324e-08 0 1.43768e-11 0 0)
(2.55599e-05 1.78961e-08 0 1.25301e-11 0 0)
(2.55313e-05 -1.57944e-08 0 9.77083e-12 0 0)
(2.85247e-05 7.36532e-08 0 1.90179e-10 0 0)
(2.8247e-05 2.86695e-08 0 2.90982e-11 0 0)
(2.78162e-05 2.42712e-08 0 2.1178e-11 0 0)
(2.77548e-05 -1.95151e-08 0 1.37216e-11 0 0)
(3.10877e-05 7.70808e-08 0 1.91119e-10 0 0)
(3.07375e-05 2.84157e-08 0 2.62693e-11 0 0)
(3.02764e-05 2.37098e-08 0 1.85674e-11 0 0)
(3.0159e-05 -1.73581e-08 0 9.99051e-12 0 0)
(3.38433e-05 8.20965e-08 0 1.99148e-10 0 0)
(3.3432e-05 3.91251e-08 0 4.57877e-11 0 0)
(3.29344e-05 3.06066e-08 0 2.84433e-11 0 0)
(3.27162e-05 -2.2702e-08 0 1.5753e-11 0 0)
(3.68494e-05 9.41547e-08 0 2.40577e-10 0 0)
(3.63245e-05 4.61648e-08 0 5.86708e-11 0 0)
(3.58398e-05 3.26295e-08 0 2.97068e-11 0 0)
(3.55349e-05 -2.00211e-08 0 1.12803e-11 0 0)
(1.90337e-08 -1.31052e-13 0 9.02327e-19 0 0)
(2.03648e-08 -7.09203e-12 0 2.4698e-15 0 0)
(2.0195e-08 6.19606e-12 0 1.90102e-15 0 0)
(2.21774e-08 -1.1213e-11 0 5.66929e-15 0 0)
(1.71572e-07 1.05413e-11 0 6.47653e-16 0 0)
(1.79213e-07 -6.79351e-11 0 2.57525e-14 0 0)
(1.77971e-07 3.56782e-11 0 7.15247e-15 0 0)
(1.8907e-07 -2.23361e-10 0 2.63871e-13 0 0)
(4.73517e-07 5.01166e-11 0 5.30429e-15 0 0)
(4.86912e-07 -2.18288e-10 0 9.78608e-14 0 0)
(4.84776e-07 8.24338e-11 0 1.40175e-14 0 0)
(5.11324e-07 -6.67605e-10 0 8.71651e-13 0 0)
(9.1334e-07 1.42153e-10 0 2.21249e-14 0 0)
(9.28979e-07 -4.58758e-10 0 2.26548e-13 0 0)
(9.2867e-07 7.18537e-11 0 5.55951e-15 0 0)
(9.77441e-07 -1.41183e-09 0 2.03925e-12 0 0)
(1.47203e-06 3.29698e-10 0 7.38439e-14 0 0)
(1.48744e-06 -7.48177e-10 0 3.76332e-13 0 0)
(1.49066e-06 -1.75559e-11 0 2.06761e-16 0 0)
(1.56355e-06 -2.44808e-09 0 3.833e-12 0 0)
(2.12655e-06 5.25186e-10 0 1.29703e-13 0 0)
(2.13906e-06 -1.14538e-09 0 6.13307e-13 0 0)
(2.14842e-06 -2.37601e-10 0 2.62771e-14 0 0)
(2.24498e-06 -3.70344e-09 0 6.10937e-12 0 0)
(2.85058e-06 9.64466e-10 0 3.26317e-13 0 0)
(2.85943e-06 -1.53417e-09 0 8.2313e-13 0 0)
(2.87521e-06 -5.64852e-10 0 1.10968e-13 0 0)
(2.99235e-06 -5.20238e-09 0 9.04463e-12 0 0)
(3.61806e-06 1.18206e-09 0 3.86193e-13 0 0)
(3.62302e-06 -2.05872e-09 0 1.16983e-12 0 0)
(3.64543e-06 -1.02613e-09 0 2.8884e-13 0 0)
(3.77902e-06 -6.80026e-09 0 1.22369e-11 0 0)
(4.40208e-06 1.97221e-09 0 8.8359e-13 0 0)
(4.40459e-06 -2.50727e-09 0 1.42724e-12 0 0)
(4.43398e-06 -1.54128e-09 0 5.3576e-13 0 0)
(4.57809e-06 -8.54045e-09 0 1.59323e-11 0 0)
(5.18123e-06 2.08165e-09 0 8.36342e-13 0 0)
(5.18148e-06 -3.15646e-09 0 1.92285e-12 0 0)
(5.21798e-06 -2.19148e-09 0 9.20389e-13 0 0)
(5.36619e-06 -1.03054e-08 0 1.97908e-11 0 0)
(5.93283e-06 3.17272e-09 0 1.69668e-12 0 0)
(5.93416e-06 -3.70279e-09 0 2.31046e-12 0 0)
(5.98072e-06 -2.75207e-09 0 1.26638e-12 0 0)
(6.1241e-06 -1.19313e-08 0 2.32454e-11 0 0)
(6.64222e-06 3.23611e-09 0 1.57665e-12 0 0)
(6.6462e-06 -4.38819e-09 0 2.89733e-12 0 0)
(6.70617e-06 -3.51028e-09 0 1.83742e-12 0 0)
(6.8348e-06 -1.3759e-08 0 2.76981e-11 0 0)
(7.29936e-06 4.34132e-09 0 2.58201e-12 0 0)
(7.30441e-06 -5.08388e-09 0 3.53839e-12 0 0)
(7.38525e-06 -3.95896e-09 0 2.12225e-12 0 0)
(7.48967e-06 -1.49825e-08 0 2.99712e-11 0 0)
(7.89823e-06 4.23397e-09 0 2.26968e-12 0 0)
(7.90243e-06 -6.2019e-09 0 4.86731e-12 0 0)
(8.01319e-06 -4.70786e-09 0 2.76594e-12 0 0)
(8.07975e-06 -1.61677e-08 0 3.23517e-11 0 0)
(8.44196e-06 4.86303e-09 0 2.80137e-12 0 0)
(8.43116e-06 -6.79208e-09 0 5.47166e-12 0 0)
(8.58118e-06 -5.06943e-09 0 2.99483e-12 0 0)
(8.60504e-06 -1.70709e-08 0 3.38658e-11 0 0)
(8.93642e-06 4.85625e-09 0 2.639e-12 0 0)
(8.90656e-06 -7.994e-09 0 7.17495e-12 0 0)
(9.10519e-06 -5.8741e-09 0 3.7896e-12 0 0)
(9.07038e-06 -1.65303e-08 0 3.01255e-11 0 0)
(9.35337e-06 4.52812e-09 0 2.19214e-12 0 0)
(9.30319e-06 -8.67726e-09 0 8.09344e-12 0 0)
(9.51091e-06 -6.84586e-09 0 4.92758e-12 0 0)
(9.45156e-06 -1.58803e-08 0 2.66816e-11 0 0)
(9.70157e-06 5.31073e-09 0 2.90715e-12 0 0)
(9.64424e-06 -9.30866e-09 0 8.98477e-12 0 0)
(9.85686e-06 -7.25947e-09 0 5.34652e-12 0 0)
(9.77326e-06 -1.49769e-08 0 2.29512e-11 0 0)
(9.98952e-06 4.43157e-09 0 1.96595e-12 0 0)
(9.92706e-06 -1.04203e-08 0 1.0938e-11 0 0)
(1.01415e-05 -8.16336e-09 0 6.57109e-12 0 0)
(1.00422e-05 -1.36665e-08 0 1.85987e-11 0 0)
(1.02246e-05 5.08746e-09 0 2.53138e-12 0 0)
(1.01608e-05 -1.09854e-08 0 1.18768e-11 0 0)
(1.03725e-05 -8.44109e-09 0 6.86933e-12 0 0)
(1.02618e-05 -1.2566e-08 0 1.53875e-11 0 0)
(1.04129e-05 4.25667e-09 0 1.74008e-12 0 0)
(1.03493e-05 -1.18179e-08 0 1.3495e-11 0 0)
(1.05579e-05 -8.99729e-09 0 7.66738e-12 0 0)
(1.04409e-05 -1.12453e-08 0 1.21117e-11 0 0)
(1.05623e-05 4.53711e-09 0 1.94895e-12 0 0)
(1.04996e-05 -1.25614e-08 0 1.5028e-11 0 0)
(1.0703e-05 -9.3359e-09 0 8.14341e-12 0 0)
(1.05833e-05 -9.75824e-09 0 8.99745e-12 0 0)
(1.0679e-05 4.02379e-09 0 1.51614e-12 0 0)
(1.06189e-05 -1.3174e-08 0 1.63439e-11 0 0)
(1.08177e-05 -9.69355e-09 0 8.68624e-12 0 0)
(1.06953e-05 -8.40967e-09 0 6.61247e-12 0 0)
(1.0768e-05 3.81344e-09 0 1.35051e-12 0 0)
(1.07111e-05 -1.39303e-08 0 1.8117e-11 0 0)
(1.09059e-05 -1.0029e-08 0 9.22256e-12 0 0)
(1.07829e-05 -6.95489e-09 0 4.48585e-12 0 0)
(1.08353e-05 3.65828e-09 0 1.23513e-12 0 0)
(1.07848e-05 -1.44679e-08 0 1.94089e-11 0 0)
(1.09756e-05 -1.02177e-08 0 9.51204e-12 0 0)
(1.0849e-05 -5.50655e-09 0 2.79492e-12 0 0)
(1.08819e-05 2.82499e-09 0 7.33383e-13 0 0)
(1.08391e-05 -1.53716e-08 0 2.17994e-11 0 0)
(1.10282e-05 -1.05981e-08 0 1.01849e-11 0 0)
(1.08996e-05 -4.03419e-09 0 1.49314e-12 0 0)
(1.09153e-05 3.44636e-09 0 1.08814e-12 0 0)
(1.08842e-05 -1.57189e-08 0 2.27012e-11 0 0)
(1.10705e-05 -1.08555e-08 0 1.06446e-11 0 0)
(1.09372e-05 -2.92746e-09 0 7.83562e-13 0 0)
(1.09329e-05 2.32317e-09 0 4.93657e-13 0 0)
(1.09123e-05 -1.66162e-08 0 2.53014e-11 0 0)
(1.11011e-05 -1.06512e-08 0 1.02195e-11 0 0)
(1.09661e-05 -9.72525e-10 0 8.62478e-14 0 0)
(1.09468e-05 2.61343e-09 0 6.23925e-13 0 0)
(1.09373e-05 -1.75238e-08 0 2.80767e-11 0 0)
(1.11262e-05 -1.13889e-08 0 1.16578e-11 0 0)
(1.09895e-05 -2.51885e-10 0 5.77334e-15 0 0)
(1.09508e-05 1.99025e-09 0 3.61719e-13 0 0)
(1.09431e-05 -1.7916e-08 0 2.93318e-11 0 0)
(1.11414e-05 -1.10601e-08 0 1.09793e-11 0 0)
(1.10104e-05 1.47943e-09 0 1.98785e-13 0 0)
(1.09672e-05 9.19047e-10 0 7.70155e-14 0 0)
(1.09582e-05 -1.90318e-08 0 3.30537e-11 0 0)
(1.1145e-05 -1.18391e-08 0 1.25764e-11 0 0)
(1.10377e-05 2.73463e-09 0 6.77513e-13 0 0)
(1.09658e-05 1.33561e-09 0 1.62675e-13 0 0)
(1.09598e-05 -1.93044e-08 0 3.40026e-11 0 0)
(1.11561e-05 -1.28246e-08 0 1.47427e-11 0 0)
(1.10639e-05 3.26059e-09 0 9.6091e-13 0 0)
(1.09759e-05 3.66845e-10 0 1.2261e-14 0 0)
(1.09856e-05 -1.99477e-08 0 3.62211e-11 0 0)
(1.11816e-05 -1.29739e-08 0 1.50535e-11 0 0)
(1.10904e-05 4.7766e-09 0 2.05726e-12 0 0)
(1.09894e-05 1.0503e-09 0 1.00382e-13 0 0)
(1.10124e-05 -2.05521e-08 0 3.83559e-11 0 0)
(1.12101e-05 -1.4199e-08 0 1.79849e-11 0 0)
(1.11207e-05 5.41187e-09 0 2.63368e-12 0 0)
(1.10175e-05 1.20677e-10 0 1.32181e-15 0 0)
(1.10562e-05 -2.16196e-08 0 4.22753e-11 0 0)
(1.12515e-05 -1.46844e-08 0 1.91647e-11 0 0)
(1.11587e-05 6.34067e-09 0 3.60293e-12 0 0)
(1.10569e-05 5.19179e-10 0 2.43781e-14 0 0)
(1.11057e-05 -2.19454e-08 0 4.33653e-11 0 0)
(1.13004e-05 -1.52055e-08 0 2.046e-11 0 0)
(1.12078e-05 7.37389e-09 0 4.85146e-12 0 0)
(1.11145e-05 -6.76187e-10 0 4.11379e-14 0 0)
(1.11726e-05 -2.35353e-08 0 4.95775e-11 0 0)
(1.13651e-05 -1.62488e-08 0 2.32311e-11 0 0)
(1.12715e-05 7.84328e-09 0 5.45775e-12 0 0)
(1.11918e-05 -2.36686e-10 0 5.00546e-15 0 0)
(1.12555e-05 -2.37457e-08 0 5.00963e-11 0 0)
(1.14459e-05 -1.67241e-08 0 2.44365e-11 0 0)
(1.13536e-05 8.98497e-09 0 7.11049e-12 0 0)
(1.12942e-05 -1.43673e-09 0 1.82767e-13 0 0)
(1.13632e-05 -2.54999e-08 0 5.72233e-11 0 0)
(1.15492e-05 -1.76255e-08 0 2.68987e-11 0 0)
(1.14585e-05 9.30079e-09 0 7.54937e-12 0 0)
(1.14265e-05 -1.1927e-09 0 1.24495e-13 0 0)
(1.14995e-05 -2.56924e-08 0 5.74025e-11 0 0)
(1.16792e-05 -1.82564e-08 0 2.85375e-11 0 0)
(1.15912e-05 1.04459e-08 0 9.41374e-12 0 0)
(1.15943e-05 -2.10822e-09 0 3.83342e-13 0 0)
(1.16728e-05 -2.74057e-08 0 6.43439e-11 0 0)
(1.18419e-05 -1.89607e-08 0 3.03591e-11 0 0)
(1.17579e-05 1.05763e-08 0 9.51354e-12 0 0)
(1.18053e-05 -2.56672e-09 0 5.58056e-13 0 0)
(1.18889e-05 -2.80182e-08 0 6.60295e-11 0 0)
(1.20453e-05 -1.99521e-08 0 3.30492e-11 0 0)
(1.19655e-05 1.16825e-08 0 1.14062e-11 0 0)
(1.20665e-05 -3.5236e-09 0 1.02894e-12 0 0)
(1.21578e-05 -2.96184e-08 0 7.21554e-11 0 0)
(1.22966e-05 -2.05046e-08 0 3.41914e-11 0 0)
(1.22216e-05 1.20381e-08 0 1.18573e-11 0 0)
(1.23845e-05 -3.76892e-09 0 1.14698e-12 0 0)
(1.24856e-05 -3.01283e-08 0 7.27008e-11 0 0)
(1.26101e-05 -2.13845e-08 0 3.62643e-11 0 0)
(1.25361e-05 1.24814e-08 0 1.2427e-11 0 0)
(1.2767e-05 -5.07707e-09 0 2.01901e-12 0 0)
(1.28875e-05 -3.22846e-08 0 8.08765e-11 0 0)
(1.29948e-05 -2.22486e-08 0 3.80923e-11 0 0)
(1.29161e-05 1.32041e-08 0 1.34986e-11 0 0)
(1.32177e-05 -5.00929e-09 0 1.89844e-12 0 0)
(1.33869e-05 -3.29256e-08 0 8.09816e-11 0 0)
(1.346e-05 -2.24779e-08 0 3.75377e-11 0 0)
(1.33619e-05 1.30552e-08 0 1.27556e-11 0 0)
(1.3778e-05 -6.14288e-09 0 2.73878e-12 0 0)
(1.39804e-05 -3.50056e-08 0 8.76508e-11 0 0)
(1.40155e-05 -2.31935e-08 0 3.83818e-11 0 0)
(1.39067e-05 1.32873e-08 0 1.26956e-11 0 0)
(1.44592e-05 -7.95387e-09 0 4.37535e-12 0 0)
(1.46821e-05 -3.71971e-08 0 9.4239e-11 0 0)
(1.46899e-05 -2.323e-08 0 3.67351e-11 0 0)
(1.45787e-05 1.35763e-08 0 1.26428e-11 0 0)
(1.52712e-05 -8.53299e-09 0 4.76792e-12 0 0)
(1.55108e-05 -3.84855e-08 0 9.54905e-11 0 0)
(1.54974e-05 -2.33506e-08 0 3.51835e-11 0 0)
(1.53897e-05 1.33087e-08 0 1.1509e-11 0 0)
(1.62301e-05 -1.1206e-08 0 7.73715e-12 0 0)
(1.64828e-05 -4.14908e-08 0 1.04441e-10 0 0)
(1.645e-05 -2.38665e-08 0 3.46267e-11 0 0)
(1.63474e-05 1.34275e-08 0 1.10291e-11 0 0)
(1.73466e-05 -1.20821e-08 0 8.41526e-12 0 0)
(1.7614e-05 -4.32398e-08 0 1.06147e-10 0 0)
(1.75653e-05 -2.36076e-08 0 3.17283e-11 0 0)
(1.74692e-05 1.33052e-08 0 1.01338e-11 0 0)
(1.86369e-05 -1.48446e-08 0 1.18239e-11 0 0)
(1.89207e-05 -4.59085e-08 0 1.11391e-10 0 0)
(1.88512e-05 -2.43474e-08 0 3.14461e-11 0 0)
(1.87575e-05 1.26474e-08 0 8.52759e-12 0 0)
(2.01119e-05 -1.61555e-08 0 1.29774e-11 0 0)
(2.04143e-05 -4.89311e-08 0 1.17283e-10 0 0)
(2.03263e-05 -2.3879e-08 0 2.80526e-11 0 0)
(2.02377e-05 1.28634e-08 0 8.17619e-12 0 0)
(2.17857e-05 -1.99275e-08 0 1.82278e-11 0 0)
(2.21093e-05 -5.05729e-08 0 1.15681e-10 0 0)
(2.19934e-05 -2.49416e-08 0 2.82849e-11 0 0)
(2.19044e-05 1.17341e-08 0 6.28591e-12 0 0)
(2.36602e-05 -2.15934e-08 0 1.97072e-11 0 0)
(2.40116e-05 -5.63749e-08 0 1.32358e-10 0 0)
(2.38693e-05 -2.41344e-08 0 2.44024e-11 0 0)
(2.37839e-05 1.23856e-08 0 6.44986e-12 0 0)
(2.57397e-05 -2.5993e-08 0 2.62488e-11 0 0)
(2.61255e-05 -5.45358e-08 0 1.13841e-10 0 0)
(2.59487e-05 -2.47621e-08 0 2.36298e-11 0 0)
(2.58579e-05 1.0537e-08 0 4.2938e-12 0 0)
(2.80128e-05 -2.94898e-08 0 3.10447e-11 0 0)
(2.84514e-05 -6.56516e-08 0 1.51491e-10 0 0)
(2.82381e-05 -2.42282e-08 0 2.07876e-11 0 0)
(2.81462e-05 1.1851e-08 0 4.9899e-12 0 0)
(3.0466e-05 -3.54494e-08 0 4.12478e-11 0 0)
(3.09596e-05 -6.06088e-08 0 1.18652e-10 0 0)
(3.07266e-05 -2.48363e-08 0 2.00751e-11 0 0)
(3.0626e-05 9.18441e-09 0 2.7543e-12 0 0)
(3.30494e-05 -3.78823e-08 0 4.3422e-11 0 0)
(3.36533e-05 -7.2483e-08 0 1.56115e-10 0 0)
(3.34123e-05 -2.20726e-08 0 1.45814e-11 0 0)
(3.33214e-05 1.18097e-08 0 4.18553e-12 0 0)
(3.58932e-05 -4.66307e-08 0 6.05804e-11 0 0)
(3.65978e-05 -7.03876e-08 0 1.35375e-10 0 0)
(3.63189e-05 -2.32746e-08 0 1.49153e-11 0 0)
(3.61873e-05 1.23697e-08 0 4.22827e-12 0 0)
(4.21605e-05 8.962e-08 0 1.90504e-10 0 0)
(4.17898e-05 4.51853e-08 0 4.88567e-11 0 0)
(4.13483e-05 3.56049e-08 0 3.06593e-11 0 0)
(4.10835e-05 -2.35739e-08 0 1.35268e-11 0 0)
(6.31327e-05 6.85597e-08 0 7.44532e-11 0 0)
(7.03397e-05 4.62156e-08 0 3.03652e-11 0 0)
(6.97721e-05 4.87956e-08 0 3.41255e-11 0 0)
(7.45259e-05 -3.60486e-08 0 1.74369e-11 0 0)
(0.000109201 1.20251e-07 0 1.32419e-10 0 0)
(0.000116257 2.69494e-08 0 6.24709e-12 0 0)
(0.000114859 3.52503e-08 0 1.08183e-11 0 0)
(0.000117978 -9.89229e-09 0 8.29456e-13 0 0)
(0.000165029 8.36659e-08 0 4.24167e-11 0 0)
(0.000170821 3.83091e-08 0 8.59138e-12 0 0)
(0.000169031 6.13652e-08 0 2.22781e-11 0 0)
(0.000170358 -4.68279e-08 0 1.2872e-11 0 0)
(0.000228163 1.12704e-07 0 5.56714e-11 0 0)
(0.000232844 -3.96961e-08 0 6.76752e-12 0 0)
(0.000230658 3.12315e-08 0 4.22881e-12 0 0)
(0.000230475 3.70202e-08 0 5.94641e-12 0 0)
(0.000296677 5.13563e-08 0 8.89004e-12 0 0)
(0.000299905 5.23232e-08 0 9.1286e-12 0 0)
(0.000297901 1.16115e-07 0 4.5259e-11 0 0)
(0.000296788 -1.1302e-08 0 4.30394e-13 0 0)
(0.000368186 9.47218e-08 0 2.43687e-11 0 0)
(0.000370479 -7.27005e-08 0 1.42663e-11 0 0)
(0.000368574 6.70701e-08 0 1.22049e-11 0 0)
(0.000367191 7.99991e-08 0 1.74292e-11 0 0)
(0.00044128 1.47604e-08 0 4.93718e-13 0 0)
(0.000442691 4.87218e-08 0 5.36225e-12 0 0)
(0.000440928 1.64664e-07 0 6.14936e-11 0 0)
(0.000439671 3.91858e-08 0 3.49244e-12 0 0)
(0.000513899 7.8827e-08 0 1.20913e-11 0 0)
(0.00051472 -6.37049e-08 0 7.88451e-12 0 0)
(0.000512961 1.19106e-07 0 2.76554e-11 0 0)
(0.000512326 9.69283e-08 0 1.83381e-11 0 0)
(0.000584564 -1.00357e-08 0 1.7229e-13 0 0)
(0.000584674 4.2831e-08 0 3.13764e-12 0 0)
(0.000583292 1.93544e-07 0 6.42202e-11 0 0)
(0.000583242 7.0875e-08 0 8.61265e-12 0 0)
(0.000651661 7.125e-08 0 7.79019e-12 0 0)
(0.000651415 -5.52489e-08 0 4.68587e-12 0 0)
(0.000650381 1.61109e-07 0 3.99092e-11 0 0)
(0.00065082 8.78492e-08 0 1.18581e-11 0 0)
(0.000714417 -1.04508e-08 0 1.52878e-13 0 0)
(0.000713738 4.97604e-08 0 3.4692e-12 0 0)
(0.000713135 2.05421e-07 0 5.91722e-11 0 0)
(0.000713827 8.3053e-08 0 9.66311e-12 0 0)
(0.000771386 6.65012e-08 0 5.73306e-12 0 0)
(0.00077078 -1.35591e-08 0 2.38524e-13 0 0)
(0.00077083 1.93173e-07 0 4.84098e-11 0 0)
(0.000771747 7.4318e-08 0 7.15671e-12 0 0)
(0.000823104 1.39077e-08 0 2.34993e-13 0 0)
(0.000822253 1.27391e-08 0 1.97366e-13 0 0)
(0.000822778 1.91881e-07 0 4.47486e-11 0 0)
(0.000823918 9.16553e-08 0 1.0196e-11 0 0)
(0.000868682 4.77425e-08 0 2.62391e-12 0 0)
(0.000867721 4.26313e-08 0 2.09449e-12 0 0)
(0.00086875 2.02112e-07 0 4.70207e-11 0 0)
(0.000870024 6.88074e-08 0 5.44176e-12 0 0)
(0.000908536 6.33783e-08 0 4.42119e-12 0 0)
(0.0009074 -3.72021e-08 0 1.52523e-12 0 0)
(0.000908719 1.81308e-07 0 3.61747e-11 0 0)
(0.000910137 9.18852e-08 0 9.27651e-12 0 0)
(0.000942721 1.75281e-08 0 3.25901e-13 0 0)
(0.00094126 3.42238e-08 0 1.24436e-12 0 0)
(0.000942972 1.7163e-07 0 3.12382e-11 0 0)
(0.000944469 7.18379e-08 0 5.46411e-12 0 0)
(0.000971689 1.07565e-07 0 1.19073e-11 0 0)
(0.000969849 -2.63511e-08 0 7.1597e-13 0 0)
(0.000971818 1.80584e-07 0 3.35562e-11 0 0)
(0.0009734 9.46552e-08 0 9.20445e-12 0 0)
(0.000995646 1.35277e-08 0 1.83799e-13 0 0)
(0.000993541 3.26574e-08 0 1.07344e-12 0 0)
(0.000995817 1.39991e-07 0 1.96797e-11 0 0)
(0.000997439 7.36344e-08 0 5.43594e-12 0 0)
(0.00101541 1.23336e-07 0 1.49808e-11 0 0)
(0.00101296 -2.38047e-08 0 5.59412e-13 0 0)
(0.00101544 1.45523e-07 0 2.08548e-11 0 0)
(0.00101711 9.58599e-08 0 9.03452e-12 0 0)
(0.00103138 3.91984e-08 0 1.48977e-12 0 0)
(0.00102864 4.49112e-08 0 1.96087e-12 0 0)
(0.00103133 1.15945e-07 0 1.30349e-11 0 0)
(0.00103301 7.0305e-08 0 4.78486e-12 0 0)
(0.00104417 1.24151e-07 0 1.47615e-11 0 0)
(0.00104112 -2.46485e-08 0 5.83551e-13 0 0)
(0.00104396 9.92873e-08 0 9.44288e-12 0 0)
(0.00104566 7.93714e-08 0 6.02475e-12 0 0)
(0.00105427 7.61219e-08 0 5.49628e-12 0 0)
(0.00105097 3.01969e-08 0 8.67635e-13 0 0)
(0.00105391 8.152e-08 0 6.30556e-12 0 0)
(0.0010556 6.02249e-08 0 3.43601e-12 0 0)
(0.00106209 1.17163e-07 0 1.29247e-11 0 0)
(0.00105857 -3.72016e-09 0 1.30738e-14 0 0)
(0.0010616 5.68575e-08 0 3.0452e-12 0 0)
(0.00106329 5.45993e-08 0 2.80366e-12 0 0)
(0.00106807 1.22826e-07 0 1.41249e-11 0 0)
(0.00106441 2.15658e-08 0 4.36939e-13 0 0)
(0.00106747 4.12056e-08 0 1.59059e-12 0 0)
(0.00106915 3.4325e-08 0 1.102e-12 0 0)
(0.00107251 1.20357e-07 0 1.35063e-11 0 0)
(0.00106874 2.91661e-08 0 7.95946e-13 0 0)
(0.00107185 2.10784e-08 0 4.14516e-13 0 0)
(0.00107352 2.25353e-08 0 4.73061e-13 0 0)
(0.0010757 1.36172e-07 0 1.7238e-11 0 0)
(0.00107193 1.10696e-08 0 1.14314e-13 0 0)
(0.001075 -3.76373e-09 0 1.31774e-14 0 0)
(0.00107674 1.3708e-08 0 1.74517e-13 0 0)
(0.00107783 1.56601e-07 0 2.27531e-11 0 0)
(0.00107409 2.55196e-08 0 6.06328e-13 0 0)
(0.00107723 -2.24717e-08 0 4.68776e-13 0 0)
(0.00107894 -1.3172e-08 0 1.60808e-13 0 0)
(0.00107908 1.56294e-07 0 2.26377e-11 0 0)
(0.00107546 4.02903e-08 0 1.50941e-12 0 0)
(0.00107851 -3.23908e-08 0 9.72791e-13 0 0)
(0.0010805 -7.39566e-09 0 5.0621e-14 0 0)
(0.00107945 1.54571e-07 0 2.21336e-11 0 0)
(0.0010761 2.40401e-10 0 5.37055e-17 0 0)
(0.00107932 -8.9836e-08 0 7.47741e-12 0 0)
(0.00108121 -2.56779e-08 0 6.0983e-13 0 0)
(0.00107917 1.83602e-07 0 3.12366e-11 0 0)
(0.00107615 5.66385e-08 0 2.98091e-12 0 0)
(0.00107927 -8.46095e-08 0 6.63294e-12 0 0)
(0.00108168 -3.07792e-08 0 8.75824e-13 0 0)
(0.00107799 1.46468e-07 0 1.99009e-11 0 0)
(0.00107558 4.15129e-08 0 1.60221e-12 0 0)
(0.00107866 -1.28704e-07 0 1.53567e-11 0 0)
(0.00108025 -1.34324e-08 0 1.67024e-13 0 0)
(0.00107623 1.6472e-07 0 2.5211e-11 0 0)
(0.00107453 1.82067e-08 0 3.0849e-13 0 0)
(0.00107679 -1.50341e-07 0 2.09906e-11 0 0)
(0.00107822 -2.62313e-08 0 6.38167e-13 0 0)
(0.00107338 1.78639e-07 0 2.97301e-11 0 0)
(0.00107266 5.46927e-08 0 2.78867e-12 0 0)
(0.00107428 -1.47486e-07 0 2.02481e-11 0 0)
(0.00107419 -9.85189e-09 0 9.0356e-14 0 0)
(0.00106932 1.45381e-07 0 1.97653e-11 0 0)
(0.00107018 1.51487e-08 0 2.14434e-13 0 0)
(0.00107094 -1.60335e-07 0 2.40044e-11 0 0)
(0.00106968 -1.03512e-08 0 1.00167e-13 0 0)
(0.0010639 1.66318e-07 0 2.60004e-11 0 0)
(0.00106588 1.98124e-08 0 3.68268e-13 0 0)
(0.00106649 -1.60115e-07 0 2.40385e-11 0 0)
(0.00106408 1.5332e-09 0 2.20915e-15 0 0)
(0.00105722 1.31149e-07 0 1.62692e-11 0 0)
(0.00105996 1.45269e-08 0 1.99094e-13 0 0)
(0.00106016 -1.41568e-07 0 1.89042e-11 0 0)
(0.00105715 9.04605e-09 0 7.74075e-14 0 0)
(0.00104843 1.26997e-07 0 1.53833e-11 0 0)
(0.00105164 2.74845e-09 0 7.18305e-15 0 0)
(0.00105182 -1.37079e-07 0 1.78648e-11 0 0)
(0.0010483 2.45513e-08 0 5.74993e-13 0 0)
(0.00103737 1.09952e-07 0 1.16539e-11 0 0)
(0.0010409 -1.19913e-08 0 1.38141e-13 0 0)
(0.00104091 -1.18075e-07 0 1.33938e-11 0 0)
(0.00103713 3.4347e-08 0 1.13749e-12 0 0)
(0.00102322 9.14792e-08 0 8.17856e-12 0 0)
(0.00102685 -2.0178e-08 0 3.96506e-13 0 0)
(0.00102685 -1.07562e-07 0 1.1267e-11 0 0)
(0.00102294 4.82373e-08 0 2.27466e-12 0 0)
(0.00100558 8.77157e-08 0 7.65135e-12 0 0)
(0.00100921 -3.69659e-08 0 1.35401e-12 0 0)
(0.00100914 -8.65906e-08 0 7.43003e-12 0 0)
(0.00100524 5.94457e-08 0 3.51538e-12 0 0)
(0.000983626 6.57373e-08 0 4.39333e-12 0 0)
(0.000987036 -4.60802e-08 0 2.15127e-12 0 0)
(0.000986954 -7.86711e-08 0 6.27095e-12 0 0)
(0.000983267 6.91587e-08 0 4.86432e-12 0 0)
(0.000956914 7.28578e-08 0 5.54727e-12 0 0)
(0.000959739 -5.99644e-08 0 3.74658e-12 0 0)
(0.000959619 -5.67407e-08 0 3.35498e-12 0 0)
(0.000956478 7.87173e-08 0 6.47836e-12 0 0)
(0.000924588 5.51437e-08 0 3.28885e-12 0 0)
(0.000927028 -5.9877e-08 0 3.86747e-12 0 0)
(0.000926886 -5.13111e-08 0 2.84051e-12 0 0)
(0.000924129 8.0891e-08 0 7.08056e-12 0 0)
(0.000886406 4.88415e-08 0 2.6912e-12 0 0)
(0.000888232 -7.1451e-08 0 5.74765e-12 0 0)
(0.000888074 -3.90937e-08 0 1.72094e-12 0 0)
(0.000885766 8.39273e-08 0 7.95219e-12 0 0)
(0.000841581 4.38601e-08 0 2.28583e-12 0 0)
(0.000842876 -6.84062e-08 0 5.55172e-12 0 0)