/*--------------------------------*- C++ -*----------------------------------*\
  =========                 |
  \\      /  F ield         | OpenFOAM: The Open Source CFD Toolbox
   \\    /   O peration     | Website:  https://openfoam.org
    \\  /    A nd           | Version:  dev
     \\/     M anipulation  |

   OpenFOAM for Windows 20.09 (v1)
   Built by CFD Support, www.cfdsupport.com (based on Symscape).
\*---------------------------------------------------------------------------*/
FoamFile
{
    version     2.0;
    format      ascii;
    class       surfaceScalarField;
    location    "4";
    object      alphaPhi0.water;
}
// * * * * * * * * * * * * * * * * * * * * * * * * * * * * * * * * * * * * * //

dimensions      [0 3 -1 0 0 0 0];

internalField   nonuniform List<scalar> 
217
(
4.30349e-46
-1.8117e-50
2.88605e-46
3.91701e-51
2.86735e-46
7.77032e-50
2.4787e-51
2.87454e-46
2.04472e-48
-6.24689e-53
1.05116e-48
2.65478e-52
1.14538e-48
3.55726e-53
1.47022e-53
1.2474e-48
8.02535e-51
-1.90909e-55
4.37438e-51
9.2612e-56
4.41307e-51
1.06026e-55
5.11886e-56
4.57158e-51
2.77491e-53
-5.21125e-58
1.47562e-53
2.92049e-58
1.42676e-53
2.92362e-58
1.53602e-58
1.48998e-53
8.7092e-56
-1.27008e-60
4.74422e-56
8.39775e-61
4.10971e-56
7.28017e-61
3.93218e-61
4.26253e-56
2.48531e-58
-2.81564e-63
1.56391e-58
2.18868e-63
1.24229e-58
1.65261e-63
8.49658e-64
9.4515e-59
6.43146e-61
-5.623e-66
4.63103e-61
5.33506e-66
3.39093e-61
2.69714e-66
1.90823e-66
2.53925e-61
1.56291e-63
-1.02367e-68
1.25685e-63
1.25134e-67
8.78089e-64
3.10936e-69
3.84548e-69
6.01945e-64
3.66018e-66
-1.61843e-71
3.1748e-66
7.18212e-70
2.13529e-66
1.43476e-73
7.89461e-72
1.30807e-66
8.16291e-69
-2.08414e-74
7.43902e-69
2.34409e-72
4.87446e-69
-1.50012e-74
1.91818e-74
2.89449e-69
1.77721e-71
-1.54449e-77
1.73258e-71
6.60007e-75
1.17277e-71
-7.31631e-77
4.76152e-77
7.00937e-72
4.00421e-74
3.46429e-80
4.07035e-74
1.62481e-77
2.88598e-74
-2.73595e-79
1.13055e-79
1.75791e-74
8.55087e-77
2.38886e-82
9.94217e-77
4.00466e-80
7.33158e-77
-9.45059e-82
2.75364e-82
4.58196e-77
1.85261e-79
9.49818e-85
2.53011e-79
1.10008e-82
1.93761e-79
-3.14605e-84
6.8438e-85
1.24043e-79
4.55795e-82
6.64391e-82
5.30509e-82
3.46654e-82
4.09879e-46
6.273e-51
7.1553e-46
-3.34486e-50
7.69403e-46
-2.485e-50
4.42447e-49
1.65328e-48
3.33973e-53
2.43548e-48
-1.02967e-52
2.66421e-48
-7.67916e-53
2.12058e-51
5.25537e-51
9.29543e-56
7.43663e-51
-2.92469e-55
8.32523e-51
-2.23073e-55
8.13013e-54
1.52045e-53
2.65769e-58
2.1352e-53
-7.59212e-58
2.44292e-53
-5.9645e-58
2.69631e-56
4.54997e-56
1.53848e-59
5.65667e-56
-1.90382e-60
6.55299e-56
-1.55466e-60
7.6442e-59
1.28491e-58
8.93107e-62
1.46483e-58
-4.58888e-63
1.71272e-58
-3.93153e-63
1.76244e-61
3.45637e-61
3.15366e-64
3.7145e-61
-1.07728e-65
4.38056e-61
-9.65442e-66
3.07238e-64
9.15748e-64
1.01214e-66
9.27948e-64
-2.49444e-68
1.08032e-63
-2.4065e-68
2.44867e-67
2.31575e-66
2.88458e-69
2.33109e-66
-5.64612e-71
2.7564e-66
-5.93521e-71
3.24372e-71
5.76732e-69
7.4541e-72
5.80365e-69
-1.26086e-73
6.9227e-69
-1.46581e-73
1.67816e-73
1.44331e-71
1.88453e-74
1.45255e-71
-2.8224e-76
1.75303e-71
-3.65908e-76
1.33372e-76
3.66357e-74
4.81203e-77
3.69774e-74
-6.25315e-79
4.43614e-74
-9.38673e-79
1.8809e-79
9.43009e-77
1.22595e-79
9.5513e-77
-1.3893e-81
1.17966e-76
-2.47781e-81
1.73813e-82
2.47909e-79
3.09584e-82
2.52625e-79
-3.08532e-84
3.18091e-79
-6.54023e-84
-3.03784e-85
6.56783e-82
6.76362e-82
8.5912e-82
)
;

boundaryField
{
    topWall
    {
        type            calculated;
        value           nonuniform List<scalar> 0();
    }
    botWall
    {
        type            calculated;
        value           nonuniform List<scalar> 0();
    }
    inlet
    {
        type            cyclic;
        value           nonuniform List<scalar> 
15
(
-1.23835e-45
-4.27859e-48
-1.43712e-50
-4.55534e-53
-1.34165e-55
-3.63953e-58
-9.07641e-61
-2.09661e-63
-4.50678e-66
-9.12059e-69
-1.87632e-71
-4.76796e-74
-1.24551e-76
-3.27749e-79
-8.7641e-82
)
;
    }
    outlet
    {
        type            cyclic;
        value           nonuniform List<scalar> 
15
(
1.23835e-45
4.27859e-48
1.43712e-50
4.55534e-53
1.34165e-55
3.63953e-58
9.07641e-61
2.09661e-63
4.50678e-66
9.12059e-69
1.87632e-71
4.76796e-74
1.24551e-76
3.27749e-79
8.7641e-82
)
;
    }
    fixWall
    {
        type            empty;
        value           nonuniform List<scalar> 0();
    }
    procBoundary5to4
    {
        type            processor;
        value           nonuniform List<scalar> 8(3.98281e-48 -7.60906e-47 -5.90761e-46 -9.99949e-49 -2.54977e-48 9.629e-48 7.28195e-48 -1.20614e-46);
    }
    procBoundary5to6
    {
        type            processor;
        value           nonuniform List<scalar> 8(7.42963e-86 1.03373e-84 -7.40902e-87 1.27778e-87 1.49374e-84 -4.99838e-87 -7.45142e-87 -7.65732e-88);
    }
}


// ************************************************************************* //
