/*--------------------------------*- C++ -*----------------------------------*\
  =========                 |
  \\      /  F ield         | OpenFOAM: The Open Source CFD Toolbox
   \\    /   O peration     | Website:  https://openfoam.org
    \\  /    A nd           | Version:  dev
     \\/     M anipulation  |

   OpenFOAM for Windows 20.09 (v1)
   Built by CFD Support, www.cfdsupport.com (based on Symscape).
\*---------------------------------------------------------------------------*/
FoamFile
{
    version     2.0;
    format      ascii;
    class       volSymmTensorField;
    location    "4";
    object      devReff;
}
// * * * * * * * * * * * * * * * * * * * * * * * * * * * * * * * * * * * * * //

dimensions      [0 2 -2 0 0 0 0];

internalField   nonuniform List<symmTensor> 
120
(
(2.61931e-07 -0.000503614 -0 -1.01267e-07 -0 -1.60664e-07)
(-1.29288e-07 -0.000497884 -0 2.37099e-07 -0 -1.07812e-07)
(-7.78215e-07 -0.000502449 -0 7.81263e-07 -0 -3.04851e-09)
(1.48146e-07 -0.000503521 -0 2.85497e-09 -0 -1.51001e-07)
(5.51635e-07 -0.000400423 -0 -6.27825e-07 -0 7.61898e-08)
(1.12367e-07 -0.000394884 -0 -2.26103e-07 -0 1.13736e-07)
(-8.26019e-07 -0.000398577 -0 7.94779e-07 -0 3.12396e-08)
(3.89559e-07 -0.000399324 -0 -4.5576e-07 -0 6.62013e-08)
(5.15352e-07 -0.000315446 -0 -5.03128e-07 -0 -1.22238e-08)
(-6.03138e-09 -0.000310677 -0 5.27624e-08 -0 -4.6731e-08)
(-9.10571e-07 -0.000313622 -0 8.96757e-07 -0 1.38141e-08)
(2.611e-07 -0.000314201 -0 -2.15121e-07 -0 -4.59792e-08)
(5.19397e-07 -0.00024637 -0 -4.70496e-07 -0 -4.89009e-08)
(1.27717e-07 -0.000242417 -0 -1.95052e-07 -0 6.73359e-08)
(-1.03477e-06 -0.00024474 -0 1.09382e-06 -0 -5.90547e-08)
(3.11652e-07 -0.000245057 -0 -3.37891e-07 -0 2.62385e-08)
(6.75762e-07 -0.000191224 -0 -7.4355e-07 -0 6.77884e-08)
(1.49504e-07 -0.000187633 -0 -2.03364e-07 -0 5.38602e-08)
(-9.82419e-07 -0.000189352 -0 9.52084e-07 -0 3.03348e-08)
(2.5739e-07 -0.00018951 -0 -2.97723e-07 -0 4.03336e-08)
(5.73829e-07 -0.000146948 -0 -5.01799e-07 -0 -7.20302e-08)
(1.02912e-07 -0.000143986 -0 -8.22046e-08 -0 -2.07076e-08)
(-1.0619e-06 -0.00014517 -0 1.08541e-06 -0 -2.35039e-08)
(9.20554e-08 -0.000145115 -0 -1.41962e-08 -0 -7.78592e-08)
(6.90098e-07 -0.00011193 -0 -7.08985e-07 -0 1.88867e-08)
(1.73621e-07 -0.000109598 -0 -1.91898e-07 -0 1.82773e-08)
(-1.02617e-06 -0.000110236 -0 1.00245e-06 -0 2.37199e-08)
(1.27603e-07 -0.000110055 -0 -1.80593e-07 -0 5.29904e-08)
(6.28176e-07 -8.41759e-05 -0 -5.62347e-07 -0 -6.58295e-08)
(1.94548e-07 -8.26142e-05 -0 -2.08468e-07 -0 1.39199e-08)
(-1.07026e-06 -8.27736e-05 -0 1.08765e-06 -0 -1.73861e-08)
(-4.90804e-08 -8.2404e-05 -0 1.16067e-07 -0 -6.69864e-08)
(7.40755e-07 -6.2355e-05 -0 -7.80609e-07 -0 3.98541e-08)
(2.35527e-07 -6.17296e-05 -0 -2.68797e-07 -0 3.32694e-08)
(-1.03761e-06 -6.13676e-05 -0 1.03365e-06 -0 3.96657e-09)
(-5.94913e-08 -6.09627e-05 -0 1.55806e-08 -0 4.39106e-08)
(6.8475e-07 -4.52996e-05 -0 -6.7228e-07 -0 -1.24696e-08)
(2.85561e-07 -4.5487e-05 -0 -3.57452e-07 -0 7.18901e-08)
(-1.02089e-06 -4.46922e-05 -0 1.01609e-06 -0 4.80506e-09)
(-1.68769e-07 -4.40929e-05 -0 2.00733e-07 -0 -3.19639e-08)
(5.73409e-07 -3.18395e-05 -0 -4.61622e-07 -0 -1.11787e-07)
(1.46547e-07 -3.30802e-05 -0 -7.08089e-08 -0 -7.57378e-08)
(-1.01785e-06 -3.17586e-05 -0 1.04273e-06 -0 -2.4878e-08)
(-1.84587e-07 -3.12281e-05 -0 1.77833e-07 -0 6.75354e-09)
(7.16635e-07 -2.12321e-05 -0 -7.81259e-07 -0 6.46235e-08)
(2.75242e-07 -2.33319e-05 -0 -3.34479e-07 -0 5.92371e-08)
(-9.15522e-07 -2.16072e-05 -0 8.69488e-07 -0 4.60337e-08)
(-2.16756e-07 -2.07802e-05 -0 2.45487e-07 -0 -2.87309e-08)
(6.09566e-07 -1.25887e-05 -0 -5.97161e-07 -0 -1.24048e-08)
(2.53347e-07 -1.58574e-05 -0 -2.97557e-07 -0 4.421e-08)
(-8.89724e-07 -1.35233e-05 -0 8.74349e-07 -0 1.53749e-08)
(-2.02128e-07 -1.29782e-05 -0 1.9501e-07 -0 7.11818e-09)
(4.19548e-07 -5.29303e-06 -0 -2.84761e-07 -0 -1.34787e-07)
(1.00347e-07 -9.59573e-06 -0 -1.66666e-08 -0 -8.368e-08)
(-9.17432e-07 -6.81748e-06 -0 9.72459e-07 -0 -5.50274e-08)
(-2.05595e-07 -5.83494e-06 -0 2.18822e-07 -0 -1.32264e-08)
(6.049e-07 1.15693e-06 -0 -7.0681e-07 -0 1.0191e-07)
(3.49509e-07 -4.57811e-06 -0 -5.4182e-07 -0 1.92311e-07)
(-8.01747e-07 -9.19786e-07 -0 8.27163e-07 -0 -2.54162e-08)
(-1.42514e-07 -2.63974e-07 -0 1.07518e-07 -0 3.49959e-08)
(5.07495e-07 -0.000500451 -0 -6.21482e-07 -0 1.13988e-07)
(-1.18185e-07 -0.000499317 -0 2.41572e-08 -0 9.40276e-08)
(1.09374e-07 -0.000495869 -0 -2.59685e-07 -0 1.50311e-07)
(-2.57243e-07 -0.000501842 -0 4.49027e-07 -0 -1.91784e-07)
(2.90981e-07 -0.000398288 -0 -1.38454e-07 -0 -1.52527e-07)
(-2.67588e-07 -0.000396667 -0 4.17812e-07 -0 -1.50224e-07)
(-1.21237e-07 -0.000391548 -0 1.80779e-07 -0 -5.95416e-08)
(-1.38229e-07 -0.000398023 -0 7.18324e-08 -0 6.63961e-08)
(5.7659e-07 -0.000314693 -0 -6.72907e-07 -0 9.63172e-08)
(1.03582e-07 -0.000312734 -0 -1.90697e-07 -0 8.71149e-08)
(-2.97774e-08 -0.000307321 -0 -2.39083e-08 -0 5.36856e-08)
(-4.08142e-07 -0.000313469 -0 4.52038e-07 -0 -4.38961e-08)
(4.55222e-07 -0.000247388 -0 -4.19709e-07 -0 -3.55125e-08)
(4.69111e-08 -0.000245558 -0 3.88054e-08 -0 -8.57165e-08)
(-1.35225e-07 -0.000239409 -0 1.87129e-07 -0 -5.19038e-08)
(-4.11871e-07 -0.000244833 -0 3.4532e-07 -0 6.65512e-08)
(4.46752e-07 -0.000192744 -0 -4.3242e-07 -0 -1.43322e-08)
(2.96847e-07 -0.000191026 -0 -3.07476e-07 -0 1.06288e-08)
(-7.72902e-08 -0.000184904 -0 9.82762e-08 -0 -2.0986e-08)
(-5.51859e-07 -0.000189985 -0 5.04799e-07 -0 4.70592e-08)
(4.59059e-07 -0.00014939 -0 -4.8018e-07 -0 2.11212e-08)
(3.8737e-07 -0.000148224 -0 -3.76424e-07 -0 -1.09455e-08)
(1.29514e-08 -0.000141799 -0 -7.12988e-08 -0 5.83474e-08)
(-7.3791e-07 -0.00014591 -0 7.8397e-07 -0 -4.60604e-08)
(3.34619e-07 -0.000114728 -0 -3.14796e-07 -0 -1.98233e-08)
(5.71684e-07 -0.0001137 -0 -6.00545e-07 -0 2.88612e-08)
(5.24664e-08 -0.000107641 -0 -8.06992e-08 -0 2.82327e-08)
(-7.68702e-07 -0.000111083 -0 7.64625e-07 -0 4.07685e-09)
(3.30487e-07 -8.80639e-05 -0 -3.47374e-07 -0 1.68867e-08)
(6.20289e-07 -8.76458e-05 -0 -6.02107e-07 -0 -1.81818e-08)
(5.95172e-08 -8.12841e-05 -0 -7.37631e-08 -0 1.42459e-08)
(-8.45342e-07 -8.35508e-05 -0 8.53679e-07 -0 -8.3375e-09)
(1.54489e-07 -6.59509e-05 -0 -1.32662e-07 -0 -2.18268e-08)
(7.67569e-07 -6.5372e-05 -0 -7.63255e-07 -0 -4.31392e-09)
(1.76558e-07 -6.03958e-05 -0 -1.88752e-07 -0 1.21945e-08)
(-8.57865e-07 -6.18837e-05 -0 8.44991e-07 -0 1.28739e-08)
(1.60478e-07 -4.72885e-05 -0 -1.57634e-07 -0 -2.84342e-09)
(7.98564e-07 -4.71609e-05 -0 -7.70205e-07 -0 -2.83593e-08)
(1.95335e-07 -4.464e-05 -0 -2.25512e-07 -0 3.01774e-08)
(-8.29729e-07 -4.50824e-05 -0 7.55668e-07 -0 7.40609e-08)
(3.99048e-08 -3.32509e-05 -0 -9.45682e-09 -0 -3.0448e-08)
(8.37964e-07 -3.27541e-05 -0 -8.13337e-07 -0 -2.46266e-08)
(1.15468e-07 -3.2133e-05 -0 6.49123e-09 -0 -1.21959e-07)
(-1.05153e-06 -3.17989e-05 -0 1.20952e-06 -0 -1.57995e-07)
(1.72698e-07 -2.21119e-05 -0 -2.36543e-07 -0 6.38453e-08)
(9.80151e-07 -2.20248e-05 -0 -1.0935e-06 -0 1.13349e-07)
(4.39892e-07 -2.27785e-05 -0 -6.79092e-07 -0 2.39201e-07)
(-7.98863e-07 -2.15176e-05 -0 7.02944e-07 -0 9.59192e-08)
(-4.26814e-08 -1.36272e-05 -0 1.10214e-07 -0 -6.7533e-08)
(7.17607e-07 -1.28437e-05 -0 -5.93285e-07 -0 -1.24322e-07)
(1.59043e-07 -1.50413e-05 -0 -5.98087e-08 -0 -9.92342e-08)
(-8.45735e-07 -1.30153e-05 -0 8.49651e-07 -0 -3.91531e-09)
(1.50571e-07 -5.84284e-06 -0 -1.91543e-07 -0 4.09724e-08)
(9.45732e-07 -5.22436e-06 -0 -1.0701e-06 -0 1.24369e-07)
(2.01107e-07 -8.88094e-06 -0 -2.03743e-07 -0 2.63616e-09)
(-9.49256e-07 -6.12592e-06 -0 1.08549e-06 -0 -1.36235e-07)
(5.6682e-08 5.21773e-07 -0 -7.23248e-08 -0 1.56427e-08)
(7.43886e-07 2.22916e-06 -0 -7.46104e-07 -0 2.21772e-09)
(4.39907e-07 -3.15393e-06 -0 -6.47513e-07 -0 2.07605e-07)
(-3.6516e-07 3.11436e-07 -0 8.96344e-09 -0 3.56197e-07)
)
;

boundaryField
{
    topWall
    {
        type            calculated;
        value           nonuniform List<symmTensor> 0();
    }
    botWall
    {
        type            calculated;
        value           nonuniform List<symmTensor> 0();
    }
    inlet
    {
        type            cyclic;
    }
    outlet
    {
        type            cyclic;
    }
    fixWall
    {
        type            empty;
    }
    procBoundary5to4
    {
        type            processor;
        value           nonuniform List<symmTensor> 8((4.14614e-07 -0.000627164 -0 -4.86138e-07 -0 7.15231e-08) (-9.16097e-08 -0.000622745 -0 1.42045e-07 -0 -5.04349e-08) (-5.94504e-07 -0.000628418 -0 5.21234e-07 -0 7.32706e-08) (3.07269e-07 -0.000629629 -0 -3.55873e-07 -0 4.86048e-08) (2.19865e-07 -0.000624953 -0 -1.34963e-07 -0 -8.49027e-08) (-2.10579e-07 -0.000624607 -0 1.4726e-07 -0 6.33182e-08) (1.56099e-07 -0.000624352 -0 -2.92283e-07 -0 1.36184e-07) (-1.11246e-09 -0.000628189 -0 5.86327e-08 -0 -5.75203e-08));
    }
    procBoundary5to6
    {
        type            processor;
        value           nonuniform List<symmTensor> 8((2.71319e-07 7.74323e-06 -0 -1.5454e-07 -0 -1.1678e-07) (1.12793e-07 6.05074e-07 -0 -1.11977e-07 -0 -8.16704e-10) (-7.80615e-07 4.82815e-06 -0 8.46487e-07 -0 -6.58721e-08) (-1.16561e-07 7.91881e-06 -0 8.83664e-08 -0 2.81949e-08) (4.11906e-08 7.64996e-06 -0 1.06224e-07 -0 -1.47415e-07) (5.55349e-07 7.99203e-06 -0 -4.11225e-07 -0 -1.44124e-07) (-2.61906e-07 2.34988e-06 -0 6.61851e-07 -0 -3.99945e-07) (-8.25253e-07 6.26724e-06 -0 9.8218e-07 -0 -1.56926e-07));
    }
}


// ************************************************************************* //
