/*--------------------------------*- C++ -*----------------------------------*\
  =========                 |
  \\      /  F ield         | OpenFOAM: The Open Source CFD Toolbox
   \\    /   O peration     | Website:  https://openfoam.org
    \\  /    A nd           | Version:  dev
     \\/     M anipulation  |

   OpenFOAM for Windows 20.09 (v1)
   Built by CFD Support, www.cfdsupport.com (based on Symscape).
\*---------------------------------------------------------------------------*/
FoamFile
{
    version     2.0;
    format      ascii;
    class       volScalarField;
    location    "4";
    object      epsilon;
}
// * * * * * * * * * * * * * * * * * * * * * * * * * * * * * * * * * * * * * //

dimensions      [0 2 -3 0 0 0 0];

internalField   nonuniform List<scalar> 
120
(
4.45299e-16
4.44279e-16
4.44579e-16
4.44792e-16
4.1889e-16
4.17888e-16
4.18161e-16
4.18238e-16
3.97575e-16
3.96562e-16
3.96824e-16
3.96767e-16
3.83763e-16
3.83558e-16
3.83359e-16
3.8344e-16
3.84893e-16
3.84684e-16
3.84475e-16
3.84551e-16
3.87804e-16
3.87592e-16
3.87376e-16
3.87449e-16
3.9251e-16
3.92296e-16
3.92078e-16
3.92147e-16
3.99053e-16
3.98838e-16
3.98621e-16
3.98686e-16
4.07505e-16
4.07289e-16
4.07076e-16
4.07138e-16
4.17967e-16
4.17751e-16
4.17545e-16
4.17603e-16
4.30575e-16
4.30359e-16
4.30162e-16
4.30217e-16
4.45498e-16
4.45282e-16
4.45096e-16
4.45148e-16
4.62946e-16
4.62731e-16
4.62559e-16
4.62607e-16
4.83176e-16
4.8296e-16
4.82804e-16
4.82847e-16
5.06494e-16
5.06277e-16
5.06137e-16
5.06176e-16
4.4524e-16
4.44393e-16
4.45119e-16
4.44319e-16
4.18852e-16
4.17868e-16
4.18747e-16
4.17809e-16
3.97567e-16
3.96414e-16
3.97496e-16
3.96356e-16
3.83373e-16
3.83278e-16
3.83283e-16
3.83316e-16
3.84488e-16
3.84401e-16
3.84406e-16
3.84434e-16
3.87387e-16
3.8731e-16
3.87315e-16
3.87338e-16
3.92084e-16
3.92016e-16
3.92023e-16
3.92042e-16
3.98622e-16
3.98563e-16
3.98572e-16
3.98588e-16
4.07071e-16
4.07021e-16
4.07032e-16
4.07046e-16
4.17534e-16
4.17492e-16
4.17504e-16
4.17518e-16
4.30145e-16
4.3011e-16
4.30125e-16
4.30139e-16
4.45075e-16
4.45047e-16
4.45063e-16
4.45078e-16
4.62532e-16
4.62511e-16
4.62528e-16
4.62545e-16
4.82773e-16
4.82757e-16
4.82775e-16
4.82794e-16
5.06103e-16
5.06092e-16
5.0611e-16
5.06132e-16
)
;

boundaryField
{
    topWall
    {
        type            epsilonWallFunction;
        value           nonuniform List<scalar> 0();
    }
    botWall
    {
        type            epsilonWallFunction;
        value           nonuniform List<scalar> 0();
    }
    inlet
    {
        type            cyclic;
    }
    outlet
    {
        type            cyclic;
    }
    fixWall
    {
        type            empty;
    }
    procBoundary5to4
    {
        type            processor;
        value           nonuniform List<scalar> 8(4.77514e-16 4.76457e-16 4.76808e-16 4.77168e-16 4.77476e-16 4.76747e-16 4.77346e-16 4.76629e-16);
    }
    procBoundary5to6
    {
        type            processor;
        value           nonuniform List<scalar> 8(5.32432e-16 5.32229e-16 5.32105e-16 5.32141e-16 5.32069e-16 5.3206e-16 5.32082e-16 5.32104e-16);
    }
}


// ************************************************************************* //
