/*--------------------------------*- C++ -*----------------------------------*\
  =========                 |
  \\      /  F ield         | OpenFOAM: The Open Source CFD Toolbox
   \\    /   O peration     | Website:  https://openfoam.org
    \\  /    A nd           | Version:  dev
     \\/     M anipulation  |

   OpenFOAM for Windows 20.09 (v1)
   Built by CFD Support, www.cfdsupport.com (based on Symscape).
\*---------------------------------------------------------------------------*/
FoamFile
{
    version     2.0;
    format      ascii;
    class       volVectorField;
    location    "4";
    object      gradp_rgh;
}
// * * * * * * * * * * * * * * * * * * * * * * * * * * * * * * * * * * * * * //

dimensions      [1 -2 -2 0 0 0 0];

internalField   nonuniform List<vector> 
120
(
(-1.24905 0.0146073 0)
(-1.24669 0.00569374 0)
(-1.24373 0.00561602 0)
(-1.24732 -0.00236422 0)
(-1.24901 0.0141967 0)
(-1.24676 0.00489379 0)
(-1.2438 0.00676273 0)
(-1.24738 -0.00383446 0)
(-1.24894 0.0142989 0)
(-1.24682 0.00470981 0)
(-1.24388 0.00760438 0)
(-1.24746 -0.00450413 0)
(-1.24888 0.0143311 0)
(-1.24687 0.00483767 0)
(-1.24395 0.00787509 0)
(-1.24755 -0.00470376 0)
(-1.24881 0.0146019 0)
(-1.24693 0.00533152 0)
(-1.24403 0.00795268 0)
(-1.24763 -0.00444999 0)
(-1.24874 0.0148111 0)
(-1.24698 0.00552775 0)
(-1.24412 0.00807368 0)
(-1.24773 -0.00438156 0)
(-1.24867 0.0147972 0)
(-1.24704 0.0054283 0)
(-1.2442 0.0082049 0)
(-1.24782 -0.00436112 0)
(-1.2486 0.0147234 0)
(-1.24709 0.00531211 0)
(-1.24428 0.00834743 0)
(-1.24791 -0.00433076 0)
(-1.24854 0.0146857 0)
(-1.24714 0.00522347 0)
(-1.24436 0.00844086 0)
(-1.248 -0.00430032 0)
(-1.24847 0.0146059 0)
(-1.2472 0.00511655 0)
(-1.24444 0.00855691 0)
(-1.24809 -0.004198 0)
(-1.2484 0.0139936 0)
(-1.24725 0.00454096 0)
(-1.24452 0.00858712 0)
(-1.24818 -0.00419757 0)
(-1.24833 0.0134341 0)
(-1.24729 0.00385613 0)
(-1.24458 0.00861597 0)
(-1.24827 -0.00418915 0)
(-1.24827 0.0129168 0)
(-1.24733 0.00352918 0)
(-1.24465 0.00840566 0)
(-1.24836 -0.00407681 0)
(-1.24821 0.0116801 0)
(-1.24736 0.00317102 0)
(-1.24471 0.00740139 0)
(-1.24843 -0.00375281 0)
(-1.24816 0.0103777 0)
(-1.2474 0.00346079 0)
(-1.24476 0.0057704 0)
(-1.2485 -0.00320835 0)
(-1.25407 -0.000915497 0)
(-1.25751 0.00098768 0)
(-1.25314 0.00650356 0)
(-1.24847 0.000829151 0)
(-1.25403 -0.00154845 0)
(-1.25743 0.000702834 0)
(-1.25316 0.00828132 0)
(-1.24842 -0.00175795 0)
(-1.254 -0.00216937 0)
(-1.25734 9.71467e-05 0)
(-1.25319 0.0088714 0)
(-1.24838 -0.00303474 0)
(-1.25396 -0.00239654 0)
(-1.25725 -0.00048887 0)
(-1.25321 0.00865915 0)
(-1.24833 -0.00331734 0)
(-1.25393 -0.00271819 0)
(-1.25716 -0.00117435 0)
(-1.25323 0.00796187 0)
(-1.24828 -0.0028908 0)
(-1.2539 -0.00281665 0)
(-1.25707 -0.00151524 0)
(-1.25324 0.00761989 0)
(-1.24822 -0.00267613 0)
(-1.25388 -0.00279233 0)
(-1.25698 -0.00159943 0)
(-1.25325 0.00764676 0)
(-1.24816 -0.00273963 0)
(-1.25386 -0.00270505 0)
(-1.2569 -0.00162576 0)
(-1.25326 0.00767739 0)
(-1.2481 -0.00280986 0)
(-1.25383 -0.00259165 0)
(-1.25681 -0.00173935 0)
(-1.25327 0.00764761 0)
(-1.24804 -0.002863 0)
(-1.25381 -0.00247833 0)
(-1.25673 -0.00182724 0)
(-1.25328 0.00759492 0)
(-1.24798 -0.00290822 0)
(-1.25379 -0.0022555 0)
(-1.25664 -0.0016967 0)
(-1.25329 0.00742014 0)
(-1.24793 -0.00352761 0)
(-1.25377 -0.00175655 0)
(-1.25657 -0.000999016 0)
(-1.25331 0.00798407 0)
(-1.24787 -0.00403157 0)
(-1.25374 -0.0013041 0)
(-1.25648 -0.000390572 0)
(-1.25334 0.0086002 0)
(-1.24784 -0.0038646 0)
(-1.25371 -0.000960791 0)
(-1.2564 0.000207656 0)
(-1.25337 0.00839447 0)
(-1.2478 -0.00356472 0)
(-1.25367 -0.000628271 0)
(-1.25633 0.000791641 0)
(-1.2534 0.00818842 0)
(-1.24778 -0.00194492 0)
)
;

boundaryField
{
    topWall
    {
        type            extrapolatedCalculated;
        value           nonuniform List<vector> 0();
    }
    botWall
    {
        type            extrapolatedCalculated;
        value           nonuniform List<vector> 0();
    }
    inlet
    {
        type            cyclic;
    }
    outlet
    {
        type            cyclic;
    }
    fixWall
    {
        type            empty;
    }
    procBoundary5to4
    {
        type            processor;
        value           nonuniform List<vector> 8((-1.24909 0.0150315 0) (-1.24661 0.00701382 0) (-1.24367 0.00424106 0) (-1.24728 -0.000614599 0) (-1.25409 -0.000469761 0) (-1.25756 0.000609862 0) (-1.25316 0.00385774 0) (-1.24856 0.00402104 0));
    }
    procBoundary5to6
    {
        type            processor;
        value           nonuniform List<vector> 8((-1.24812 0.00883168 0) (-1.24744 0.00398569 0) (-1.24482 0.00391263 0) (-1.24854 -0.00255676 0) (-1.25364 -0.000903005 0) (-1.25625 0.000479031 0) (-1.25341 0.00645269 0) (-1.24777 -0.000355749 0));
    }
}


// ************************************************************************* //
