/*--------------------------------*- C++ -*----------------------------------*\
  =========                 |
  \\      /  F ield         | OpenFOAM: The Open Source CFD Toolbox
   \\    /   O peration     | Website:  https://openfoam.org
    \\  /    A nd           | Version:  dev
     \\/     M anipulation  |

   OpenFOAM for Windows 20.09 (v1)
   Built by CFD Support, www.cfdsupport.com (based on Symscape).
\*---------------------------------------------------------------------------*/
FoamFile
{
    version     2.0;
    format      ascii;
    class       volVectorField;
    location    "4";
    object      gradp;
}
// * * * * * * * * * * * * * * * * * * * * * * * * * * * * * * * * * * * * * //

dimensions      [1 -2 -2 0 0 0 0];

internalField   nonuniform List<vector> 
120
(
(3.75095 -9.79539 0)
(-1.24669 -9.80431 0)
(-1.24373 -9.80438 0)
(-1.24732 -9.81236 0)
(3.75099 -9.7958 0)
(-1.24676 -9.80511 0)
(-1.2438 -9.80324 0)
(-1.24738 -9.81383 0)
(3.75106 -9.7957 0)
(-1.24682 -9.80529 0)
(-1.24388 -9.8024 0)
(-1.24746 -9.8145 0)
(3.75112 -9.79567 0)
(-1.24687 -9.80516 0)
(-1.24395 -9.80212 0)
(-1.24755 -9.8147 0)
(3.75119 -9.7954 0)
(-1.24693 -9.80467 0)
(-1.24403 -9.80205 0)
(-1.24763 -9.81445 0)
(3.75126 -9.79519 0)
(-1.24698 -9.80447 0)
(-1.24412 -9.80193 0)
(-1.24773 -9.81438 0)
(3.75133 -9.7952 0)
(-1.24704 -9.80457 0)
(-1.2442 -9.8018 0)
(-1.24782 -9.81436 0)
(3.7514 -9.79528 0)
(-1.24709 -9.80469 0)
(-1.24428 -9.80165 0)
(-1.24791 -9.81433 0)
(3.75146 -9.79531 0)
(-1.24714 -9.80478 0)
(-1.24436 -9.80156 0)
(-1.248 -9.8143 0)
(3.75153 -9.79539 0)
(-1.2472 -9.80488 0)
(-1.24444 -9.80144 0)
(-1.24809 -9.8142 0)
(3.7516 -9.79601 0)
(-1.24725 -9.80546 0)
(-1.24452 -9.80141 0)
(-1.24818 -9.8142 0)
(3.75167 -9.79657 0)
(-1.24729 -9.80614 0)
(-1.24458 -9.80138 0)
(-1.24827 -9.81419 0)
(3.75173 -9.79708 0)
(-1.24733 -9.80647 0)
(-1.24465 -9.80159 0)
(-1.24836 -9.81408 0)
(3.75179 -9.79832 0)
(-1.24736 -9.80683 0)
(-1.24471 -9.8026 0)
(-1.24843 -9.81375 0)
(3.75184 -9.79962 0)
(-1.2474 -9.80654 0)
(-1.24476 -9.80423 0)
(-1.2485 -9.81321 0)
(-1.25407 -9.81092 0)
(-1.25751 -9.80901 0)
(-1.25314 -9.8035 0)
(3.75153 -9.80917 0)
(-1.25403 -9.81155 0)
(-1.25743 -9.8093 0)
(-1.25316 -9.80172 0)
(3.75158 -9.81176 0)
(-1.254 -9.81217 0)
(-1.25734 -9.8099 0)
(-1.25319 -9.80113 0)
(3.75162 -9.81303 0)
(-1.25396 -9.8124 0)
(-1.25725 -9.81049 0)
(-1.25321 -9.80134 0)
(3.75167 -9.81332 0)
(-1.25393 -9.81272 0)
(-1.25716 -9.81117 0)
(-1.25323 -9.80204 0)
(3.75172 -9.81289 0)
(-1.2539 -9.81282 0)
(-1.25707 -9.81152 0)
(-1.25324 -9.80238 0)
(3.75178 -9.81268 0)
(-1.25388 -9.81279 0)
(-1.25698 -9.8116 0)
(-1.25325 -9.80235 0)
(3.75184 -9.81274 0)
(-1.25386 -9.81271 0)
(-1.2569 -9.81163 0)
(-1.25326 -9.80232 0)
(3.7519 -9.81281 0)
(-1.25383 -9.81259 0)
(-1.25681 -9.81174 0)
(-1.25327 -9.80235 0)
(3.75196 -9.81286 0)
(-1.25381 -9.81248 0)
(-1.25673 -9.81183 0)
(-1.25328 -9.80241 0)
(3.75202 -9.81291 0)
(-1.25379 -9.81226 0)
(-1.25664 -9.8117 0)
(-1.25329 -9.80258 0)
(3.75207 -9.81353 0)
(-1.25377 -9.81176 0)
(-1.25657 -9.811 0)
(-1.25331 -9.80202 0)
(3.75213 -9.81403 0)
(-1.25374 -9.8113 0)
(-1.25648 -9.81039 0)
(-1.25334 -9.8014 0)
(3.75216 -9.81386 0)
(-1.25371 -9.81096 0)
(-1.2564 -9.80979 0)
(-1.25337 -9.80161 0)
(3.7522 -9.81356 0)
(-1.25367 -9.81063 0)
(-1.25633 -9.80921 0)
(-1.2534 -9.80181 0)
(3.75222 -9.81194 0)
)
;

boundaryField
{
    topWall
    {
        type            extrapolatedCalculated;
        value           nonuniform List<vector> 0();
    }
    botWall
    {
        type            extrapolatedCalculated;
        value           nonuniform List<vector> 0();
    }
    inlet
    {
        type            cyclic;
    }
    outlet
    {
        type            cyclic;
    }
    fixWall
    {
        type            empty;
    }
    procBoundary5to4
    {
        type            processor;
        value           nonuniform List<vector> 8((3.75091 -9.79497 0) (-1.24661 -9.80299 0) (-1.24367 -9.80576 0) (-1.24728 -9.81061 0) (-1.25409 -9.81047 0) (-1.25756 -9.80939 0) (-1.25316 -9.80614 0) (3.75144 -9.80598 0));
    }
    procBoundary5to6
    {
        type            processor;
        value           nonuniform List<vector> 8((3.75188 -9.80117 0) (-1.24744 -9.80601 0) (-1.24482 -9.80609 0) (-1.24854 -9.81256 0) (-1.25364 -9.8109 0) (-1.25625 -9.80952 0) (-1.25341 -9.80355 0) (3.75223 -9.81036 0));
    }
}


// ************************************************************************* //
