/*--------------------------------*- C++ -*----------------------------------*\
  =========                 |
  \\      /  F ield         | OpenFOAM: The Open Source CFD Toolbox
   \\    /   O peration     | Website:  https://openfoam.org
    \\  /    A nd           | Version:  dev
     \\/     M anipulation  |

   OpenFOAM for Windows 20.09 (v1)
   Built by CFD Support, www.cfdsupport.com (based on Symscape).
\*---------------------------------------------------------------------------*/
FoamFile
{
    version     2.0;
    format      ascii;
    class       volTensorField;
    location    "4";
    object      gradU;
}
// * * * * * * * * * * * * * * * * * * * * * * * * * * * * * * * * * * * * * //

dimensions      [0 0 -1 0 0 0 0];

internalField   nonuniform List<tensor> 
120
(
(-0.00111988 -0.000118696 0 2.66927 -0.000157403 0 0 0 0)
(5.69107e-05 0.000199529 0 2.63859 -0.000914015 0 0 0 0)
(0.00205419 3.92829e-05 0 2.66294 -0.00207843 0 0 0 0)
(-0.000792739 -5.35308e-05 0 2.66872 -0.000407718 0 0 0 0)
(-0.00125993 -0.000101451 0 2.12234 0.00186564 0 0 0 0)
(3.62781e-06 0.000183274 0 2.0927 0.000900574 0 0 0 0)
(0.00227174 1.32797e-06 0 2.11246 -0.00202338 0 0 0 0)
(-0.000856897 -1.05356e-05 0 2.11643 0.0013832 0 0 0 0)
(-0.00139808 -0.000103446 0 1.67197 0.0013009 0 0 0 0)
(-0.000107854 0.000134712 0 1.64645 -0.000263658 0 0 0 0)
(0.00244962 4.73266e-05 0 1.66215 -0.0023398 0 0 0 0)
(-0.00081376 -2.04293e-05 0 1.66529 0.000448226 0 0 0 0)
(-0.00150599 -8.39411e-05 0 1.30585 0.00111723 0 0 0 0)
(-0.000160009 0.000122595 0 1.28469 0.000695329 0 0 0 0)
(0.00258563 1.31927e-05 0 1.29711 -0.00305512 0 0 0 0)
(-0.000756346 6.24351e-05 0 1.29874 0.000964943 0 0 0 0)
(-0.00161113 -7.95451e-05 0 1.01357 0.00215005 0 0 0 0)
(-0.000253457 6.51726e-05 0 0.994387 0.000681645 0 0 0 0)
(0.0026838 5.18201e-05 0 1.00351 -0.00244264 0 0 0 0)
(-0.000575198 4.7458e-05 0 1.00435 0.00089585 0 0 0 0)
(-0.00171153 -5.23635e-05 0 0.778879 0.00113889 0 0 0 0)
(-0.000327593 4.60506e-05 0 0.763082 0.000162967 0 0 0 0)
(0.00275176 1.67628e-05 0 0.769386 -0.00293862 0 0 0 0)
(-0.000450274 0.000121611 0 0.768986 -0.000168707 0 0 0 0)
(-0.00177871 -4.01693e-05 0 0.593268 0.00192886 0 0 0 0)
(-0.000411661 -2.7858e-06 0 0.58087 0.000556966 0 0 0 0)
(0.0027822 4.62922e-05 0 0.584204 -0.00259363 0 0 0 0)
(-0.000197723 0.000118576 0 0.583171 0.000618996 0 0 0 0)
(-0.00183912 -9.48988e-06 0 0.446142 0.00131577 0 0 0 0)
(-0.000478664 -2.93243e-05 0 0.437884 0.000589327 0 0 0 0)
(0.00279013 1.77966e-05 0 0.438682 -0.00292835 0 0 0 0)
(-4.74509e-05 0.000177866 0 0.436563 -0.000485091 0 0 0 0)
(-0.00185739 7.72522e-06 0 0.330474 0.00217423 0 0 0 0)
(-0.000535984 -7.35211e-05 0 0.327241 0.000800476 0 0 0 0)
(0.00276019 2.83853e-05 0 0.32522 -0.00272865 0 0 0 0)
(0.000274015 0.00018347 0 0.322919 7.50746e-05 0 0 0 0)
(-0.00184763 4.06032e-05 0 0.240047 0.0017485 0 0 0 0)
(-0.000566229 -0.000111039 0 0.241192 0.00113776 0 0 0 0)
(0.0027181 5.70661e-06 0 0.236863 -0.0026799 0 0 0 0)
(0.000362533 0.000228239 0 0.233464 -0.000616647 0 0 0 0)
(-0.00181577 5.67921e-05 0 0.168693 0.000927064 0 0 0 0)
(-0.000589054 -0.000147328 0 0.175472 -1.30618e-05 0 0 0 0)
(0.00263139 -8.54767e-07 0 0.168322 -0.00282917 0 0 0 0)
(0.000507052 0.000234971 0 0.165274 -0.000453362 0 0 0 0)
(-0.00172783 0.000100784 0 0.112429 0.00224159 0 0 0 0)
(-0.000572413 -0.000173643 0 0.123833 0.00104335 0 0 0 0)
(0.00254812 -1.63172e-06 0 0.11452 -0.00218215 0 0 0 0)
(0.000498266 0.000274465 0 0.109861 -0.000726676 0 0 0 0)
(-0.00164822 0.000100992 0 0.0666191 0.0015496 0 0 0 0)
(-0.000554213 -0.000221057 0 0.084265 0.000905682 0 0 0 0)
(0.00239851 -3.03552e-05 0 0.0717037 -0.00227628 0 0 0 0)
(0.000554503 0.000284608 0 0.0685 -0.000497914 0 0 0 0)
(-0.00146899 0.000153578 0 0.0278995 0.00039743 0 0 0 0)
(-0.00048767 -0.000237408 0 0.0510948 -0.000177585 0 0 0 0)
(0.00228537 -2.5025e-05 0 0.0361577 -0.00272284 0 0 0 0)
(0.000509778 0.000304552 0 0.0306206 -0.000614928 0 0 0 0)
(-0.00133292 0.000151991 0 -0.00628372 0.00214311 0 0 0 0)
(-0.000416577 -0.000273061 0 0.024537 0.00194545 0 0 0 0)
(0.00205728 -3.76442e-05 0 0.00491251 -0.00225934 0 0 0 0)
(0.000470401 0.000340258 0 0.0010588 -0.000192184 0 0 0 0)
(-0.00104279 -0.000262037 0 2.65265 0.00194899 0 0 0 0)
(0.000562363 -0.000275699 0 2.64666 0.000185157 0 0 0 0)
(0.000108482 0.000341451 0 2.62777 0.00108649 0 0 0 0)
(0.000173465 0.000129701 0 2.65963 -0.00169815 0 0 0 0)
(-0.0011753 -0.000269538 0 2.11119 -3.72952e-05 0 0 0 0)
(0.000311014 -0.000300535 0 2.10263 -0.00150529 0 0 0 0)
(0.000163493 0.000369661 0 2.07483 -0.000636849 0 0 0 0)
(0.000542255 0.000127797 0 2.10939 -1.44063e-05 0 0 0 0)
(-0.00127272 -0.000310179 0 1.66818 0.00203844 0 0 0 0)
(-4.36382e-05 -0.000285691 0 1.65778 0.000736202 0 0 0 0)
(0.000221177 0.000366299 0 1.62843 0.000205624 0 0 0 0)
(0.000965253 0.000171409 0 1.66122 -0.00131423 0 0 0 0)
(-0.00130045 -0.000264738 0 1.31142 0.00101812 0 0 0 0)
(-0.000351463 -0.000331082 0 1.30179 -0.000329983 0 0 0 0)
(0.000220802 0.000335487 0 1.26853 -0.000633437 0 0 0 0)
(0.00126782 0.000146051 0 1.29747 -0.000738736 0 0 0 0)
(-0.00122187 -0.000331761 0 1.02188 0.00110793 0 0 0 0)
(-0.000758477 -0.000313217 0 1.01275 0.000842977 0 0 0 0)
(0.000149206 0.000359486 0 0.979631 -0.000316045 0 0 0 0)
(0.00158713 0.000200587 0 1.00672 -0.00121301 0 0 0 0)
(-0.00116054 -0.00026562 0 0.792035 0.00132845 0 0 0 0)
(-0.00105553 -0.000354815 0 0.785942 0.000968518 0 0 0 0)
(0.0001203 0.00030122 0 0.751235 0.000343563 0 0 0 0)
(0.0018334 0.000187153 0 0.773137 -0.00219958 0 0 0 0)
(-0.000939273 -0.000312807 0 0.608373 0.000781677 0 0 0 0)
(-0.00143848 -0.000329632 0 0.602941 0.00166793 0 0 0 0)
(-6.42192e-05 0.000306684 0 0.570189 0.00028867 0 0 0 0)
(0.00204786 0.000213842 0 0.588525 -0.00201545 0 0 0 0)
(-0.000831042 -0.000248137 0 0.466987 0.00096529 0 0 0 0)
(-0.00169195 -0.000363032 0 0.464886 0.0015474 0 0 0 0)
(-0.000119969 0.000239831 0 0.430566 0.000233224 0 0 0 0)
(0.00221806 0.000214489 0 0.442605 -0.00228434 0 0 0 0)
(-0.000467237 -0.000278932 0 0.349819 0.000293714 0 0 0 0)
(-0.00204549 -0.000341833 0 0.346813 0.00201119 0 0 0 0)
(-0.000435563 0.000242822 0 0.319855 0.000532509 0 0 0 0)
(0.00230746 0.000231885 0 0.327752 -0.00220511 0 0 0 0)
(-0.000432801 -0.000215869 0 0.250845 0.000410195 0 0 0 0)
(-0.00219135 -0.000359052 0 0.250312 0.00196589 0 0 0 0)
(-0.000437666 0.000169559 0 0.236422 0.000677577 0 0 0 0)
(0.00239504 0.000241851 0 0.238695 -0.00180626 0 0 0 0)
(-0.000186435 -0.00023589 0 0.176466 -5.56266e-05 0 0 0 0)
(-0.00228586 -0.000337377 0 0.173934 0.00209008 0 0 0 0)
(-0.000629182 0.000179953 0 0.170125 -0.000340393 0 0 0 0)
(0.00236787 0.000249733 0 0.168284 -0.00362393 0 0 0 0)
(-0.00028846 -0.000173478 0 0.117367 0.00079603 0 0 0 0)
(-0.00229703 -0.000363798 0 0.117095 0.00319815 0 0 0 0)
(-0.000531831 7.43255e-05 0 0.120652 0.00243348 0 0 0 0)
(0.00237117 0.000262976 0 0.11378 -0.00160861 0 0 0 0)
(-6.58567e-05 -0.000170476 0 0.0723944 -0.00047103 0 0 0 0)
(-0.00223111 -0.000310086 0 0.0683815 0.00124275 0 0 0 0)
(-0.000684434 9.98401e-05 0 0.0796191 -0.000104477 0 0 0 0)
(0.00223082 0.000246535 0 0.0687346 -0.00226195 0 0 0 0)
(-0.000290435 -0.000144467 0 0.0311115 0.000616166 0 0 0 0)
(-0.00217661 -0.000357689 0 0.0280468 0.00316534 0 0 0 0)
(-0.000525946 1.59139e-05 0 0.0470531 0.000546904 0 0 0 0)
(0.00215451 0.000290544 0 0.0321768 -0.00323758 0 0 0 0)
(-0.000108754 -0.000107472 0 -0.00265792 0.000233114 0 0 0 0)
(-0.00196542 -0.000311241 0 -0.0115033 0.00198305 0 0 0 0)
(-0.0006156 -6.87518e-06 0 0.0167227 0.00226606 0 0 0 0)
(0.0019116 0.000244044 0 -0.00189465 0.000920169 0 0 0 0)
)
;

boundaryField
{
    topWall
    {
        type            extrapolatedCalculated;
        value           nonuniform List<tensor> 0();
    }
    botWall
    {
        type            extrapolatedCalculated;
        value           nonuniform List<tensor> 0();
    }
    inlet
    {
        type            cyclic;
    }
    outlet
    {
        type            cyclic;
    }
    fixWall
    {
        type            empty;
    }
    procBoundary5to4
    {
        type            processor;
        value           nonuniform List<tensor> 8((-0.000909192 -0.000114519 0 3.32408 0.0014778 0 0 0 0) (0.000109113 0.000215291 0 3.30033 -0.000510071 0 0 0 0) (0.0017696 -7.11031e-06 0 3.33062 -0.0011871 0 0 0 0) (-0.000685459 -7.76592e-05 0 3.33711 0.00107187 0 0 0 0) (-0.000807635 -0.000279419 0 3.31253 0.000132659 0 0 0 0) (0.000725827 -0.00028616 0 3.3107 -0.000222447 0 0 0 0) (-5.27759e-05 0.000401049 0 3.30866 0.00113544 0 0 0 0) (-0.000149481 0.000148528 0 3.32925 -0.000307805 0 0 0 0));
    }
    procBoundary5to6
    {
        type            processor;
        value           nonuniform List<tensor> 8((-0.00102846 0.000170666 0 -0.0412098 0.000100064 0 0 0 0) (-0.000301067 -0.000310782 0 -0.00289611 0.000294574 0 0 0 0) (0.00189407 -6.06522e-05 0 -0.0255285 -0.00241775 0 0 0 0) (0.000383604 0.000346093 0 -0.0423158 -0.000159455 0 0 0 0) (-0.000499804 -0.000108213 0 -0.0404366 -0.000672143 0 0 0 0) (-0.0018536 -0.000323806 0 -0.042034 0.000707818 0 0 0 0) (-0.000365802 -1.80087e-06 0 -0.0124525 -0.00281376 0 0 0 0) (0.00177107 0.000288494 0 -0.0335049 -0.00301863 0 0 0 0));
    }
}


// ************************************************************************* //
