/*--------------------------------*- C++ -*----------------------------------*\
  =========                 |
  \\      /  F ield         | OpenFOAM: The Open Source CFD Toolbox
   \\    /   O peration     | Website:  https://openfoam.org
    \\  /    A nd           | Version:  dev
     \\/     M anipulation  |

   OpenFOAM for Windows 20.09 (v1)
   Built by CFD Support, www.cfdsupport.com (based on Symscape).
\*---------------------------------------------------------------------------*/
FoamFile
{
    version     2.0;
    format      ascii;
    class       volScalarField;
    location    "4";
    object      nut;
}
// * * * * * * * * * * * * * * * * * * * * * * * * * * * * * * * * * * * * * //

dimensions      [0 2 -1 0 0 0 0];

internalField   nonuniform List<scalar> 
120
(
1.29052e-17
1.28884e-17
1.29063e-17
1.29056e-17
1.2416e-17
1.2399e-17
1.24176e-17
1.24138e-17
1.19376e-17
1.19196e-17
1.19389e-17
1.19318e-17
1.15627e-17
1.15689e-17
1.15749e-17
1.15724e-17
1.15288e-17
1.1535e-17
1.15413e-17
1.1539e-17
1.14422e-17
1.14485e-17
1.14549e-17
1.14527e-17
1.1305e-17
1.13112e-17
1.13175e-17
1.13155e-17
1.11197e-17
1.11257e-17
1.11317e-17
1.11299e-17
1.0889e-17
1.08948e-17
1.09005e-17
1.08989e-17
1.06165e-17
1.0622e-17
1.06272e-17
1.06257e-17
1.03056e-17
1.03108e-17
1.03155e-17
1.03142e-17
9.96041e-18
9.96524e-18
9.9694e-18
9.96824e-18
9.585e-18
9.58947e-18
9.59303e-18
9.59205e-18
9.1837e-18
9.1878e-18
9.19078e-18
9.18995e-18
8.7609e-18
8.76465e-18
8.76708e-18
8.7664e-18
1.29246e-17
1.29075e-17
1.29282e-17
1.29017e-17
1.24372e-17
1.24151e-17
1.24408e-17
1.24101e-17
1.19604e-17
1.19321e-17
1.19644e-17
1.19277e-17
1.15745e-17
1.15773e-17
1.15772e-17
1.15762e-17
1.15409e-17
1.15435e-17
1.15434e-17
1.15425e-17
1.14546e-17
1.14568e-17
1.14567e-17
1.1456e-17
1.13173e-17
1.13193e-17
1.13191e-17
1.13185e-17
1.11317e-17
1.11334e-17
1.11331e-17
1.11327e-17
1.09006e-17
1.0902e-17
1.09017e-17
1.09013e-17
1.06275e-17
1.06286e-17
1.06283e-17
1.06279e-17
1.03159e-17
1.03168e-17
1.03164e-17
1.03161e-17
9.96988e-18
9.97051e-18
9.97016e-18
9.96981e-18
9.59358e-18
9.59404e-18
9.59368e-18
9.59333e-18
9.19136e-18
9.19167e-18
9.19133e-18
9.19097e-18
8.76767e-18
8.76785e-18
8.76754e-18
8.76717e-18
)
;

boundaryField
{
    topWall
    {
        type            nutkWallFunction;
        Cmu             0.09;
        kappa           0.41;
        E               9.8;
        value           nonuniform List<scalar> 0();
    }
    botWall
    {
        type            nutkWallFunction;
        Cmu             0.09;
        kappa           0.41;
        E               9.8;
        value           nonuniform List<scalar> 0();
    }
    inlet
    {
        type            cyclic;
    }
    outlet
    {
        type            cyclic;
    }
    fixWall
    {
        type            empty;
    }
    procBoundary5to4
    {
        type            processor;
        value           nonuniform List<scalar> 8(1.33889e-17 1.33718e-17 1.33885e-17 1.33906e-17 1.34056e-17 1.33926e-17 1.34098e-17 1.33857e-17);
    }
    procBoundary5to6
    {
        type            processor;
        value           nonuniform List<scalar> 8(8.3341e-18 8.33728e-18 8.33922e-18 8.33866e-18 8.33979e-18 8.33993e-18 8.33958e-18 8.33925e-18);
    }
}


// ************************************************************************* //
