/*--------------------------------*- C++ -*----------------------------------*\
  =========                 |
  \\      /  F ield         | OpenFOAM: The Open Source CFD Toolbox
   \\    /   O peration     | Website:  https://openfoam.org
    \\  /    A nd           | Version:  dev
     \\/     M anipulation  |

   OpenFOAM for Windows 20.09 (v1)
   Built by CFD Support, www.cfdsupport.com (based on Symscape).
\*---------------------------------------------------------------------------*/
FoamFile
{
    version     2.0;
    format      ascii;
    class       volScalarField;
    location    "4";
    object      omega;
}
// * * * * * * * * * * * * * * * * * * * * * * * * * * * * * * * * * * * * * //

dimensions      [0 0 -1 0 0 0 0];

internalField   nonuniform List<scalar> 
120
(
19.5804
19.5707
19.5637
19.569
19.3614
19.3516
19.3433
19.3481
19.2367
19.2267
19.2174
19.2218
19.2035
19.1933
19.1833
19.1874
19.2601
19.2496
19.2391
19.2429
19.4057
19.3951
19.3843
19.3879
19.6412
19.6305
19.6196
19.623
19.9686
19.9578
19.947
19.9502
20.3916
20.3807
20.3701
20.3732
20.9151
20.9043
20.8939
20.8969
21.546
21.5351
21.5253
21.528
22.2927
22.2819
22.2726
22.2752
23.1658
23.155
23.1464
23.1488
24.1781
24.1673
24.1595
24.1617
25.3449
25.3341
25.3271
25.3291
19.5645
19.5588
19.5591
19.5616
19.344
19.3385
19.3388
19.341
19.2182
19.213
19.2132
19.2152
19.184
19.1792
19.1795
19.1811
19.2398
19.2354
19.2357
19.2371
19.3848
19.381
19.3813
19.3824
19.6199
19.6165
19.6168
19.6178
19.947
19.9441
19.9445
19.9453
20.3699
20.3673
20.3679
20.3686
20.8934
20.8913
20.8919
20.8926
21.5245
21.5227
21.5234
21.5242
22.2715
22.2701
22.2709
22.2717
23.1451
23.144
23.1449
23.1457
24.158
24.1571
24.158
24.159
25.3254
25.3249
25.3258
25.3268
)
;

boundaryField
{
    topWall
    {
        beta1           0.075;
        blended         0;
        type            omegaWallFunction;
        value           nonuniform List<scalar> 0();
    }
    botWall
    {
        beta1           0.075;
        blended         0;
        type            omegaWallFunction;
        value           nonuniform List<scalar> 0();
    }
    inlet
    {
        type            cyclic;
    }
    outlet
    {
        type            cyclic;
    }
    fixWall
    {
        type            empty;
    }
    procBoundary5to4
    {
        type            processor;
        value           nonuniform List<scalar> 8(19.9067 19.8973 19.8923 19.8982 19.8935 19.8879 19.8877 19.8906);
    }
    procBoundary5to6
    {
        type            processor;
        value           nonuniform List<scalar> 8(26.6429 26.6327 26.6265 26.6283 26.6247 26.6243 26.6254 26.6265);
    }
}


// ************************************************************************* //
