/*--------------------------------*- C++ -*----------------------------------*\
  =========                 |
  \\      /  F ield         | OpenFOAM: The Open Source CFD Toolbox
   \\    /   O peration     | Website:  https://openfoam.org
    \\  /    A nd           | Version:  dev
     \\/     M anipulation  |

   OpenFOAM for Windows 20.09 (v1)
   Built by CFD Support, www.cfdsupport.com (based on Symscape).
\*---------------------------------------------------------------------------*/
FoamFile
{
    version     2.0;
    format      ascii;
    class       volScalarField;
    location    "4";
    object      p;
}
// * * * * * * * * * * * * * * * * * * * * * * * * * * * * * * * * * * * * * //

dimensions      [1 -1 -2 0 0 0 0];

internalField   nonuniform List<scalar> 
120
(
-4.98229
-5.04475
-5.10696
-5.16912
-4.99045
-5.05292
-5.11513
-5.1773
-4.99861
-5.06109
-5.12329
-5.18548
-5.00678
-5.06926
-5.13146
-5.19366
-5.01494
-5.07743
-5.13963
-5.20183
-5.0231
-5.0856
-5.1478
-5.21001
-5.03126
-5.09377
-5.15597
-5.21819
-5.03943
-5.10194
-5.16414
-5.22637
-5.04759
-5.11011
-5.1723
-5.23455
-5.05575
-5.11828
-5.18047
-5.24273
-5.06392
-5.12645
-5.18864
-5.25091
-5.07208
-5.13463
-5.19681
-5.25908
-5.08024
-5.1428
-5.20498
-5.26726
-5.08841
-5.15097
-5.21314
-5.27544
-5.09657
-5.15914
-5.22131
-5.28362
-5.23169
-5.29453
-5.35744
-5.41984
-5.23986
-5.3027
-5.36561
-5.42802
-5.24804
-5.31088
-5.37378
-5.4362
-5.25622
-5.31905
-5.38194
-5.44437
-5.2644
-5.32723
-5.39011
-5.45255
-5.27257
-5.3354
-5.39828
-5.46073
-5.28075
-5.34358
-5.40645
-5.46891
-5.28893
-5.35176
-5.41462
-5.47708
-5.2971
-5.35993
-5.42279
-5.48526
-5.30528
-5.36811
-5.43095
-5.49344
-5.31346
-5.37629
-5.43912
-5.50161
-5.32164
-5.38446
-5.44729
-5.50979
-5.32981
-5.39264
-5.45546
-5.51797
-5.33799
-5.40081
-5.46363
-5.52615
-5.34616
-5.40899
-5.4718
-5.53433
)
;

boundaryField
{
    topWall
    {
        type            calculated;
        value           nonuniform List<scalar> 0();
    }
    botWall
    {
        type            calculated;
        value           nonuniform List<scalar> 0();
    }
    inlet
    {
        type            cyclic;
    }
    outlet
    {
        type            cyclic;
    }
    fixWall
    {
        type            empty;
    }
    procBoundary5to4
    {
        type            processor;
        value           nonuniform List<scalar> 8(-4.97412 -5.03658 -5.09879 -5.16094 -5.22351 -5.28635 -5.34927 -5.41167);
    }
    procBoundary5to6
    {
        type            processor;
        value           nonuniform List<scalar> 8(-5.10474 -5.16731 -5.22948 -5.2918 -5.35434 -5.41716 -5.47996 -5.5425);
    }
}


// ************************************************************************* //
