/*--------------------------------*- C++ -*----------------------------------*\
  =========                 |
  \\      /  F ield         | OpenFOAM: The Open Source CFD Toolbox
   \\    /   O peration     | Website:  https://openfoam.org
    \\  /    A nd           | Version:  dev
     \\/     M anipulation  |

   OpenFOAM for Windows 20.09 (v1)
   Built by CFD Support, www.cfdsupport.com (based on Symscape).
\*---------------------------------------------------------------------------*/
FoamFile
{
    version     2.0;
    format      ascii;
    class       volScalarField;
    location    "4";
    object      p_rgh;
}
// * * * * * * * * * * * * * * * * * * * * * * * * * * * * * * * * * * * * * //

dimensions      [1 -1 -2 0 0 0 0];

internalField   nonuniform List<scalar> 
120
(
-4.36507
-4.42754
-4.48974
-4.55191
-4.36506
-4.42753
-4.48974
-4.55191
-4.36505
-4.42753
-4.48973
-4.55191
-4.36504
-4.42752
-4.48973
-4.55192
-4.36503
-4.42752
-4.48972
-4.55192
-4.36501
-4.42751
-4.48971
-4.55193
-4.365
-4.42751
-4.48971
-4.55193
-4.36499
-4.42751
-4.4897
-4.55193
-4.36498
-4.4275
-4.48969
-4.55194
-4.36496
-4.4275
-4.48968
-4.55194
-4.36495
-4.42749
-4.48968
-4.55194
-4.36494
-4.42749
-4.48967
-4.55195
-4.36493
-4.42749
-4.48966
-4.55195
-4.36492
-4.42748
-4.48966
-4.55195
-4.36491
-4.42748
-4.48965
-4.55196
-4.61448
-4.67732
-4.74023
-4.80263
-4.61448
-4.67731
-4.74022
-4.80263
-4.61448
-4.67731
-4.74021
-4.80263
-4.61448
-4.67731
-4.74021
-4.80264
-4.61448
-4.67732
-4.7402
-4.80264
-4.61448
-4.67732
-4.74019
-4.80264
-4.61449
-4.67732
-4.74019
-4.80264
-4.61449
-4.67732
-4.74018
-4.80265
-4.61449
-4.67732
-4.74017
-4.80265
-4.61449
-4.67732
-4.74017
-4.80265
-4.6145
-4.67732
-4.74016
-4.80265
-4.6145
-4.67732
-4.74015
-4.80266
-4.6145
-4.67732
-4.74015
-4.80266
-4.6145
-4.67733
-4.74014
-4.80266
-4.6145
-4.67732
-4.74013
-4.80266
)
;

boundaryField
{
    topWall
    {
        type            zeroGradient;
    }
    botWall
    {
        type            zeroGradient;
    }
    inlet
    {
        type            fixedJump;
        patchType       cyclic;
        jump            uniform -0.5;
        value           nonuniform List<scalar> 
15
(
-4.33385
-4.33385
-4.33384
-4.33384
-4.33383
-4.33383
-4.33382
-4.33382
-4.33381
-4.33381
-4.3338
-4.3338
-4.33379
-4.33379
-4.33379
)
;
    }
    outlet
    {
        type            fixedJump;
        patchType       cyclic;
        value           nonuniform List<scalar> 
15
(
-4.83385
-4.83385
-4.83384
-4.83384
-4.83383
-4.83383
-4.83382
-4.83382
-4.83381
-4.83381
-4.8338
-4.8338
-4.83379
-4.83379
-4.83379
)
;
    }
    fixWall
    {
        type            empty;
    }
    procBoundary5to4
    {
        type            processor;
        value           nonuniform List<scalar> 8(-4.36509 -4.42754 -4.48975 -4.55191 -4.61448 -4.67732 -4.74023 -4.80263);
    }
    procBoundary5to6
    {
        type            processor;
        value           nonuniform List<scalar> 8(-4.3649 -4.42748 -4.48965 -4.55196 -4.6145 -4.67732 -4.74013 -4.80267);
    }
}


// ************************************************************************* //
