/*--------------------------------*- C++ -*----------------------------------*\
  =========                 |
  \\      /  F ield         | OpenFOAM: The Open Source CFD Toolbox
   \\    /   O peration     | Website:  https://openfoam.org
    \\  /    A nd           | Version:  dev
     \\/     M anipulation  |

   OpenFOAM for Windows 20.09 (v1)
   Built by CFD Support, www.cfdsupport.com (based on Symscape).
\*---------------------------------------------------------------------------*/
FoamFile
{
    version     2.0;
    format      ascii;
    class       surfaceScalarField;
    location    "4";
    object      phi;
}
// * * * * * * * * * * * * * * * * * * * * * * * * * * * * * * * * * * * * * //

dimensions      [0 3 -1 0 0 0 0];

internalField   nonuniform List<scalar> 
217
(
1.87553e-07
-8.12954e-11
1.87552e-07
-3.5139e-12
1.87635e-07
8.47512e-10
9.84553e-11
1.87607e-07
1.89187e-07
-3.11987e-11
1.89183e-07
2.89355e-13
1.89276e-07
7.54488e-10
1.2999e-10
1.89245e-07
1.9048e-07
2.41948e-11
1.90471e-07
9.20586e-12
1.90572e-07
6.53693e-10
1.59966e-10
1.90542e-07
1.91492e-07
8.34662e-11
1.91481e-07
2.07607e-11
1.91587e-07
5.46831e-10
1.87875e-10
1.9156e-07
1.9228e-07
1.46476e-10
1.92264e-07
3.66182e-11
1.92375e-07
4.35518e-10
2.08561e-10
1.92355e-07
1.92887e-07
2.13074e-10
1.92868e-07
5.59811e-11
1.92982e-07
3.21058e-10
2.24363e-10
1.92966e-07
1.93351e-07
2.81899e-10
1.93328e-07
7.92649e-11
1.93444e-07
2.0501e-10
2.29943e-10
1.93439e-07
1.93703e-07
3.52687e-10
1.93676e-07
1.0577e-10
1.93793e-07
8.83153e-11
2.29554e-10
1.93794e-07
1.93965e-07
4.23679e-10
1.93936e-07
1.35074e-10
1.94052e-07
-2.74911e-11
2.16053e-10
1.94066e-07
1.9416e-07
4.93687e-10
1.94129e-07
1.6604e-10
1.94244e-07
-1.41936e-10
1.99123e-10
1.94261e-07
1.943e-07
5.6174e-10
1.94268e-07
1.98332e-10
1.94379e-07
-2.53211e-10
1.76431e-10
1.94402e-07
1.944e-07
6.25424e-10
1.94367e-07
2.30282e-10
1.94476e-07
-3.61526e-10
1.5438e-10
1.94498e-07
1.94465e-07
6.85079e-10
1.94433e-07
2.61963e-10
1.94535e-07
-4.6408e-10
1.30315e-10
1.9456e-07
1.94505e-07
7.36619e-10
1.94475e-07
2.91533e-10
1.94574e-07
-5.62205e-10
1.0848e-10
1.94595e-07
1.9452e-07
1.94493e-07
1.94582e-07
1.94602e-07
1.87564e-07
6.65193e-10
1.8759e-07
-1.29282e-09
1.87586e-07
-7.9153e-10
5.58706e-10
1.89196e-07
7.13628e-10
1.89212e-07
-1.30837e-09
1.89211e-07
-7.90208e-10
5.32295e-10
1.9049e-07
7.6583e-10
1.90491e-07
-1.30913e-09
1.90492e-07
-7.91739e-10
4.89001e-10
1.91506e-07
8.19025e-10
1.91494e-07
-1.29684e-09
1.91496e-07
-7.93752e-10
4.33807e-10
1.92305e-07
8.68852e-10
1.92275e-07
-1.26733e-09
1.92275e-07
-7.93254e-10
3.65958e-10
1.92919e-07
9.16053e-10
1.92877e-07
-1.22518e-09
1.92876e-07
-7.91991e-10
2.88474e-10
1.93401e-07
9.53942e-10
1.93342e-07
-1.16682e-09
1.93334e-07
-7.83479e-10
2.02687e-10
1.93761e-07
9.87223e-10
1.93691e-07
-1.09767e-09
1.93681e-07
-7.73072e-10
1.10455e-10
1.94048e-07
1.0052e-09
1.93964e-07
-1.01353e-09
1.93941e-07
-7.4994e-10
1.51453e-11
1.94244e-07
1.0216e-09
1.94154e-07
-9.2307e-10
1.94131e-07
-7.27154e-10
-8.3169e-11
1.94396e-07
1.02757e-09
1.94302e-07
-8.28401e-10
1.94272e-07
-6.96835e-10
-1.79717e-10
1.94488e-07
1.03762e-09
1.94393e-07
-7.32995e-10
1.94367e-07
-6.71079e-10
-2.75803e-10
1.94559e-07
1.03822e-09
1.94466e-07
-6.40069e-10
1.94435e-07
-6.39512e-10
-3.65364e-10
1.94586e-07
1.04799e-09
1.94495e-07
-5.49346e-10
1.94471e-07
-6.15389e-10
-4.51111e-10
1.946e-07
1.94518e-07
1.94491e-07
)
;

boundaryField
{
    topWall
    {
        type            calculated;
        value           nonuniform List<scalar> 0();
    }
    botWall
    {
        type            calculated;
        value           nonuniform List<scalar> 0();
    }
    inlet
    {
        type            cyclic;
        value           nonuniform List<scalar> 
15
(
-1.87598e-07
-1.89237e-07
-1.90536e-07
-1.91551e-07
-1.92343e-07
-1.92953e-07
-1.9342e-07
-1.93773e-07
-1.94036e-07
-1.9423e-07
-1.94368e-07
-1.94463e-07
-1.94524e-07
-1.94556e-07
-1.94566e-07
)
;
    }
    outlet
    {
        type            cyclic;
        value           nonuniform List<scalar> 
15
(
1.87598e-07
1.89237e-07
1.90536e-07
1.91551e-07
1.92343e-07
1.92953e-07
1.9342e-07
1.93773e-07
1.94036e-07
1.9423e-07
1.94368e-07
1.94463e-07
1.94524e-07
1.94556e-07
1.94566e-07
)
;
    }
    fixWall
    {
        type            empty;
        value           nonuniform List<scalar> 0();
    }
    procBoundary5to4
    {
        type            processor;
        value           nonuniform List<scalar> 8(1.24993e-10 3.50031e-12 -9.28924e-10 -6.57821e-11 -6.24969e-10 1.26859e-09 7.94442e-10 -5.71491e-10);
    }
    procBoundary5to6
    {
        type            processor;
        value           nonuniform List<scalar> 8(7.82484e-10 3.16542e-10 -6.53634e-10 9.15364e-11 1.04658e-09 -4.6594e-10 -5.91564e-10 -5.23456e-10);
    }
}


// ************************************************************************* //
