/*--------------------------------*- C++ -*----------------------------------*\
  =========                 |
  \\      /  F ield         | OpenFOAM: The Open Source CFD Toolbox
   \\    /   O peration     | Website:  https://openfoam.org
    \\  /    A nd           | Version:  dev
     \\/     M anipulation  |

   OpenFOAM for Windows 20.09 (v1)
   Built by CFD Support, www.cfdsupport.com (based on Symscape).
\*---------------------------------------------------------------------------*/
FoamFile
{
    version     2.0;
    format      ascii;
    class       volSymmTensorField;
    location    "4";
    object      R;
}
// * * * * * * * * * * * * * * * * * * * * * * * * * * * * * * * * * * * * * //

dimensions      [0 2 -2 0 0 0 0];

internalField   nonuniform List<symmTensor> 
120
(
(1.68477e-16 -3.44459e-17 -0 1.68452e-16 -0 1.68448e-16)
(1.68148e-16 -3.40097e-17 -0 1.68173e-16 -0 1.68149e-16)
(1.68277e-16 -3.43693e-17 -0 1.68384e-16 -0 1.6833e-16)
(1.68376e-16 -3.44407e-17 -0 1.68367e-16 -0 1.68356e-16)
(1.60298e-16 -2.63498e-17 -0 1.6022e-16 -0 1.60266e-16)
(1.59967e-16 -2.59496e-17 -0 1.59945e-16 -0 1.59967e-16)
(1.60078e-16 -2.62317e-17 -0 1.60185e-16 -0 1.60134e-16)
(1.60148e-16 -2.62729e-17 -0 1.60092e-16 -0 1.60127e-16)
(1.53125e-16 -1.9958e-17 -0 1.53061e-16 -0 1.53092e-16)
(1.52782e-16 -1.96266e-17 -0 1.52786e-16 -0 1.5278e-16)
(1.52899e-16 -1.98448e-17 -0 1.53013e-16 -0 1.52958e-16)
(1.52917e-16 -1.98696e-17 -0 1.52887e-16 -0 1.52897e-16)
(1.48062e-16 -1.50981e-17 -0 1.48001e-16 -0 1.48027e-16)
(1.48038e-16 -1.48638e-17 -0 1.48018e-16 -0 1.48034e-16)
(1.47966e-16 -1.50141e-17 -0 1.48097e-16 -0 1.48026e-16)
(1.48049e-16 -1.50303e-17 -0 1.48009e-16 -0 1.48031e-16)
(1.48071e-16 -1.16842e-17 -0 1.47984e-16 -0 1.48034e-16)
(1.48039e-16 -1.1471e-17 -0 1.48017e-16 -0 1.48033e-16)
(1.4797e-16 -1.15824e-17 -0 1.48088e-16 -0 1.48032e-16)
(1.48045e-16 -1.15898e-17 -0 1.48012e-16 -0 1.48032e-16)
(1.48065e-16 -8.91151e-18 -0 1.47999e-16 -0 1.48025e-16)
(1.48036e-16 -8.73666e-18 -0 1.48025e-16 -0 1.48028e-16)
(1.47965e-16 -8.81341e-18 -0 1.48096e-16 -0 1.48028e-16)
(1.48035e-16 -8.80838e-18 -0 1.48029e-16 -0 1.48025e-16)
(1.48071e-16 -6.70647e-18 -0 1.47987e-16 -0 1.48031e-16)
(1.4804e-16 -6.57031e-18 -0 1.48018e-16 -0 1.48031e-16)
(1.47968e-16 -6.61226e-18 -0 1.4809e-16 -0 1.48031e-16)
(1.48037e-16 -6.60023e-18 -0 1.48019e-16 -0 1.48033e-16)
(1.48067e-16 -4.96084e-18 -0 1.47997e-16 -0 1.48026e-16)
(1.48041e-16 -4.87144e-18 -0 1.48017e-16 -0 1.48031e-16)
(1.47967e-16 -4.8835e-18 -0 1.48094e-16 -0 1.48029e-16)
(1.48027e-16 -4.8609e-18 -0 1.48037e-16 -0 1.48026e-16)
(1.48072e-16 -3.59863e-18 -0 1.47985e-16 -0 1.48032e-16)
(1.48043e-16 -3.56443e-18 -0 1.48014e-16 -0 1.48032e-16)
(1.4797e-16 -3.54538e-18 -0 1.48089e-16 -0 1.4803e-16)
(1.48026e-16 -3.52145e-18 -0 1.48031e-16 -0 1.48032e-16)
(1.48068e-16 -2.54889e-18 -0 1.47992e-16 -0 1.48029e-16)
(1.48046e-16 -2.56076e-18 -0 1.4801e-16 -0 1.48034e-16)
(1.47972e-16 -2.51726e-18 -0 1.48087e-16 -0 1.4803e-16)
(1.4802e-16 -2.48315e-18 -0 1.48041e-16 -0 1.48028e-16)
(1.48061e-16 -1.73907e-18 -0 1.48005e-16 -0 1.48024e-16)
(1.48038e-16 -1.80774e-18 -0 1.48026e-16 -0 1.48026e-16)
(1.47974e-16 -1.73632e-18 -0 1.48087e-16 -0 1.48028e-16)
(1.4802e-16 -1.70709e-18 -0 1.48039e-16 -0 1.4803e-16)
(1.48068e-16 -1.12085e-18 -0 1.47988e-16 -0 1.48033e-16)
(1.48044e-16 -1.23229e-18 -0 1.48012e-16 -0 1.48033e-16)
(1.47981e-16 -1.14168e-18 -0 1.48076e-16 -0 1.48032e-16)
(1.48018e-16 -1.09785e-18 -0 1.48043e-16 -0 1.48028e-16)
(1.48061e-16 -6.39512e-19 -0 1.47999e-16 -0 1.48029e-16)
(1.48043e-16 -8.05937e-19 -0 1.48015e-16 -0 1.48032e-16)
(1.47985e-16 -6.87564e-19 -0 1.48074e-16 -0 1.48031e-16)
(1.48019e-16 -6.59785e-19 -0 1.4804e-16 -0 1.4803e-16)
(1.4805e-16 -2.57631e-19 -0 1.48016e-16 -0 1.48023e-16)
(1.48035e-16 -4.67268e-19 -0 1.48029e-16 -0 1.48026e-16)
(1.47985e-16 -3.32087e-19 -0 1.48077e-16 -0 1.48027e-16)
(1.4802e-16 -2.84201e-19 -0 1.4804e-16 -0 1.48029e-16)
(1.48058e-16 5.37195e-20 -0 1.47997e-16 -0 1.48034e-16)
(1.48046e-16 -2.12665e-19 -0 1.48005e-16 -0 1.48039e-16)
(1.47992e-16 -4.27383e-20 -0 1.48068e-16 -0 1.48029e-16)
(1.48023e-16 -1.22647e-20 -0 1.48035e-16 -0 1.48031e-16)
(1.68609e-16 -3.4281e-17 -0 1.68532e-16 -0 1.68583e-16)
(1.68295e-16 -3.41582e-17 -0 1.68305e-16 -0 1.6831e-16)
(1.68583e-16 -3.39766e-17 -0 1.68558e-16 -0 1.68586e-16)
(1.68233e-16 -3.43153e-17 -0 1.68282e-16 -0 1.68238e-16)
(1.6041e-16 -2.6254e-17 -0 1.60382e-16 -0 1.60381e-16)
(1.60042e-16 -2.61006e-17 -0 1.60087e-16 -0 1.6005e-16)
(1.60386e-16 -2.58172e-17 -0 1.60406e-16 -0 1.6039e-16)
(1.60007e-16 -2.61794e-17 -0 1.60021e-16 -0 1.60021e-16)
(1.53274e-16 -1.99484e-17 -0 1.53195e-16 -0 1.53243e-16)
(1.52841e-16 -1.97774e-17 -0 1.52822e-16 -0 1.5284e-16)
(1.53247e-16 -1.94876e-17 -0 1.53248e-16 -0 1.53253e-16)
(1.52769e-16 -1.98164e-17 -0 1.52823e-16 -0 1.52792e-16)
(1.48058e-16 -1.5176e-17 -0 1.48004e-16 -0 1.48028e-16)
(1.48033e-16 -1.50674e-17 -0 1.48032e-16 -0 1.48024e-16)
(1.48021e-16 -1.469e-17 -0 1.48041e-16 -0 1.48027e-16)
(1.48004e-16 -1.50215e-17 -0 1.48051e-16 -0 1.48034e-16)
(1.48057e-16 -1.17896e-17 -0 1.48003e-16 -0 1.48029e-16)
(1.48048e-16 -1.16871e-17 -0 1.48011e-16 -0 1.4803e-16)
(1.48025e-16 -1.13124e-17 -0 1.48036e-16 -0 1.48028e-16)
(1.47996e-16 -1.16224e-17 -0 1.48061e-16 -0 1.48033e-16)
(1.48058e-16 -9.06937e-18 -0 1.48001e-16 -0 1.48031e-16)
(1.48053e-16 -9.00035e-18 -0 1.48007e-16 -0 1.48029e-16)
(1.48031e-16 -8.6101e-18 -0 1.48025e-16 -0 1.48033e-16)
(1.47985e-16 -8.85919e-18 -0 1.48077e-16 -0 1.48027e-16)
(1.4805e-16 -6.88162e-18 -0 1.48011e-16 -0 1.48029e-16)
(1.48064e-16 -6.82113e-18 -0 1.47994e-16 -0 1.48031e-16)
(1.48033e-16 -6.45748e-18 -0 1.48025e-16 -0 1.48031e-16)
(1.47984e-16 -6.66366e-18 -0 1.48076e-16 -0 1.4803e-16)
(1.48049e-16 -5.1956e-18 -0 1.48009e-16 -0 1.48031e-16)
(1.48066e-16 -5.1717e-18 -0 1.47994e-16 -0 1.48029e-16)
(1.48033e-16 -4.79621e-18 -0 1.48025e-16 -0 1.48031e-16)
(1.4798e-16 -4.92976e-18 -0 1.4808e-16 -0 1.48029e-16)
(1.48039e-16 -3.81021e-18 -0 1.48022e-16 -0 1.48028e-16)
(1.48074e-16 -3.77723e-18 -0 1.47986e-16 -0 1.48029e-16)
(1.4804e-16 -3.48961e-18 -0 1.48019e-16 -0 1.4803e-16)
(1.4798e-16 -3.57545e-18 -0 1.48079e-16 -0 1.4803e-16)
(1.48039e-16 -2.66356e-18 -0 1.48021e-16 -0 1.4803e-16)
(1.48075e-16 -2.65664e-18 -0 1.47986e-16 -0 1.48028e-16)
(1.48041e-16 -2.51456e-18 -0 1.48017e-16 -0 1.48031e-16)
(1.47983e-16 -2.53939e-18 -0 1.48072e-16 -0 1.48034e-16)
(1.48032e-16 -1.81797e-18 -0 1.48029e-16 -0 1.48028e-16)
(1.48076e-16 -1.79096e-18 -0 1.47985e-16 -0 1.48028e-16)
(1.48036e-16 -1.75694e-18 -0 1.4803e-16 -0 1.48023e-16)
(1.47972e-16 -1.73861e-18 -0 1.48096e-16 -0 1.48021e-16)
(1.48039e-16 -1.1684e-18 -0 1.48017e-16 -0 1.48033e-16)
(1.48082e-16 -1.16387e-18 -0 1.47972e-16 -0 1.48036e-16)
(1.48053e-16 -1.20366e-18 -0 1.47994e-16 -0 1.48042e-16)
(1.47988e-16 -1.13699e-18 -0 1.48067e-16 -0 1.48035e-16)
(1.48028e-16 -6.92886e-19 -0 1.48035e-16 -0 1.48026e-16)
(1.48066e-16 -6.53079e-19 -0 1.48e-16 -0 1.48023e-16)
(1.48038e-16 -7.64798e-19 -0 1.48027e-16 -0 1.48025e-16)
(1.47987e-16 -6.61758e-19 -0 1.48073e-16 -0 1.4803e-16)
(1.48037e-16 -2.8463e-19 -0 1.4802e-16 -0 1.48032e-16)
(1.48076e-16 -2.54509e-19 -0 1.47978e-16 -0 1.48036e-16)
(1.4804e-16 -4.32627e-19 -0 1.4802e-16 -0 1.4803e-16)
(1.47983e-16 -2.98407e-19 -0 1.48083e-16 -0 1.48023e-16)
(1.48032e-16 2.42461e-20 -0 1.48026e-16 -0 1.4803e-16)
(1.48064e-16 1.03588e-19 -0 1.47995e-16 -0 1.4803e-16)
(1.4805e-16 -1.46557e-19 -0 1.48e-16 -0 1.48039e-16)
(1.48013e-16 1.44712e-20 -0 1.4803e-16 -0 1.48046e-16)
)
;

boundaryField
{
    topWall
    {
        type            kqRWallFunction;
        value           nonuniform List<symmTensor> 0();
    }
    botWall
    {
        type            kqRWallFunction;
        value           nonuniform List<symmTensor> 0();
    }
    inlet
    {
        type            cyclic;
    }
    outlet
    {
        type            cyclic;
    }
    fixWall
    {
        type            empty;
    }
    procBoundary5to4
    {
        type            processor;
        value           nonuniform List<symmTensor> 8((1.77716e-16 -4.45044e-17 -0 1.77652e-16 -0 1.77691e-16) (1.77369e-16 -4.41343e-17 -0 1.77386e-16 -0 1.77372e-16) (1.7751e-16 -4.45919e-17 -0 1.77589e-16 -0 1.77557e-16) (1.77655e-16 -4.4685e-17 -0 1.77608e-16 -0 1.77636e-16) (1.77805e-16 -4.44027e-17 -0 1.7778e-16 -0 1.77783e-16) (1.77553e-16 -4.43352e-17 -0 1.77579e-16 -0 1.77573e-16) (1.77805e-16 -4.4374e-17 -0 1.77773e-16 -0 1.77803e-16) (1.775e-16 -4.45663e-17 -0 1.77504e-16 -0 1.77496e-16));
    }
    procBoundary5to6
    {
        type            processor;
        value           nonuniform List<symmTensor> 8((1.48042e-16 3.42024e-19 -0 1.48023e-16 -0 1.48025e-16) (1.48035e-16 2.67368e-20 -0 1.48025e-16 -0 1.4803e-16) (1.47995e-16 2.13394e-19 -0 1.48067e-16 -0 1.48027e-16) (1.48025e-16 3.49971e-19 -0 1.48034e-16 -0 1.48031e-16) (1.48032e-16 3.38135e-19 -0 1.48034e-16 -0 1.48023e-16) (1.48054e-16 3.53261e-19 -0 1.48012e-16 -0 1.48023e-16) (1.48018e-16 1.03864e-19 -0 1.48059e-16 -0 1.48012e-16) (1.47993e-16 2.76999e-19 -0 1.48073e-16 -0 1.48023e-16));
    }
}


// ************************************************************************* //
