/*--------------------------------*- C++ -*----------------------------------*\
  =========                 |
  \\      /  F ield         | OpenFOAM: The Open Source CFD Toolbox
   \\    /   O peration     | Website:  https://openfoam.org
    \\  /    A nd           | Version:  dev
     \\/     M anipulation  |

   OpenFOAM for Windows 20.09 (v1)
   Built by CFD Support, www.cfdsupport.com (based on Symscape).
\*---------------------------------------------------------------------------*/
FoamFile
{
    version     2.0;
    format      ascii;
    class       volVectorField;
    location    "4";
    object      U;
}
// * * * * * * * * * * * * * * * * * * * * * * * * * * * * * * * * * * * * * //

dimensions      [0 1 -1 0 0 0 0];

internalField   nonuniform List<vector> 
120
(
(0.225122 -1.47557e-06 0)
(0.224999 -1.64635e-06 0)
(0.225128 1.84773e-05 0)
(0.225205 2.28193e-06 0)
(0.227095 -2.79883e-06 0)
(0.226948 2.74476e-07 0)
(0.227096 1.55285e-05 0)
(0.227175 4.07274e-07 0)
(0.228659 1.63383e-06 0)
(0.228487 -1.45396e-07 0)
(0.228649 1.5105e-05 0)
(0.228732 4.58726e-06 0)
(0.229882 -6.30674e-07 0)
(0.229692 -1.64953e-07 0)
(0.229866 1.16289e-05 0)
(0.229951 1.15432e-06 0)
(0.230836 3.49588e-06 0)
(0.230628 1.01349e-06 0)
(0.230811 1.00131e-05 0)
(0.230897 6.1955e-06 0)
(0.231571 2.95274e-06 0)
(0.231349 9.71122e-07 0)
(0.231539 7.55779e-06 0)
(0.231625 2.6474e-06 0)
(0.232134 5.39402e-06 0)
(0.2319 1.2851e-06 0)
(0.232093 5.11544e-06 0)
(0.232178 5.91432e-06 0)
(0.23256 6.16751e-06 0)
(0.232318 1.8994e-06 0)
(0.232512 3.23508e-06 0)
(0.232597 3.67906e-06 0)
(0.232878 7.58698e-06 0)
(0.23263 2.26731e-06 0)
(0.232824 2.34868e-07 0)
(0.232906 5.10584e-06 0)
(0.233111 9.79122e-06 0)
(0.232863 3.23352e-06 0)
(0.233054 -1.31268e-06 0)
(0.233135 3.80419e-06 0)
(0.233278 1.05011e-05 0)
(0.233032 4.16357e-06 0)
(0.233219 -4.23163e-06 0)
(0.233295 4.07809e-06 0)
(0.233392 1.13363e-05 0)
(0.233155 3.21175e-06 0)
(0.233335 -6.02795e-06 0)
(0.23341 3.04858e-06 0)
(0.233465 1.42371e-05 0)
(0.233238 5.90248e-06 0)
(0.23341 -7.86855e-06 0)
(0.233478 2.86696e-06 0)
(0.233503 1.3919e-05 0)
(0.233296 4.72123e-06 0)
(0.233454 -9.82176e-06 0)
(0.233524 2.21873e-06 0)
(0.233512 1.48995e-05 0)
(0.233324 5.60651e-06 0)
(0.23347 -1.24066e-05 0)
(0.233529 1.84208e-06 0)
(0.225049 1.31242e-05 0)
(0.225101 -2.39218e-05 0)
(0.225105 -1.44457e-05 0)
(0.225111 1.02232e-05 0)
(0.22701 1.4475e-05 0)
(0.227058 -2.65465e-05 0)
(0.227041 -1.55785e-05 0)
(0.227074 1.04195e-05 0)
(0.228567 1.30621e-05 0)
(0.228605 -2.64306e-05 0)
(0.228563 -1.55071e-05 0)
(0.228627 1.01992e-05 0)
(0.22979 1.78724e-05 0)
(0.229821 -2.53195e-05 0)
(0.229755 -1.52358e-05 0)
(0.229843 8.22916e-06 0)
(0.230753 1.47589e-05 0)
(0.230775 -2.69806e-05 0)
(0.230677 -1.65628e-05 0)
(0.230789 8.968e-06 0)
(0.231493 1.97189e-05 0)
(0.231509 -2.39146e-05 0)
(0.231388 -1.57626e-05 0)
(0.231521 6.20747e-06 0)
(0.232073 1.6973e-05 0)
(0.232084 -2.53664e-05 0)
(0.231929 -1.59902e-05 0)
(0.232078 5.30203e-06 0)
(0.232507 2.10217e-05 0)
(0.232513 -2.11347e-05 0)
(0.232338 -1.52814e-05 0)
(0.232501 2.84839e-06 0)
(0.232851 1.85818e-05 0)
(0.232859 -2.27874e-05 0)
(0.232647 -1.56015e-05 0)
(0.232816 1.49479e-06 0)
(0.23309 2.15112e-05 0)
(0.233091 -1.77827e-05 0)
(0.232871 -1.43939e-05 0)
(0.233048 -8.26797e-07 0)
(0.233269 1.92655e-05 0)
(0.233276 -1.95109e-05 0)
(0.233041 -1.44722e-05 0)
(0.233214 -1.51564e-06 0)
(0.233385 2.14185e-05 0)
(0.233381 -1.42992e-05 0)
(0.233155 -1.49612e-05 0)
(0.233328 -6.86668e-06 0)
(0.233465 2.05922e-05 0)
(0.233472 -1.41807e-05 0)
(0.233242 -1.04164e-05 0)
(0.233403 -4.19667e-06 0)
(0.233505 2.06335e-05 0)
(0.233495 -1.2228e-05 0)
(0.233288 -1.51354e-05 0)
(0.233443 -1.06366e-05 0)
(0.233517 2.16192e-05 0)
(0.233518 -8.90511e-06 0)
(0.23332 -9.50489e-06 0)
(0.233457 -9.59263e-06 0)
)
;

boundaryField
{
    topWall
    {
        type            noSlip;
    }
    botWall
    {
        type            noSlip;
    }
    inlet
    {
        type            cyclic;
    }
    outlet
    {
        type            cyclic;
    }
    fixWall
    {
        type            empty;
    }
    procBoundary5to4
    {
        type            processor;
        value           nonuniform List<vector> 8((0.222647 -2.5365e-06 0) (0.22255 1.79783e-06 0) (0.222658 1.89926e-05 0) (0.222727 1.0868e-06 0) (0.222589 1.12266e-05 0) (0.222647 -2.68551e-05 0) (0.222662 -1.73893e-05 0) (0.222641 1.32498e-05 0));
    }
    procBoundary5to6
    {
        type            processor;
        value           nonuniform List<vector> 8((0.233493 1.74908e-05 0) (0.233337 7.96364e-06 0) (0.233462 -1.35873e-05 0) (0.233526 1.89842e-06 0) (0.233501 2.1022e-05 0) (0.233476 -8.92289e-06 0) (0.233315 -1.13586e-05 0) (0.23344 -9.10298e-06 0));
    }
}


// ************************************************************************* //
