/*--------------------------------*- C++ -*----------------------------------*\
  =========                 |
  \\      /  F ield         | OpenFOAM: The Open Source CFD Toolbox
   \\    /   O peration     | Website:  https://openfoam.org
    \\  /    A nd           | Version:  dev
     \\/     M anipulation  |

   OpenFOAM for Windows 20.09 (v1)
   Built by CFD Support, www.cfdsupport.com (based on Symscape).
\*---------------------------------------------------------------------------*/
FoamFile
{
    version     2.0;
    format      ascii;
    class       volVectorField;
    location    "4";
    object      UMean;
}
// * * * * * * * * * * * * * * * * * * * * * * * * * * * * * * * * * * * * * //

dimensions      [0 1 -1 0 0 0 0];

internalField   nonuniform List<vector> 
120
(
(0.200859 -3.16817e-06 0)
(0.200751 -6.52196e-07 0)
(0.200862 1.36357e-05 0)
(0.20092 -1.69832e-07 0)
(0.202379 -3.25838e-06 0)
(0.202251 -6.23491e-07 0)
(0.202376 1.10294e-05 0)
(0.202436 -1.47441e-06 0)
(0.203567 -1.14392e-06 0)
(0.203418 5.35741e-07 0)
(0.203554 1.04419e-05 0)
(0.203617 2.14504e-06 0)
(0.204482 -9.75784e-07 0)
(0.204319 -9.98971e-07 0)
(0.204463 8.0578e-06 0)
(0.204528 -7.2251e-07 0)
(0.205185 3.80192e-07 0)
(0.205008 1.61556e-06 0)
(0.205159 6.33703e-06 0)
(0.205224 3.77593e-06 0)
(0.205719 1.97021e-06 0)
(0.205532 -1.56103e-07 0)
(0.205687 4.65149e-06 0)
(0.205752 8.86555e-07 0)
(0.206122 2.30122e-06 0)
(0.205926 1.90003e-06 0)
(0.206084 2.64179e-06 0)
(0.206148 3.93846e-06 0)
(0.206423 4.28029e-06 0)
(0.206221 1.14958e-06 0)
(0.206379 1.2137e-06 0)
(0.206443 2.18691e-06 0)
(0.206643 4.69298e-06 0)
(0.206439 2.35935e-06 0)
(0.206596 -1.16987e-06 0)
(0.206657 3.75796e-06 0)
(0.206803 6.76584e-06 0)
(0.2066 2.70142e-06 0)
(0.206754 -2.32791e-06 0)
(0.206814 2.95914e-06 0)
(0.206915 7.54275e-06 0)
(0.206716 3.4454e-06 0)
(0.206864 -4.7499e-06 0)
(0.20692 3.52443e-06 0)
(0.20699 7.99414e-06 0)
(0.2068 2.93959e-06 0)
(0.206942 -5.93554e-06 0)
(0.206996 2.7123e-06 0)
(0.207037 1.03973e-05 0)
(0.206856 5.27566e-06 0)
(0.206989 -7.31741e-06 0)
(0.207037 3.18977e-06 0)
(0.20706 1.0089e-05 0)
(0.206897 3.73224e-06 0)
(0.207018 -9.0278e-06 0)
(0.207064 2.39984e-06 0)
(0.207064 1.11124e-05 0)
(0.206917 5.60061e-06 0)
(0.207024 -1.02054e-05 0)
(0.20706 2.47071e-06 0)
(0.200781 7.01309e-06 0)
(0.200825 -1.39029e-05 0)
(0.200837 -9.31212e-06 0)
(0.200852 8.83012e-06 0)
(0.202291 8.36816e-06 0)
(0.202331 -1.57535e-05 0)
(0.202325 -1.01716e-05 0)
(0.202363 8.59881e-06 0)
(0.20347 7.99312e-06 0)
(0.203497 -1.58159e-05 0)
(0.203474 -1.02188e-05 0)
(0.203541 8.85239e-06 0)
(0.204383 1.09122e-05 0)
(0.204403 -1.50982e-05 0)
(0.204363 -1.04213e-05 0)
(0.20445 6.37559e-06 0)
(0.205088 9.92711e-06 0)
(0.205101 -1.6379e-05 0)
(0.205042 -1.15921e-05 0)
(0.205148 7.59585e-06 0)
(0.205624 1.30413e-05 0)
(0.205633 -1.41748e-05 0)
(0.205558 -1.12896e-05 0)
(0.20568 4.47449e-06 0)
(0.206036 1.19175e-05 0)
(0.206043 -1.55068e-05 0)
(0.205946 -1.16916e-05 0)
(0.206079 4.35076e-06 0)
(0.206342 1.4673e-05 0)
(0.206345 -1.25549e-05 0)
(0.206236 -1.15542e-05 0)
(0.206378 1.69193e-06 0)
(0.206579 1.36408e-05 0)
(0.206584 -1.39476e-05 0)
(0.206451 -1.2018e-05 0)
(0.206597 1.00503e-06 0)
(0.206744 1.58007e-05 0)
(0.206744 -1.05111e-05 0)
(0.206606 -1.15712e-05 0)
(0.206756 -1.25708e-06 0)
(0.206869 1.49955e-05 0)
(0.206873 -1.18752e-05 0)
(0.206722 -1.18626e-05 0)
(0.206868 -1.65944e-06 0)
(0.206949 1.58181e-05 0)
(0.206946 -8.47772e-06 0)
(0.206799 -1.25035e-05 0)
(0.206943 -6.01996e-06 0)
(0.20701 1.66959e-05 0)
(0.207014 -8.40176e-06 0)
(0.206857 -9.44844e-06 0)
(0.206992 -3.99995e-06 0)
(0.207038 1.58099e-05 0)
(0.207031 -7.0595e-06 0)
(0.206887 -1.2884e-05 0)
(0.207016 -9.01327e-06 0)
(0.207052 1.68154e-05 0)
(0.207054 -5.00355e-06 0)
(0.206909 -9.16926e-06 0)
(0.207024 -8.31349e-06 0)
)
;

boundaryField
{
    topWall
    {
        type            calculated;
        value           nonuniform List<vector> 0();
    }
    botWall
    {
        type            calculated;
        value           nonuniform List<vector> 0();
    }
    inlet
    {
        type            cyclic;
    }
    outlet
    {
        type            cyclic;
    }
    fixWall
    {
        type            empty;
    }
    procBoundary5to4
    {
        type            processor;
        value           nonuniform List<vector> 8((0.198921 -3.84045e-06 0) (0.198838 6.32835e-07 0) (0.198931 1.34727e-05 0) (0.198983 -7.91027e-07 0) (0.19886 6.34759e-06 0) (0.198911 -1.54219e-05 0) (0.198931 -1.12264e-05 0) (0.198918 1.1137e-05 0));
    }
    procBoundary5to6
    {
        type            processor;
        value           nonuniform List<vector> 8((0.207048 1.29918e-05 0) (0.206929 6.57381e-06 0) (0.207017 -1.15141e-05 0) (0.207051 2.65177e-06 0) (0.207046 1.71262e-05 0) (0.207031 -4.57048e-06 0) (0.206907 -1.0474e-05 0) (0.207011 -7.95847e-06 0));
    }
}


// ************************************************************************* //
