/*--------------------------------*- C++ -*----------------------------------*\
  =========                 |
  \\      /  F ield         | OpenFOAM: The Open Source CFD Toolbox
   \\    /   O peration     | Website:  https://openfoam.org
    \\  /    A nd           | Version:  dev
     \\/     M anipulation  |

   OpenFOAM for Windows 20.09 (v1)
   Built by CFD Support, www.cfdsupport.com (based on Symscape).
\*---------------------------------------------------------------------------*/
FoamFile
{
    version     2.0;
    format      ascii;
    class       volSymmTensorField;
    location    "4";
    object      UPrime2Mean;
}
// * * * * * * * * * * * * * * * * * * * * * * * * * * * * * * * * * * * * * //

dimensions      [0 2 -2 0 0 0 0];

internalField   nonuniform List<symmTensor> 
120
(
(0.000908536 6.33783e-08 0 4.42119e-12 0 0)
(0.0009074 -3.72021e-08 0 1.52523e-12 0 0)
(0.000908719 1.81308e-07 0 3.61747e-11 0 0)
(0.000910137 9.18852e-08 0 9.27651e-12 0 0)
(0.000942721 1.75281e-08 0 3.25901e-13 0 0)
(0.00094126 3.42238e-08 0 1.24436e-12 0 0)
(0.000942972 1.7163e-07 0 3.12382e-11 0 0)
(0.000944469 7.18379e-08 0 5.46411e-12 0 0)
(0.000971689 1.07565e-07 0 1.19073e-11 0 0)
(0.000969849 -2.63511e-08 0 7.1597e-13 0 0)
(0.000971818 1.80584e-07 0 3.35562e-11 0 0)
(0.0009734 9.46552e-08 0 9.20445e-12 0 0)
(0.000995646 1.35277e-08 0 1.83799e-13 0 0)
(0.000993541 3.26574e-08 0 1.07344e-12 0 0)
(0.000995817 1.39991e-07 0 1.96797e-11 0 0)
(0.000997439 7.36344e-08 0 5.43594e-12 0 0)
(0.00101541 1.23336e-07 0 1.49808e-11 0 0)
(0.00101296 -2.38047e-08 0 5.59412e-13 0 0)
(0.00101544 1.45523e-07 0 2.08548e-11 0 0)
(0.00101711 9.58599e-08 0 9.03452e-12 0 0)
(0.00103138 3.91984e-08 0 1.48977e-12 0 0)
(0.00102864 4.49112e-08 0 1.96087e-12 0 0)
(0.00103133 1.15945e-07 0 1.30349e-11 0 0)
(0.00103301 7.0305e-08 0 4.78486e-12 0 0)
(0.00104417 1.24151e-07 0 1.47615e-11 0 0)
(0.00104112 -2.46485e-08 0 5.83551e-13 0 0)
(0.00104396 9.92873e-08 0 9.44288e-12 0 0)
(0.00104566 7.93714e-08 0 6.02475e-12 0 0)
(0.00105427 7.61219e-08 0 5.49628e-12 0 0)
(0.00105097 3.01969e-08 0 8.67635e-13 0 0)
(0.00105391 8.152e-08 0 6.30556e-12 0 0)
(0.0010556 6.02249e-08 0 3.43601e-12 0 0)
(0.00106209 1.17163e-07 0 1.29247e-11 0 0)
(0.00105857 -3.72016e-09 0 1.30738e-14 0 0)
(0.0010616 5.68575e-08 0 3.0452e-12 0 0)
(0.00106329 5.45993e-08 0 2.80366e-12 0 0)
(0.00106807 1.22826e-07 0 1.41249e-11 0 0)
(0.00106441 2.15658e-08 0 4.36939e-13 0 0)
(0.00106747 4.12056e-08 0 1.59059e-12 0 0)
(0.00106915 3.4325e-08 0 1.102e-12 0 0)
(0.00107251 1.20357e-07 0 1.35063e-11 0 0)
(0.00106874 2.91661e-08 0 7.95946e-13 0 0)
(0.00107185 2.10784e-08 0 4.14516e-13 0 0)
(0.00107352 2.25353e-08 0 4.73061e-13 0 0)
(0.0010757 1.36172e-07 0 1.7238e-11 0 0)
(0.00107193 1.10696e-08 0 1.14314e-13 0 0)
(0.001075 -3.76373e-09 0 1.31774e-14 0 0)
(0.00107674 1.3708e-08 0 1.74517e-13 0 0)
(0.00107783 1.56601e-07 0 2.27531e-11 0 0)
(0.00107409 2.55196e-08 0 6.06328e-13 0 0)
(0.00107723 -2.24717e-08 0 4.68776e-13 0 0)
(0.00107894 -1.3172e-08 0 1.60808e-13 0 0)
(0.00107908 1.56294e-07 0 2.26377e-11 0 0)
(0.00107546 4.02903e-08 0 1.50941e-12 0 0)
(0.00107851 -3.23908e-08 0 9.72791e-13 0 0)
(0.0010805 -7.39566e-09 0 5.0621e-14 0 0)
(0.00107945 1.54571e-07 0 2.21336e-11 0 0)
(0.0010761 2.40401e-10 0 5.37055e-17 0 0)
(0.00107932 -8.9836e-08 0 7.47741e-12 0 0)
(0.00108121 -2.56779e-08 0 6.0983e-13 0 0)
(0.000908829 2.28863e-07 0 5.7633e-11 0 0)
(0.000909446 -3.75338e-07 0 1.54906e-10 0 0)
(0.000908829 -1.92252e-07 0 4.06686e-11 0 0)
(0.000908211 5.21548e-08 0 2.99503e-12 0 0)
(0.000942934 2.32953e-07 0 5.75512e-11 0 0)
(0.000943562 -4.11854e-07 0 1.7977e-10 0 0)
(0.000942696 -2.06227e-07 0 4.5115e-11 0 0)
(0.00094234 6.94325e-08 0 5.11585e-12 0 0)
(0.000972046 1.96325e-07 0 3.96518e-11 0 0)
(0.000972892 -4.11297e-07 0 1.73879e-10 0 0)
(0.000971424 -2.04754e-07 0 4.31576e-11 0 0)
(0.000971168 5.21403e-08 0 2.79932e-12 0 0)
(0.000996222 2.72903e-07 0 7.47586e-11 0 0)
(0.000996989 -4.00927e-07 0 1.61228e-10 0 0)
(0.000994997 -1.88659e-07 0 3.5771e-11 0 0)
(0.000995046 7.26346e-08 0 5.30205e-12 0 0)
(0.0010165 1.91372e-07 0 3.60289e-11 0 0)
(0.00101715 -4.20028e-07 0 1.73448e-10 0 0)
(0.00101418 -1.96646e-07 0 3.81291e-11 0 0)
(0.00101465 5.42965e-08 0 2.90555e-12 0 0)
(0.00103275 2.66582e-07 0 6.88126e-11 0 0)
(0.00103323 -3.88919e-07 0 1.46394e-10 0 0)
(0.00102958 -1.78293e-07 0 3.08751e-11 0 0)
(0.0010305 6.91084e-08 0 4.63463e-12 0 0)
(0.0010462 2.03136e-07 0 3.94422e-11 0 0)
(0.00104658 -3.96242e-07 0 1.5002e-10 0 0)
(0.00104183 -1.7236e-07 0 2.8515e-11 0 0)
(0.00104314 3.81667e-08 0 1.39646e-12 0 0)
(0.00105655 2.56357e-07 0 6.22012e-11 0 0)
(0.00105679 -3.46484e-07 0 1.136e-10 0 0)
(0.00105144 -1.50139e-07 0 2.14388e-11 0 0)
(0.00105314 4.66214e-08 0 2.06388e-12 0 0)
(0.00106515 2.00327e-07 0 3.76764e-11 0 0)
(0.00106542 -3.58442e-07 0 1.20591e-10 0 0)
(0.00105898 -1.44864e-07 0 1.98169e-11 0 0)
(0.00106085 1.98162e-08 0 3.70157e-13 0 0)
(0.00107116 2.32175e-07 0 5.0324e-11 0 0)
(0.00107126 -2.95657e-07 0 8.15985e-11 0 0)
(0.00106461 -1.14415e-07 0 1.22964e-11 0 0)
(0.00106677 1.74585e-08 0 2.8572e-13 0 0)
(0.00107561 1.73967e-07 0 2.81371e-11 0 0)
(0.00107584 -3.11127e-07 0 8.99762e-11 0 0)
(0.001069 -1.05993e-07 0 1.05093e-11 0 0)
(0.00107116 5.84651e-09 0 3.19108e-14 0 0)
(0.00107848 2.28476e-07 0 4.84029e-11 0 0)
(0.00107845 -2.37492e-07 0 5.22994e-11 0 0)
(0.00107201 -9.99668e-08 0 9.3221e-12 0 0)
(0.00107432 -3.44761e-08 0 1.10637e-12 0 0)
(0.00108009 1.59072e-07 0 2.34275e-11 0 0)
(0.00108027 -2.35953e-07 0 5.15373e-11 0 0)
(0.00107435 -3.94133e-08 0 1.44591e-12 0 0)
(0.00107649 -8.01802e-09 0 5.97205e-14 0 0)
(0.00108108 1.9702e-07 0 3.59057e-11 0 0)
(0.00108082 -2.11083e-07 0 4.12241e-11 0 0)
(0.00107559 -9.1723e-08 0 7.82186e-12 0 0)
(0.00107773 -6.62023e-08 0 4.06663e-12 0 0)
(0.00108086 1.9619e-07 0 3.56108e-11 0 0)
(0.00108082 -1.59341e-07 0 2.34911e-11 0 0)
(0.00107646 -1.36798e-08 0 1.73845e-13 0 0)
(0.00107825 -5.21781e-08 0 2.52499e-12 0 0)
)
;

boundaryField
{
    topWall
    {
        type            calculated;
        value           nonuniform List<symmTensor> 0();
    }
    botWall
    {
        type            calculated;
        value           nonuniform List<symmTensor> 0();
    }
    inlet
    {
        type            cyclic;
    }
    outlet
    {
        type            cyclic;
    }
    fixWall
    {
        type            empty;
    }
    procBoundary5to4
    {
        type            processor;
        value           nonuniform List<symmTensor> 8((0.000868682 4.77425e-08 0 2.62391e-12 0 0) (0.000867721 4.26313e-08 0 2.09449e-12 0 0) (0.00086875 2.02112e-07 0 4.70207e-11 0 0) (0.000870024 6.88074e-08 0 5.44176e-12 0 0) (0.000868957 1.78668e-07 0 3.67364e-11 0 0) (0.000869419 -4.18789e-07 0 2.01726e-10 0 0) (0.00086904 -2.25694e-07 0 5.86136e-11 0 0) (0.000868483 7.73496e-08 0 6.88898e-12 0 0));
    }
    procBoundary5to6
    {
        type            processor;
        value           nonuniform List<symmTensor> 8((0.00107917 1.83602e-07 0 3.12366e-11 0 0) (0.00107615 5.66385e-08 0 2.98091e-12 0 0) (0.00107927 -8.46095e-08 0 6.63294e-12 0 0) (0.00108168 -3.07792e-08 0 8.75824e-13 0 0) (0.00108007 1.59052e-07 0 2.34223e-11 0 0) (0.00107927 -1.77627e-07 0 2.92339e-11 0 0) (0.00107629 -3.60526e-08 0 1.20766e-12 0 0) (0.00107793 -4.66796e-08 0 2.02145e-12 0 0));
    }
}


// ************************************************************************* //
