/*--------------------------------*- C++ -*----------------------------------*\
  =========                 |
  \\      /  F ield         | OpenFOAM: The Open Source CFD Toolbox
   \\    /   O peration     | Website:  https://openfoam.org
    \\  /    A nd           | Version:  dev
     \\/     M anipulation  |

   OpenFOAM for Windows 20.09 (v1)
   Built by CFD Support, www.cfdsupport.com (based on Symscape).
\*---------------------------------------------------------------------------*/
FoamFile
{
    version     2.0;
    format      ascii;
    class       surfaceScalarField;
    location    "2";
    object      alphaPhi0.water;
}
// * * * * * * * * * * * * * * * * * * * * * * * * * * * * * * * * * * * * * //

dimensions      [0 3 -1 0 0 0 0];

internalField   nonuniform List<scalar> 
217
(
1.30877e-08
-1.50659e-10
1.31177e-08
-5.06814e-10
1.31164e-08
1.63628e-10
4.65435e-10
1.30903e-08
1.31521e-08
-1.65893e-10
1.31808e-08
-5.35462e-10
1.31842e-08
1.6019e-10
4.9043e-10
1.31592e-08
1.31981e-08
-1.81221e-10
1.32272e-08
-5.6452e-10
1.32332e-08
1.54181e-10
5.14582e-10
1.3209e-08
1.32314e-08
-1.96347e-10
1.32607e-08
-5.93851e-10
1.32682e-08
1.46674e-10
5.38447e-10
1.32444e-08
1.32547e-08
-2.11881e-10
1.32845e-08
-6.23612e-10
1.32929e-08
1.3826e-10
5.62167e-10
1.32692e-08
1.32711e-08
-2.27533e-10
1.33012e-08
-6.53756e-10
1.33101e-08
1.29428e-10
5.85964e-10
1.32863e-08
1.32824e-08
-2.43482e-10
1.33128e-08
-6.84204e-10
1.33216e-08
1.20581e-10
6.09554e-10
1.32981e-08
1.32898e-08
-2.5935e-10
1.33206e-08
-7.14955e-10
1.33295e-08
1.11718e-10
6.33119e-10
1.33059e-08
1.3295e-08
-2.7517e-10
1.33259e-08
-7.45871e-10
1.33347e-08
1.02922e-10
6.56549e-10
1.33112e-08
1.32981e-08
-2.90468e-10
1.3329e-08
-7.76814e-10
1.33379e-08
9.4066e-11
6.79755e-10
1.33147e-08
1.33004e-08
-3.05425e-10
1.3331e-08
-8.07392e-10
1.33399e-08
8.52432e-11
7.02247e-10
1.33174e-08
1.33017e-08
-3.18929e-10
1.33313e-08
-8.37044e-10
1.33404e-08
7.61763e-11
7.23731e-10
1.33189e-08
1.33032e-08
-3.31318e-10
1.33311e-08
-8.64942e-10
1.33403e-08
6.69294e-11
7.43528e-10
1.33205e-08
1.33041e-08
-3.41641e-10
1.3329e-08
-8.89867e-10
1.33387e-08
5.71385e-11
7.60795e-10
1.33215e-08
1.33059e-08
1.33265e-08
1.33365e-08
1.33225e-08
1.30855e-08
6.17684e-11
1.30863e-08
-1.22388e-10
1.30875e-08
-3.06168e-10
3.84899e-10
1.3154e-08
6.6952e-11
1.31499e-08
-1.18226e-10
1.31539e-08
-3.10234e-10
4.01934e-10
1.32026e-08
7.34213e-11
1.31961e-08
-1.11742e-10
1.31986e-08
-3.12773e-10
4.17751e-10
1.32379e-08
7.99042e-11
1.32303e-08
-1.04211e-10
1.32319e-08
-3.14287e-10
4.33341e-10
1.32623e-08
8.67852e-11
1.32538e-08
-9.57162e-11
1.32543e-08
-3.14766e-10
4.48439e-10
1.32797e-08
9.33277e-11
1.32713e-08
-8.72708e-11
1.32707e-08
-3.14181e-10
4.63723e-10
1.32915e-08
9.99205e-11
1.32829e-08
-7.86662e-11
1.32817e-08
-3.12952e-10
4.78996e-10
1.32997e-08
1.06157e-10
1.32913e-08
-7.03081e-11
1.32897e-08
-3.11267e-10
4.94704e-10
1.33051e-08
1.12372e-10
1.32966e-08
-6.18733e-11
1.32949e-08
-3.09448e-10
5.10413e-10
1.33087e-08
1.18409e-10
1.33005e-08
-5.3709e-11
1.3299e-08
-3.07864e-10
5.26599e-10
1.33111e-08
1.24667e-10
1.33026e-08
-4.51531e-11
1.33016e-08
-3.06867e-10
5.42714e-10
1.33128e-08
1.30779e-10
1.33044e-08
-3.67306e-11
1.33044e-08
-3.06828e-10
5.58887e-10
1.33143e-08
1.37051e-10
1.33051e-08
-2.75616e-11
1.33061e-08
-3.07804e-10
5.74157e-10
1.33157e-08
1.42871e-10
1.33065e-08
-1.83883e-11
1.33087e-08
-3.09975e-10
5.8907e-10
1.33163e-08
1.33105e-08
1.33065e-08
)
;

boundaryField
{
    topWall
    {
        type            calculated;
        value           nonuniform List<scalar> 0();
    }
    botWall
    {
        type            calculated;
        value           nonuniform List<scalar> 0();
    }
    inlet
    {
        type            cyclic;
        value           nonuniform List<scalar> 
15
(
-1.32992e-08
-1.32937e-08
-1.32908e-08
-1.32882e-08
-1.32855e-08
-1.32828e-08
-1.32791e-08
-1.3274e-08
-1.32664e-08
-1.32554e-08
-1.32392e-08
-1.32163e-08
-1.31828e-08
-1.31369e-08
-1.30725e-08
)
;
    }
    outlet
    {
        type            cyclic;
        value           nonuniform List<scalar> 
15
(
1.32992e-08
1.32937e-08
1.32908e-08
1.32882e-08
1.32855e-08
1.32828e-08
1.32791e-08
1.3274e-08
1.32664e-08
1.32554e-08
1.32392e-08
1.32163e-08
1.31828e-08
1.31369e-08
1.30725e-08
)
;
    }
    fixWall
    {
        type            empty;
        value           nonuniform List<scalar> 0();
    }
    procBoundary1to0
    {
        type            processor;
        value           nonuniform List<scalar> 8(1.34826e-10 4.75301e-10 -1.62265e-10 -4.39086e-10 -5.98587e-11 1.20811e-10 3.04896e-10 -3.70834e-10);
    }
    procBoundary1to2
    {
        type            processor;
        value           nonuniform List<scalar> 8(-3.48731e-10 -9.10493e-10 4.80225e-11 7.75679e-10 1.4739e-10 -1.41371e-11 -3.04599e-10 5.97378e-10);
    }
}


// ************************************************************************* //
