/*--------------------------------*- C++ -*----------------------------------*\
  =========                 |
  \\      /  F ield         | OpenFOAM: The Open Source CFD Toolbox
   \\    /   O peration     | Website:  https://openfoam.org
    \\  /    A nd           | Version:  dev
     \\/     M anipulation  |

   OpenFOAM for Windows 20.09 (v1)
   Built by CFD Support, www.cfdsupport.com (based on Symscape).
\*---------------------------------------------------------------------------*/
FoamFile
{
    version     2.0;
    format      ascii;
    class       volSymmTensorField;
    location    "2";
    object      devReff;
}
// * * * * * * * * * * * * * * * * * * * * * * * * * * * * * * * * * * * * * //

dimensions      [0 2 -2 0 0 0 0];

internalField   nonuniform List<symmTensor> 
120
(
(-1.03568e-07 -2.36325e-05 -0 1.13054e-07 -0 -9.48627e-09)
(-3.17564e-07 -2.26021e-05 -0 3.22143e-07 -0 -4.5791e-09)
(7.19227e-09 -2.34122e-05 -0 -4.31442e-09 -0 -2.87785e-09)
(2.47283e-07 -2.45185e-05 -0 -2.5312e-07 -0 5.83677e-09)
(-9.65286e-08 -1.731e-05 -0 1.00311e-07 -0 -3.78234e-09)
(-3.16586e-07 -1.66704e-05 -0 3.16186e-07 -0 4.00004e-10)
(-2.65432e-08 -1.7414e-05 -0 3.30191e-08 -0 -6.4759e-09)
(2.27848e-07 -1.82525e-05 -0 -2.27086e-07 -0 -7.62637e-10)
(-9.53465e-08 -1.26146e-05 -0 1.0516e-07 -0 -9.81336e-09)
(-3.05362e-07 -1.21795e-05 -0 2.96663e-07 -0 8.69939e-09)
(-4.5963e-08 -1.27327e-05 -0 4.90678e-08 -0 -3.10482e-09)
(2.22393e-07 -1.33489e-05 -0 -2.29464e-07 -0 7.07175e-09)
(-8.87917e-08 -9.00791e-06 -0 8.89921e-08 -0 -2.00379e-10)
(-3.18044e-07 -8.83539e-06 -0 3.17669e-07 -0 3.74757e-10)
(-6.53871e-08 -9.28288e-06 -0 7.1515e-08 -0 -6.12794e-09)
(2.13852e-07 -9.61802e-06 -0 -2.16608e-07 -0 2.75585e-09)
(-9.53247e-08 -6.38409e-06 -0 1.02976e-07 -0 -7.65158e-09)
(-3.18778e-07 -6.31707e-06 -0 3.16987e-07 -0 1.79069e-09)
(-7.50116e-08 -6.62371e-06 -0 8.09168e-08 -0 -5.90521e-09)
(2.11867e-07 -6.80415e-06 -0 -2.15726e-07 -0 3.85922e-09)
(-9.59717e-08 -4.42674e-06 -0 1.01033e-07 -0 -5.0616e-09)
(-3.21113e-07 -4.4554e-06 -0 3.18605e-07 -0 2.50846e-09)
(-8.05767e-08 -4.66845e-06 -0 8.54944e-08 -0 -4.91772e-09)
(2.12186e-07 -4.74707e-06 -0 -2.17535e-07 -0 5.34936e-09)
(-9.99578e-08 -3.04853e-06 -0 1.09191e-07 -0 -9.23316e-09)
(-3.20979e-07 -3.11466e-06 -0 3.1627e-07 -0 4.70913e-09)
(-8.44447e-08 -3.23398e-06 -0 8.99462e-08 -0 -5.50144e-09)
(2.08029e-07 -3.25703e-06 -0 -2.10421e-07 -0 2.39202e-09)
(-9.60318e-08 -2.05963e-06 -0 9.98993e-08 -0 -3.86744e-09)
(-3.26933e-07 -2.11942e-06 -0 3.27125e-07 -0 -1.91696e-10)
(-8.5576e-08 -2.19519e-06 -0 9.06416e-08 -0 -5.06558e-09)
(2.08902e-07 -2.20196e-06 -0 -2.13705e-07 -0 4.80277e-09)
(-9.91271e-08 -1.40512e-06 -0 1.09376e-07 -0 -1.02485e-08)
(-3.20442e-07 -1.42716e-06 -0 3.13889e-07 -0 6.55334e-09)
(-8.71294e-08 -1.43185e-06 -0 9.24949e-08 -0 -5.36555e-09)
(2.05715e-07 -1.47269e-06 -0 -2.09305e-07 -0 3.58921e-09)
(-8.89884e-08 -9.79359e-07 -0 9.10877e-08 -0 -2.09935e-09)
(-3.26638e-07 -9.04926e-07 -0 3.28989e-07 -0 -2.35182e-09)
(-8.92621e-08 -8.31386e-07 -0 9.6453e-08 -0 -7.19091e-09)
(2.03295e-07 -9.58698e-07 -0 -2.09299e-07 -0 6.00473e-09)
(-9.12077e-08 -7.82891e-07 -0 1.03824e-07 -0 -1.26167e-08)
(-3.19234e-07 -5.65189e-07 -0 3.1989e-07 -0 -6.5597e-10)
(-8.84108e-08 -3.4042e-07 -0 9.32418e-08 -0 -4.83104e-09)
(1.86538e-07 -6.09252e-07 -0 -1.82757e-07 -0 -3.78156e-09)
(-8.70047e-08 -7.39245e-07 -0 1.01064e-07 -0 -1.40593e-08)
(-2.84417e-07 -2.71946e-07 -0 2.62934e-07 -0 2.1483e-08)
(-8.07572e-08 1.187e-07 -0 7.80036e-08 -0 2.75354e-09)
(1.83293e-07 -3.14538e-07 -0 -1.89222e-07 -0 5.92906e-09)
(-7.01507e-08 -8.46339e-07 -0 8.22371e-08 -0 -1.20864e-08)
(-2.88026e-07 -6.76393e-08 -0 2.89822e-07 -0 -1.79594e-09)
(-9.51967e-08 6.04697e-07 -0 1.0541e-07 -0 -1.02136e-08)
(1.62222e-07 -5.67478e-08 -0 -1.6368e-07 -0 1.45724e-09)
(-5.08627e-08 -1.08226e-06 -0 5.28967e-08 -0 -2.03397e-09)
(-2.51291e-07 1.29898e-07 -0 2.48914e-07 -0 2.37725e-09)
(-8.67275e-08 1.14394e-06 -0 9.03818e-08 -0 -3.65426e-09)
(1.36801e-07 2.48519e-07 -0 -1.39328e-07 -0 2.52619e-09)
(-1.83865e-08 -1.14987e-06 -0 6.75442e-09 -0 1.1632e-08)
(-1.93481e-07 3.40717e-07 -0 1.78938e-07 -0 1.45435e-08)
(-8.19264e-08 1.77447e-06 -0 8.29111e-08 -0 -9.84698e-10)
(1.10301e-07 6.167e-07 -0 -1.18426e-07 -0 8.12493e-09)
(1.47904e-07 -2.46044e-05 -0 -1.66642e-07 -0 1.87373e-08)
(5.81882e-09 -2.51322e-05 -0 -2.93268e-08 -0 2.3508e-08)
(-7.62499e-08 -2.34004e-05 -0 1.07344e-07 -0 -3.1094e-08)
(1.08169e-07 -2.27978e-05 -0 -1.27111e-07 -0 1.89414e-08)
(1.0217e-07 -1.81424e-05 -0 -8.1086e-08 -0 -2.10841e-08)
(6.04311e-09 -1.84429e-05 -0 -1.63919e-08 -0 1.03488e-08)
(-3.49132e-08 -1.74298e-05 -0 5.93857e-08 -0 -2.44725e-08)
(1.10658e-07 -1.69297e-05 -0 -1.28635e-07 -0 1.79773e-08)
(1.22071e-07 -1.32005e-05 -0 -1.22391e-07 -0 3.19679e-10)
(2.37653e-08 -1.32183e-05 -0 -4.0384e-08 -0 1.66188e-08)
(-1.88543e-08 -1.25059e-05 -0 4.43483e-08 -0 -2.5494e-08)
(1.10897e-07 -1.23061e-05 -0 -1.30199e-07 -0 1.93026e-08)
(1.20648e-07 -9.44104e-06 -0 -1.14759e-07 -0 -5.88899e-09)
(3.7394e-08 -9.4333e-06 -0 -5.48135e-08 -0 1.74195e-08)
(-4.85117e-09 -8.92857e-06 -0 3.10154e-08 -0 -2.61642e-08)
(1.09647e-07 -8.7731e-06 -0 -1.31946e-07 -0 2.22988e-08)
(1.18655e-07 -6.68806e-06 -0 -1.10572e-07 -0 -8.08249e-09)
(3.94466e-08 -6.68471e-06 -0 -5.35065e-08 -0 1.40599e-08)
(3.88871e-09 -6.35947e-06 -0 2.22649e-08 -0 -2.61537e-08)
(1.09301e-07 -6.24904e-06 -0 -1.31428e-07 -0 2.21266e-08)
(1.30699e-07 -4.67259e-06 -0 -1.32048e-07 -0 1.34899e-09)
(4.94475e-08 -4.6934e-06 -0 -6.67753e-08 -0 1.73277e-08)
(1.07048e-08 -4.49353e-06 -0 1.5809e-08 -0 -2.65138e-08)
(1.04653e-07 -4.36505e-06 -0 -1.2464e-07 -0 1.99872e-08)
(1.15061e-07 -3.247e-06 -0 -1.02862e-07 -0 -1.21989e-08)
(4.96092e-08 -3.26673e-06 -0 -6.66387e-08 -0 1.70295e-08)
(1.46388e-08 -3.18748e-06 -0 1.313e-08 -0 -2.77688e-08)
(1.08215e-07 -3.0779e-06 -0 -1.28959e-07 -0 2.0744e-08)
(1.31234e-07 -2.22809e-06 -0 -1.3472e-07 -0 3.48646e-09)
(4.98368e-08 -2.21369e-06 -0 -6.4322e-08 -0 1.44852e-08)
(1.93746e-08 -2.22822e-06 -0 6.1781e-09 -0 -2.55527e-08)
(1.08925e-07 -2.17516e-06 -0 -1.3056e-07 -0 2.16348e-08)
(1.13286e-07 -1.56135e-06 -0 -1.01058e-07 -0 -1.22284e-08)
(5.19429e-08 -1.4697e-06 -0 -7.00321e-08 -0 1.80891e-08)
(1.74533e-08 -1.55813e-06 -0 1.0221e-08 -0 -2.76743e-08)
(1.12416e-07 -1.58562e-06 -0 -1.33818e-07 -0 2.14011e-08)
(1.33303e-07 -1.10778e-06 -0 -1.4015e-07 -0 6.84724e-09)
(5.16237e-08 -9.39664e-07 -0 -6.64818e-08 -0 1.48581e-08)
(1.68808e-08 -1.09928e-06 -0 8.74323e-09 -0 -2.56241e-08)
(1.16031e-07 -1.21304e-06 -0 -1.41832e-07 -0 2.58007e-08)
(1.04445e-07 -8.57738e-07 -0 -8.41824e-08 -0 -2.02627e-08)
(4.84681e-08 -5.83117e-07 -0 -6.14673e-08 -0 1.29992e-08)
(7.9937e-09 -7.61472e-07 -0 2.14756e-08 -0 -2.94693e-08)
(1.07241e-07 -9.83298e-07 -0 -1.21692e-07 -0 1.44509e-08)
(1.26162e-07 -6.85114e-07 -0 -1.26509e-07 -0 3.47117e-10)
(6.26814e-08 -3.90534e-07 -0 -8.40202e-08 -0 2.13388e-08)
(1.07733e-08 -5.5998e-07 -0 9.09482e-09 -0 -1.98681e-08)
(1.03833e-07 -8.8654e-07 -0 -1.20473e-07 -0 1.66399e-08)
(1.20091e-07 -6.03111e-07 -0 -1.19526e-07 -0 -5.64986e-10)
(6.00599e-08 -3.34254e-07 -0 -7.91019e-08 -0 1.90421e-08)
(-3.67509e-09 -4.05258e-07 -0 2.97413e-08 -0 -2.60663e-08)
(1.05849e-07 -7.89885e-07 -0 -1.2725e-07 -0 2.14013e-08)
(9.99648e-08 -5.26549e-07 -0 -8.49764e-08 -0 -1.49885e-08)
(6.25292e-08 -4.56338e-07 -0 -7.57188e-08 -0 1.31896e-08)
(-1.1703e-08 -3.21898e-07 -0 4.03549e-08 -0 -2.86518e-08)
(8.32196e-08 -7.10128e-07 -0 -9.63858e-08 -0 1.31662e-08)
(1.275e-07 -4.96519e-07 -0 -1.59472e-07 -0 3.19714e-08)
(5.59543e-08 -3.27702e-07 -0 -6.26587e-08 -0 6.70438e-09)
(9.20233e-09 -2.42847e-07 -0 -2.97363e-09 -0 -6.2287e-09)
(8.96232e-08 -7.47479e-07 -0 -1.22648e-07 -0 3.30245e-08)
)
;

boundaryField
{
    topWall
    {
        type            calculated;
        value           nonuniform List<symmTensor> 0();
    }
    botWall
    {
        type            calculated;
        value           nonuniform List<symmTensor> 0();
    }
    inlet
    {
        type            cyclic;
    }
    outlet
    {
        type            cyclic;
    }
    fixWall
    {
        type            empty;
    }
    procBoundary1to0
    {
        type            processor;
        value           nonuniform List<symmTensor> 8((-1.04856e-07 -3.18998e-05 -0 1.1053e-07 -0 -5.67377e-09) (-3.19065e-07 -3.10216e-05 -0 3.11575e-07 -0 7.48985e-09) (4.53956e-08 -3.18142e-05 -0 -4.6756e-08 -0 1.36037e-09) (2.60521e-07 -3.27019e-05 -0 -2.50974e-07 -0 -9.54759e-09) (1.35056e-07 -3.26505e-05 -0 -1.25397e-07 -0 -9.65892e-09) (-2.43567e-08 -3.32369e-05 -0 3.23551e-09 -0 2.11212e-08) (-1.23854e-07 -3.14023e-05 -0 1.58141e-07 -0 -3.42867e-08) (1.24819e-07 -3.08078e-05 -0 -1.47674e-07 -0 2.28548e-08));
    }
    procBoundary1to2
    {
        type            processor;
        value           nonuniform List<symmTensor> 8((-4.21973e-09 -9.27607e-07 -0 -4.08915e-09 -0 8.30888e-09) (-1.82715e-07 4.02196e-07 -0 2.1331e-07 -0 -3.0595e-08) (-8.8031e-08 1.413e-06 -0 1.02319e-07 -0 -1.42879e-08) (4.67007e-08 3.99182e-07 -0 -3.77769e-08 -0 -8.92387e-09) (7.44571e-08 -5.05837e-07 -0 -6.71365e-08 -0 -7.32065e-09) (4.9233e-08 -1.77317e-07 -0 -3.92484e-08 -0 -9.98459e-09) (-7.43788e-09 -2.32862e-07 -0 1.93697e-08 -0 -1.19318e-08) (4.28734e-08 -8.78971e-07 -0 -4.84691e-08 -0 5.59576e-09));
    }
}


// ************************************************************************* //
