/*--------------------------------*- C++ -*----------------------------------*\
  =========                 |
  \\      /  F ield         | OpenFOAM: The Open Source CFD Toolbox
   \\    /   O peration     | Website:  https://openfoam.org
    \\  /    A nd           | Version:  dev
     \\/     M anipulation  |

   OpenFOAM for Windows 20.09 (v1)
   Built by CFD Support, www.cfdsupport.com (based on Symscape).
\*---------------------------------------------------------------------------*/
FoamFile
{
    version     2.0;
    format      ascii;
    class       volScalarField;
    location    "2";
    object      epsilon;
}
// * * * * * * * * * * * * * * * * * * * * * * * * * * * * * * * * * * * * * //

dimensions      [0 2 -3 0 0 0 0];

internalField   nonuniform List<scalar> 
120
(
1.82737e-15
1.82734e-15
1.82748e-15
1.82756e-15
1.60508e-15
1.60504e-15
1.60518e-15
1.60526e-15
1.42198e-15
1.42194e-15
1.42208e-15
1.42215e-15
1.26961e-15
1.26957e-15
1.26969e-15
1.26977e-15
1.14168e-15
1.14164e-15
1.14176e-15
1.14183e-15
1.03346e-15
1.03343e-15
1.03353e-15
1.0336e-15
9.41338e-16
9.41298e-16
9.41396e-16
9.41458e-16
8.6249e-16
8.62448e-16
8.62538e-16
8.62596e-16
7.94711e-16
7.94667e-16
7.94749e-16
7.94803e-16
7.36246e-16
7.36199e-16
7.36273e-16
7.36322e-16
6.85682e-16
6.85632e-16
6.85698e-16
6.85744e-16
6.41874e-16
6.41821e-16
6.41879e-16
6.41922e-16
6.03885e-16
6.03828e-16
6.03878e-16
6.03917e-16
5.70937e-16
5.70876e-16
5.70919e-16
5.70954e-16
5.42384e-16
5.42318e-16
5.42353e-16
5.42385e-16
1.82745e-15
1.8274e-15
1.82737e-15
1.82753e-15
1.60515e-15
1.6051e-15
1.60508e-15
1.60523e-15
1.42205e-15
1.422e-15
1.42198e-15
1.42212e-15
1.26967e-15
1.26962e-15
1.2696e-15
1.26973e-15
1.14173e-15
1.14169e-15
1.14168e-15
1.14179e-15
1.03351e-15
1.03347e-15
1.03346e-15
1.03356e-15
9.41377e-16
9.41338e-16
9.4133e-16
9.41424e-16
8.62521e-16
8.62484e-16
8.62479e-16
8.62563e-16
7.94734e-16
7.947e-16
7.94696e-16
7.94771e-16
7.3626e-16
7.36227e-16
7.36226e-16
7.36292e-16
6.85687e-16
6.85657e-16
6.85657e-16
6.85714e-16
6.4187e-16
6.41842e-16
6.41844e-16
6.41893e-16
6.03871e-16
6.03845e-16
6.03848e-16
6.0389e-16
5.70912e-16
5.70888e-16
5.70893e-16
5.70929e-16
5.42348e-16
5.42326e-16
5.42332e-16
5.42362e-16
)
;

boundaryField
{
    topWall
    {
        type            epsilonWallFunction;
        value           nonuniform List<scalar> 0();
    }
    botWall
    {
        type            epsilonWallFunction;
        value           nonuniform List<scalar> 0();
    }
    inlet
    {
        type            cyclic;
    }
    outlet
    {
        type            cyclic;
    }
    fixWall
    {
        type            empty;
    }
    procBoundary1to0
    {
        type            processor;
        value           nonuniform List<scalar> 8(2.10047e-15 2.10043e-15 2.10058e-15 2.10067e-15 2.10055e-15 2.10049e-15 2.10046e-15 2.10064e-15);
    }
    procBoundary1to2
    {
        type            processor;
        value           nonuniform List<scalar> 8(5.16387e-16 5.16316e-16 5.16346e-16 5.16377e-16 5.16342e-16 5.16321e-16 5.16328e-16 5.16355e-16);
    }
}


// ************************************************************************* //
