/*--------------------------------*- C++ -*----------------------------------*\
  =========                 |
  \\      /  F ield         | OpenFOAM: The Open Source CFD Toolbox
   \\    /   O peration     | Website:  https://openfoam.org
    \\  /    A nd           | Version:  dev
     \\/     M anipulation  |

   OpenFOAM for Windows 20.09 (v1)
   Built by CFD Support, www.cfdsupport.com (based on Symscape).
\*---------------------------------------------------------------------------*/
FoamFile
{
    version     2.0;
    format      ascii;
    class       volVectorField;
    location    "2";
    object      gradp;
}
// * * * * * * * * * * * * * * * * * * * * * * * * * * * * * * * * * * * * * //

dimensions      [1 -2 -2 0 0 0 0];

internalField   nonuniform List<vector> 
120
(
(3.75403 -98.7095 0)
(-1.23994 -98.1232 0)
(-1.24813 -98.4959 0)
(-1.25563 -98.8342 0)
(3.76082 -98.2133 0)
(-1.23785 -98.1016 0)
(-1.24811 -98.1094 0)
(-1.2557 -98.1173 0)
(3.76078 -98.0751 0)
(-1.23821 -98.1009 0)
(-1.2484 -98.1075 0)
(-1.25559 -98.1134 0)
(3.76073 -98.0754 0)
(-1.23839 -98.0983 0)
(-1.24831 -98.0994 0)
(-1.25564 -98.0956 0)
(3.76077 -98.0762 0)
(-1.2386 -98.0947 0)
(-1.24835 -98.1004 0)
(-1.25567 -98.0991 0)
(3.76081 -98.077 0)
(-1.2388 -98.0944 0)
(-1.24839 -98.1018 0)
(-1.25573 -98.1004 0)
(3.76083 -98.0777 0)
(-1.23902 -98.0943 0)
(-1.24845 -98.1026 0)
(-1.25574 -98.101 0)
(3.76084 -98.0782 0)
(-1.23921 -98.0939 0)
(-1.2485 -98.1012 0)
(-1.25578 -98.0999 0)
(3.76086 -98.0785 0)
(-1.2394 -98.0932 0)
(-1.24855 -98.101 0)
(-1.25582 -98.0997 0)
(3.76088 -98.081 0)
(-1.23959 -98.0927 0)
(-1.24861 -98.1007 0)
(-1.25587 -98.0991 0)
(3.76087 -98.0824 0)
(-1.23973 -98.0892 0)
(-1.24866 -98.095 0)
(-1.25591 -98.0937 0)
(3.76097 -98.0821 0)
(-1.2398 -98.088 0)
(-1.24868 -98.0954 0)
(-1.25606 -98.1085 0)
(3.76093 -98.0822 0)
(-1.23995 -98.0827 0)
(-1.249 -98.0885 0)
(-1.25611 -98.114 0)
(3.76098 -98.075 0)
(-1.2399 -98.0839 0)
(-1.24921 -98.0925 0)
(-1.25637 -97.422 0)
(3.74794 -98.0434 0)
(-1.24024 -97.449 0)
(-1.23797 -97.4817 0)
(-1.24467 -97.591 0)
(-1.25413 -98.4738 0)
(-1.22522 -98.1439 0)
(-1.25177 -98.6299 0)
(3.72079 -98.2621 0)
(-1.25418 -98.107 0)
(-1.23922 -98.1035 0)
(-1.25853 -98.9421 0)
(3.73276 -98.5067 0)
(-1.2539 -98.1043 0)
(-1.23914 -98.1011 0)
(-1.25849 -98.095 0)
(3.73293 -98.0955 0)
(-1.25397 -98.1046 0)
(-1.23906 -98.1009 0)
(-1.25844 -98.0963 0)
(3.7331 -98.0976 0)
(-1.25398 -98.1056 0)
(-1.23901 -98.1007 0)
(-1.25844 -98.0963 0)
(3.73328 -98.0998 0)
(-1.254 -98.106 0)
(-1.23891 -98.1041 0)
(-1.25842 -98.0943 0)
(3.73343 -98.0975 0)
(-1.25405 -98.1058 0)
(-1.23881 -98.1047 0)
(-1.25833 -98.094 0)
(3.73357 -98.096 0)
(-1.25406 -98.1059 0)
(-1.23871 -98.1019 0)
(-1.25828 -98.0939 0)
(3.7337 -98.0959 0)
(-1.25408 -98.106 0)
(-1.23861 -98.1018 0)
(-1.25823 -98.0938 0)
(3.73383 -98.0958 0)
(-1.2541 -98.1062 0)
(-1.23851 -98.1016 0)
(-1.25818 -98.0935 0)
(3.73396 -98.0935 0)
(-1.25412 -98.1066 0)
(-1.2384 -98.0991 0)
(-1.25809 -98.0931 0)
(3.73404 -98.0945 0)
(-1.25419 -98.1072 0)
(-1.23828 -98.0989 0)
(-1.2581 -98.0926 0)
(3.73413 -98.0914 0)
(-1.25396 -98.1068 0)
(-1.23816 -98.0916 0)
(-1.25797 -98.0926 0)
(3.73422 -98.0832 0)
(-1.25381 -97.4059 0)
(-1.23804 -97.438 0)
(-1.25796 -98.0919 0)
(3.73431 -97.3043 0)
(-1.25423 -97.7919 0)
(-1.24959 -97.5341 0)
(-1.25574 -98.0031 0)
(3.7345 -97.6033 0)
)
;

boundaryField
{
    topWall
    {
        type            extrapolatedCalculated;
        value           nonuniform List<vector> 0();
    }
    botWall
    {
        type            extrapolatedCalculated;
        value           nonuniform List<vector> 0();
    }
    inlet
    {
        type            cyclic;
    }
    outlet
    {
        type            cyclic;
    }
    fixWall
    {
        type            empty;
    }
    procBoundary1to0
    {
        type            processor;
        value           nonuniform List<vector> 8((3.7585 -98.2112 0) (-1.24141 -97.9903 0) (-1.23625 -97.7281 0) (-1.25606 -97.923 0) (-1.26568 -97.5109 0) (-1.23661 -97.658 0) (-1.25656 -97.7832 0) (3.73409 -97.8509 0));
    }
    procBoundary1to2
    {
        type            processor;
        value           nonuniform List<vector> 8((3.76355 -98.5425 0) (-1.23054 -98.3253 0) (-1.25157 -98.1413 0) (-1.26154 -98.2689 0) (-1.25287 -98.4939 0) (-1.24156 -98.1935 0) (-1.25911 -98.8086 0) (3.73363 -98.3828 0));
    }
}


// ************************************************************************* //
