/*--------------------------------*- C++ -*----------------------------------*\
  =========                 |
  \\      /  F ield         | OpenFOAM: The Open Source CFD Toolbox
   \\    /   O peration     | Website:  https://openfoam.org
    \\  /    A nd           | Version:  dev
     \\/     M anipulation  |

   OpenFOAM for Windows 20.09 (v1)
   Built by CFD Support, www.cfdsupport.com (based on Symscape).
\*---------------------------------------------------------------------------*/
FoamFile
{
    version     2.0;
    format      ascii;
    class       volVectorField;
    location    "2";
    object      gradp_rgh;
}
// * * * * * * * * * * * * * * * * * * * * * * * * * * * * * * * * * * * * * //

dimensions      [1 -2 -2 0 0 0 0];

internalField   nonuniform List<vector> 
120
(
(-1.24609 -0.604952 0)
(-1.24005 -0.021199 0)
(-1.24814 -0.386283 0)
(-1.25541 -0.722972 0)
(-1.23918 -0.115259 0)
(-1.23785 0.000123406 0)
(-1.24811 -0.00461192 0)
(-1.25569 -0.0155224 0)
(-1.23922 0.0248594 0)
(-1.23821 -0.000963332 0)
(-1.2484 -0.00757413 0)
(-1.25558 -0.0136541 0)
(-1.23927 0.0244996 0)
(-1.23839 0.00163799 0)
(-1.24832 0.000580222 0)
(-1.25564 0.00432437 0)
(-1.23923 0.0237005 0)
(-1.23861 0.00529545 0)
(-1.24836 -0.00044354 0)
(-1.25567 0.000780932 0)
(-1.23919 0.0229312 0)
(-1.2388 0.00557994 0)
(-1.24839 -0.00178961 0)
(-1.25573 -0.000451305 0)
(-1.23918 0.0221529 0)
(-1.23902 0.00578205 0)
(-1.24846 -0.00256303 0)
(-1.25574 -0.000940729 0)
(-1.23916 0.021724 0)
(-1.23921 0.00624717 0)
(-1.2485 -0.00105601 0)
(-1.25578 0.000332479 0)
(-1.23914 0.021468 0)
(-1.2394 0.00691333 0)
(-1.24855 -0.000833216 0)
(-1.25582 0.000535575 0)
(-1.23912 0.0190429 0)
(-1.23958 0.00744389 0)
(-1.24861 -0.000520259 0)
(-1.25586 0.00117423 0)
(-1.23913 0.0176763 0)
(-1.23972 0.0109641 0)
(-1.24866 0.0052144 0)
(-1.25591 0.00661094 0)
(-1.23903 0.0181654 0)
(-1.23979 0.0119654 0)
(-1.24868 0.00446828 0)
(-1.25606 -0.00876016 0)
(-1.23907 0.0182116 0)
(-1.23995 0.0170399 0)
(-1.249 0.0109852 0)
(-1.2561 -0.0148365 0)
(-1.23902 0.0374782 0)
(-1.23991 0.0218799 0)
(-1.24921 0.00817185 0)
(-1.25636 0.66011 0)
(-1.2523 0.0699079 0)
(-1.24044 0.674377 0)
(-1.23837 0.635942 0)
(-1.24437 0.495474 0)
(-1.25399 -0.386054 0)
(-1.22517 -0.050187 0)
(-1.25178 -0.536683 0)
(-1.27937 -0.164183 0)
(-1.25418 -0.0151317 0)
(-1.23922 -0.00971467 0)
(-1.25853 -0.853672 0)
(-1.26724 -0.412368 0)
(-1.25389 -0.00438449 0)
(-1.23914 -0.00129693 0)
(-1.25849 0.00485435 0)
(-1.26707 0.00435741 0)
(-1.25397 -0.00463448 0)
(-1.23906 -0.00109103 0)
(-1.25844 0.00359487 0)
(-1.2669 0.00224447 0)
(-1.25398 -0.00560606 0)
(-1.23901 -0.000774117 0)
(-1.25844 0.00370105 0)
(-1.26672 0.000245091 0)
(-1.254 -0.00598557 0)
(-1.23891 -0.00408217 0)
(-1.25842 0.00571185 0)
(-1.26657 0.00259551 0)
(-1.25404 -0.0057511 0)
(-1.23881 -0.00454563 0)
(-1.25832 0.00602745 0)
(-1.26643 0.00420767 0)
(-1.25406 -0.00576908 0)
(-1.23871 -0.00163165 0)
(-1.25827 0.00613763 0)
(-1.2663 0.00431379 0)
(-1.25408 -0.00586807 0)
(-1.23861 -0.00148977 0)
(-1.25822 0.00618535 0)
(-1.26617 0.00440658 0)
(-1.25409 -0.00605046 0)
(-1.23851 -0.00129856 0)
(-1.25818 0.00653325 0)
(-1.26605 0.00661787 0)
(-1.25412 -0.0064947 0)
(-1.2384 0.00113373 0)
(-1.25809 0.0070871 0)
(-1.26596 0.00558848 0)
(-1.25418 -0.00710465 0)
(-1.23828 0.000982265 0)
(-1.2581 0.00749723 0)
(-1.26587 0.0084536 0)
(-1.25395 -0.00685551 0)
(-1.23816 0.00795999 0)
(-1.25797 0.00745551 0)
(-1.26578 0.0165181 0)
(-1.2538 0.712093 0)
(-1.23804 0.678797 0)
(-1.25796 0.0264684 0)
(-1.26569 0.815819 0)
(-1.25364 0.316535 0)
(-1.24959 0.581189 0)
(-1.25568 0.118405 0)
(-1.2656 0.509817 0)
)
;

boundaryField
{
    topWall
    {
        type            extrapolatedCalculated;
        value           nonuniform List<vector> 0();
    }
    botWall
    {
        type            extrapolatedCalculated;
        value           nonuniform List<vector> 0();
    }
    inlet
    {
        type            cyclic;
    }
    outlet
    {
        type            cyclic;
    }
    fixWall
    {
        type            empty;
    }
    procBoundary1to0
    {
        type            processor;
        value           nonuniform List<vector> 8((-1.24157 -0.109302 0) (-1.2415 0.10823 0) (-1.23641 0.366851 0) (-1.2557 0.174651 0) (-1.26539 0.597204 0) (-1.2367 0.448071 0) (-1.25663 0.328239 0) (-1.2661 0.254751 0));
    }
    procBoundary1to2
    {
        type            processor;
        value           nonuniform List<vector> 8((-1.23628 -0.454734 0) (-1.23048 -0.231227 0) (-1.2522 -0.0423304 0) (-1.26168 -0.151379 0) (-1.25238 -0.412436 0) (-1.24135 -0.11046 0) (-1.25915 -0.72704 0) (-1.2665 -0.303117 0));
    }
}


// ************************************************************************* //
