/*--------------------------------*- C++ -*----------------------------------*\
  =========                 |
  \\      /  F ield         | OpenFOAM: The Open Source CFD Toolbox
   \\    /   O peration     | Website:  https://openfoam.org
    \\  /    A nd           | Version:  dev
     \\/     M anipulation  |

   OpenFOAM for Windows 20.09 (v1)
   Built by CFD Support, www.cfdsupport.com (based on Symscape).
\*---------------------------------------------------------------------------*/
FoamFile
{
    version     2.0;
    format      ascii;
    class       volTensorField;
    location    "2";
    object      gradU;
}
// * * * * * * * * * * * * * * * * * * * * * * * * * * * * * * * * * * * * * //

dimensions      [0 0 -1 0 0 0 0];

internalField   nonuniform List<tensor> 
120
(
(0.000249316 -0.000170063 0 0.125423 -0.000324732 0 0 0 0)
(0.00082941 5.40828e-05 0 0.119737 -0.000865814 0 0 0 0)
(-2.66858e-05 0.000183727 0 0.123901 3.80693e-06 0 0 0 0)
(-0.000639833 1.87725e-05 0 0.129929 0.000686236 0 0 0 0)
(0.000245778 -0.00018146 0 0.0919243 -0.000275847 0 0 0 0)
(0.000840012 5.40371e-05 0 0.0882992 -0.000836832 0 0 0 0)
(5.31785e-05 0.000198799 0 0.0920954 -0.000104662 0 0 0 0)
(-0.000605819 2.35475e-05 0 0.0967148 0.000599756 0 0 0 0)
(0.000226663 -0.000190485 0 0.067048 -0.000304679 0 0 0 0)
(0.000832263 5.69359e-05 0 0.0644945 -0.000763103 0 0 0 0)
(0.000113574 0.00020767 0 0.0672758 -0.000138258 0 0 0 0)
(-0.0005706 2.31669e-05 0 0.070726 0.000626821 0 0 0 0)
(0.000234767 -0.000200781 0 0.0479427 -0.00023636 0 0 0 0)
(0.000843809 5.68108e-05 0 0.0467707 -0.000840829 0 0 0 0)
(0.000157037 0.000221965 0 0.0489773 -0.000205754 0 0 0 0)
(-0.000559404 3.12715e-05 0 0.0509442 0.000581313 0 0 0 0)
(0.000232334 -0.000211312 0 0.034047 -0.000293164 0 0 0 0)
(0.000849507 5.7446e-05 0 0.033423 -0.000835271 0 0 0 0)
(0.000183132 0.000231372 0 0.0348743 -0.000230078 0 0 0 0)
(-0.00055122 3.14046e-05 0 0.0360306 0.000581901 0 0 0 0)
(0.000240912 -0.000221484 0 0.0236832 -0.000281151 0 0 0 0)
(0.000857597 5.78623e-05 0 0.0235558 -0.000837655 0 0 0 0)
(0.000200496 0.000245584 0 0.0244972 -0.000239592 0 0 0 0)
(-0.000548116 3.96327e-05 0 0.0251198 0.000590644 0 0 0 0)
(0.00024042 -0.00023166 0 0.0163888 -0.000313824 0 0 0 0)
(0.000863073 5.81387e-05 0 0.0164496 -0.000825635 0 0 0 0)
(0.0002092 0.000255177 0 0.0168849 -0.000252936 0 0 0 0)
(-0.000544938 4.12895e-05 0 0.017221 0.000563954 0 0 0 0)
(0.000244236 -0.000241857 0 0.0111579 -0.000274982 0 0 0 0)
(0.000865865 5.8877e-05 0 0.0111741 -0.000867389 0 0 0 0)
(0.000213353 0.000268744 0 0.0113658 -0.000253624 0 0 0 0)
(-0.000540864 4.78526e-05 0 0.0116225 0.000579046 0 0 0 0)
(0.000235528 -0.000252839 0 0.00769998 -0.000317004 0 0 0 0)
(0.000866537 5.84946e-05 0 0.00750546 -0.000814438 0 0 0 0)
(0.000216674 0.000279284 0 0.00730954 -0.00025933 0 0 0 0)
(-0.000535634 5.16207e-05 0 0.00775363 0.000564168 0 0 0 0)
(0.000230256 -0.000262286 0 0.00545289 -0.000246946 0 0 0 0)
(0.000859357 5.98383e-05 0 0.00473627 -0.000878054 0 0 0 0)
(0.000217489 0.000291721 0 0.00411463 -0.000274656 0 0 0 0)
(-0.000522818 5.60981e-05 0 0.005025 0.000570556 0 0 0 0)
(0.000208266 -0.000274877 0 0.0044242 -0.000308569 0 0 0 0)
(0.000844233 5.80328e-05 0 0.00293747 -0.000849448 0 0 0 0)
(0.000221486 0.000303428 0 0.0015008 -0.000259893 0 0 0 0)
(-0.000504348 6.26907e-05 0 0.00316635 0.000474284 0 0 0 0)
(0.000193305 -0.000282457 0 0.00420046 -0.000305077 0 0 0 0)
(0.000810634 6.06495e-05 0 0.00138066 -0.000639844 0 0 0 0)
(0.000221303 0.000313783 0 -0.000942891 -0.000199413 0 0 0 0)
(-0.000470014 6.32528e-05 0 0.0016038 0.00051715 0 0 0 0)
(0.000153871 -0.000291597 0 0.0047772 -0.000249957 0 0 0 0)
(0.000758511 5.97939e-05 0 0.000298694 -0.000772788 0 0 0 0)
(0.000225205 0.000322711 0 -0.00352761 -0.000306403 0 0 0 0)
(-0.000426028 7.16171e-05 0 0.000229146 0.000437613 0 0 0 0)
(0.000129396 -0.000301902 0 0.00603789 -0.000145566 0 0 0 0)
(0.000672221 5.97088e-05 0 -0.000748169 -0.000653322 0 0 0 0)
(0.000220144 0.000333956 0 -0.00639683 -0.000249196 0 0 0 0)
(-0.000355829 7.36136e-05 0 -0.00139076 0.000375912 0 0 0 0)
(7.9549e-05 -0.000307324 0 0.00640165 1.29257e-05 0 0 0 0)
(0.000551265 5.80667e-05 0 -0.00186387 -0.000435645 0 0 0 0)
(0.000214495 0.000339865 0 -0.00974455 -0.000222324 0 0 0 0)
(-0.000270766 7.88614e-05 0 -0.00334737 0.000335359 0 0 0 0)
(-0.000342293 -8.95117e-05 0 0.130493 0.000491254 0 0 0 0)
(4.68763e-05 -0.000140725 0 0.133342 0.000140012 0 0 0 0)
(0.000119663 7.58479e-05 0 0.123946 -0.000366861 0 0 0 0)
(-0.000236453 6.78692e-05 0 0.12076 0.000387038 0 0 0 0)
(-0.000326624 -9.47198e-05 0 0.0962494 0.000159005 0 0 0 0)
(1.141e-05 -0.000146507 0 0.0978939 7.08627e-05 0 0 0 0)
(2.76679e-05 7.73803e-05 0 0.0923005 -0.000222224 0 0 0 0)
(-0.000245603 6.89224e-05 0 0.0896584 0.000388523 0 0 0 0)
(-0.000322642 -9.83266e-05 0 0.0700607 0.000325183 0 0 0 0)
(-1.89381e-05 -0.000147078 0 0.0702039 0.000151057 0 0 0 0)
(-1.75953e-05 8.11422e-05 0 0.0662002 -0.000185082 0 0 0 0)
(-0.000242724 6.69755e-05 0 0.0651551 0.00039618 0 0 0 0)
(-0.000335324 -0.000102649 0 0.0501401 0.000288507 0 0 0 0)
(-5.29325e-05 -0.000155011 0 0.0501515 0.000191418 0 0 0 0)
(-5.64795e-05 8.14657e-05 0 0.0472399 -0.000151526 0 0 0 0)
(-0.000231472 6.69291e-05 0 0.0464305 0.000408747 0 0 0 0)
(-0.000335854 -0.000104825 0 0.0355515 0.000271598 0 0 0 0)
(-6.72748e-05 -0.000154412 0 0.0355834 0.000179051 0 0 0 0)
(-7.96123e-05 8.47644e-05 0 0.0336204 -0.000128309 0 0 0 0)
(-0.000231012 6.55616e-05 0 0.0330544 0.000406919 0 0 0 0)
(-0.000342779 -0.000109363 0 0.0248741 0.000353503 0 0 0 0)
(-8.51174e-05 -0.000161677 0 0.0250367 0.000222873 0 0 0 0)
(-9.86294e-05 8.52635e-05 0 0.0237304 -0.000112155 0 0 0 0)
(-0.000224363 6.41815e-05 0 0.0230706 0.000383261 0 0 0 0)
(-0.00033724 -0.000110954 0 0.0173201 0.000240258 0 0 0 0)
(-8.63362e-05 -0.000162173 0 0.0174758 0.000221721 0 0 0 0)
(-0.00011238 8.74375e-05 0 0.0168062 -0.000108382 0 0 0 0)
(-0.000231799 6.2745e-05 0 0.0162501 0.000396714 0 0 0 0)
(-0.000338531 -0.000115067 0 0.011924 0.000366248 0 0 0 0)
(-9.36817e-05 -0.000167487 0 0.0119001 0.000208839 0 0 0 0)
(-0.000119057 8.818e-05 0 0.0117214 -8.40866e-05 0 0 0 0)
(-0.000231319 6.07575e-05 0 0.0114676 0.000403316 0 0 0 0)
(-0.000332614 -0.000117125 0 0.00839226 0.000235399 0 0 0 0)
(-8.97126e-05 -0.000169679 0 0.00795908 0.000233521 0 0 0 0)
(-0.000119588 9.06788e-05 0 0.00816742 -0.000100423 0 0 0 0)
(-0.000241191 5.95634e-05 0 0.00834424 0.00041133 0 0 0 0)
(-0.000335107 -0.000120578 0 0.00599183 0.000389542 0 0 0 0)
(-9.74289e-05 -0.000173084 0 0.0051533 0.000215551 0 0 0 0)
(-0.000112638 9.11435e-05 0 0.00573502 -9.10733e-05 0 0 0 0)
(-0.00023911 5.71478e-05 0 0.00637198 0.000444225 0 0 0 0)
(-0.000330476 -0.000123041 0 0.00466905 0.000169387 0 0 0 0)
(-9.39928e-05 -0.000177689 0 0.00326821 0.000197336 0 0 0 0)
(-9.9277e-05 9.449e-05 0 0.00394131 -0.000135004 0 0 0 0)
(-0.000245893 5.69655e-05 0 0.00515451 0.000360778 0 0 0 0)
(-0.000333409 -0.000125194 0 0.0037563 0.000336169 0 0 0 0)
(-0.000109558 -0.000178157 0 0.00224799 0.000279202 0 0 0 0)
(-8.11995e-05 9.38675e-05 0 0.00287403 -7.67517e-05 0 0 0 0)
(-0.000231062 5.42551e-05 0 0.00464441 0.000363349 0 0 0 0)
(-0.000319739 -0.000127007 0 0.00332349 0.000315248 0 0 0 0)
(-0.000108697 -0.000184571 0 0.00195612 0.000260082 0 0 0 0)
(-5.93366e-05 9.58925e-05 0 0.00205198 -0.00014789 0 0 0 0)
(-0.000223786 5.31601e-05 0 0.00413323 0.000393926 0 0 0 0)
(-0.000304626 -0.000128153 0 0.00291886 0.000185468 0 0 0 0)
(-0.00013075 -0.000185876 0 0.00260447 0.000235607 0 0 0 0)
(-4.49143e-05 9.60982e-05 0 0.00160996 -0.000182868 0 0 0 0)
(-0.000185642 5.2554e-05 0 0.00371113 0.000290313 0 0 0 0)
(-0.000253152 -0.000129345 0 0.0027609 0.000507325 0 0 0 0)
(-0.000130512 -0.00019071 0 0.00192753 0.000183812 0 0 0 0)
(-4.08922e-05 9.68042e-05 0 0.00119029 -8.62595e-06 0 0 0 0)
(-0.000149987 5.37818e-05 0 0.00390786 0.000412531 0 0 0 0)
)
;

boundaryField
{
    topWall
    {
        type            extrapolatedCalculated;
        value           nonuniform List<tensor> 0();
    }
    botWall
    {
        type            extrapolatedCalculated;
        value           nonuniform List<tensor> 0();
    }
    inlet
    {
        type            cyclic;
    }
    outlet
    {
        type            cyclic;
    }
    fixWall
    {
        type            empty;
    }
    procBoundary1to0
    {
        type            processor;
        value           nonuniform List<tensor> 8((0.000262834 -0.000160579 0 0.16923 -0.00030794 0 0 0 0) (0.000865371 4.85615e-05 0 0.164366 -0.000805827 0 0 0 0) (-0.000116693 0.000172932 0 0.168442 0.000127508 0 0 0 0) (-0.000715683 1.54233e-05 0 0.173305 0.000639779 0 0 0 0) (-0.000383495 -8.56161e-05 0 0.173133 0.000306706 0 0 0 0) (0.000120516 -0.000132205 0 0.176288 4.7397e-05 0 0 0 0) (0.000237354 7.32632e-05 0 0.166359 -0.000509934 0 0 0 0) (-0.000270205 6.82203e-05 0 0.163213 0.000451901 0 0 0 0));
    }
    procBoundary1to2
    {
        type            processor;
        value           nonuniform List<tensor> 8((3.32008e-05 -0.000316038 0 0.00523236 3.28548e-05 0 0 0 0) (0.000403118 5.57879e-05 0 -0.00218743 -0.000646348 0 0 0 0) (0.000195419 0.000346806 0 -0.00783572 -0.000309008 0 0 0 0) (-0.000147405 8.57744e-05 0 -0.00220144 7.64604e-05 0 0 0 0) (-0.000216711 -0.000130678 0 0.00281162 0.000158512 0 0 0 0) (-0.000156927 -0.000194476 0 0.00113426 7.75492e-05 0 0 0 0) (-1.19089e-05 9.99102e-05 0 0.00113426 -8.29488e-05 0 0 0 0) (-9.87857e-05 5.29131e-05 0 0.00460564 0.000143272 0 0 0 0));
    }
}


// ************************************************************************* //
