/*--------------------------------*- C++ -*----------------------------------*\
  =========                 |
  \\      /  F ield         | OpenFOAM: The Open Source CFD Toolbox
   \\    /   O peration     | Website:  https://openfoam.org
    \\  /    A nd           | Version:  dev
     \\/     M anipulation  |

   OpenFOAM for Windows 20.09 (v1)
   Built by CFD Support, www.cfdsupport.com (based on Symscape).
\*---------------------------------------------------------------------------*/
FoamFile
{
    version     2.0;
    format      ascii;
    class       volScalarField;
    location    "2";
    object      nut;
}
// * * * * * * * * * * * * * * * * * * * * * * * * * * * * * * * * * * * * * //

dimensions      [0 2 -1 0 0 0 0];

internalField   nonuniform List<scalar> 
120
(
2.42826e-18
2.42831e-18
2.42812e-18
2.42801e-18
2.76456e-18
2.76462e-18
2.76439e-18
2.76425e-18
3.12054e-18
3.12062e-18
3.12033e-18
3.12016e-18
3.49505e-18
3.49515e-18
3.49481e-18
3.49462e-18
3.88668e-18
3.88681e-18
3.88642e-18
3.88618e-18
4.29366e-18
4.29382e-18
4.29338e-18
4.29311e-18
4.71387e-18
4.71407e-18
4.71357e-18
4.71327e-18
5.1448e-18
5.14505e-18
5.14452e-18
5.14417e-18
5.58359e-18
5.5839e-18
5.58333e-18
5.58295e-18
6.02699e-18
6.02737e-18
6.02677e-18
6.02636e-18
6.47143e-18
6.4719e-18
6.47128e-18
6.47084e-18
6.9131e-18
6.91367e-18
6.91305e-18
6.91259e-18
7.348e-18
7.34868e-18
7.34807e-18
7.3476e-18
7.77203e-18
7.77287e-18
7.77228e-18
7.7718e-18
8.18119e-18
8.18218e-18
8.18165e-18
8.18117e-18
2.42816e-18
2.42823e-18
2.42827e-18
2.42805e-18
2.76444e-18
2.76453e-18
2.76457e-18
2.76431e-18
3.12039e-18
3.1205e-18
3.12054e-18
3.12024e-18
3.49489e-18
3.49501e-18
3.49506e-18
3.49471e-18
3.8865e-18
3.88665e-18
3.88669e-18
3.8863e-18
4.29346e-18
4.29364e-18
4.29368e-18
4.29325e-18
4.71367e-18
4.71387e-18
4.71391e-18
4.71344e-18
5.14462e-18
5.14484e-18
5.14487e-18
5.14437e-18
5.58343e-18
5.58367e-18
5.5837e-18
5.58317e-18
6.02687e-18
6.02714e-18
6.02715e-18
6.02661e-18
6.47138e-18
6.47167e-18
6.47167e-18
6.47112e-18
6.91315e-18
6.91345e-18
6.91343e-18
6.9129e-18
7.34817e-18
7.34848e-18
7.34844e-18
7.34793e-18
7.77237e-18
7.7727e-18
7.77263e-18
7.77215e-18
8.18173e-18
8.18206e-18
8.18197e-18
8.18152e-18
)
;

boundaryField
{
    topWall
    {
        type            nutkWallFunction;
        Cmu             0.09;
        kappa           0.41;
        E               9.8;
        value           nonuniform List<scalar> 0();
    }
    botWall
    {
        type            nutkWallFunction;
        Cmu             0.09;
        kappa           0.41;
        E               9.8;
        value           nonuniform List<scalar> 0();
    }
    inlet
    {
        type            cyclic;
    }
    outlet
    {
        type            cyclic;
    }
    fixWall
    {
        type            empty;
    }
    procBoundary1to0
    {
        type            processor;
        value           nonuniform List<scalar> 8(2.11255e-18 2.11259e-18 2.11243e-18 2.11235e-18 2.11247e-18 2.11252e-18 2.11256e-18 2.11238e-18);
    }
    procBoundary1to2
    {
        type            processor;
        value           nonuniform List<scalar> 8(8.59306e-18 8.59425e-18 8.59375e-18 8.59323e-18 8.5938e-18 8.59415e-18 8.59403e-18 8.59359e-18);
    }
}


// ************************************************************************* //
