/*--------------------------------*- C++ -*----------------------------------*\
  =========                 |
  \\      /  F ield         | OpenFOAM: The Open Source CFD Toolbox
   \\    /   O peration     | Website:  https://openfoam.org
    \\  /    A nd           | Version:  dev
     \\/     M anipulation  |

   OpenFOAM for Windows 20.09 (v1)
   Built by CFD Support, www.cfdsupport.com (based on Symscape).
\*---------------------------------------------------------------------------*/
FoamFile
{
    version     2.0;
    format      ascii;
    class       volScalarField;
    location    "2";
    object      omega;
}
// * * * * * * * * * * * * * * * * * * * * * * * * * * * * * * * * * * * * * //

dimensions      [0 0 -1 0 0 0 0];

internalField   nonuniform List<scalar> 
120
(
91.4418
91.44
91.4472
91.4513
80.3181
80.3164
80.3233
80.3272
71.1559
71.1541
71.1606
71.1644
63.5311
63.5293
63.5355
63.5391
57.1296
57.1278
57.1335
57.1369
51.7145
51.7126
51.718
51.7212
47.1046
47.1026
47.1075
47.1105
43.159
43.1569
43.1614
43.1643
39.7674
39.7651
39.7692
39.7719
36.8417
36.8394
36.8431
36.8456
34.3115
34.309
34.3123
34.3146
32.1194
32.1167
32.1196
32.1218
30.2184
30.2156
30.2181
30.22
28.5697
28.5666
28.5688
28.5705
27.1409
27.1376
27.1393
27.1409
91.4454
91.4428
91.4416
91.4497
80.3217
80.3191
80.318
80.3255
71.1592
71.1567
71.1557
71.1627
63.5341
63.5318
63.5309
63.5374
57.1323
57.1301
57.1294
57.1352
51.7169
51.7148
51.7142
51.7195
47.1065
47.1045
47.1041
47.1089
43.1606
43.1587
43.1584
43.1626
39.7685
39.7668
39.7666
39.7703
36.8424
36.8408
36.8407
36.844
34.3118
34.3103
34.3103
34.3131
32.1192
32.1178
32.1179
32.1203
30.2177
30.2164
30.2165
30.2186
28.5685
28.5673
28.5675
28.5693
27.1391
27.138
27.1383
27.1398
)
;

boundaryField
{
    topWall
    {
        beta1           0.075;
        blended         0;
        type            omegaWallFunction;
        value           nonuniform List<scalar> 0();
    }
    botWall
    {
        beta1           0.075;
        blended         0;
        type            omegaWallFunction;
        value           nonuniform List<scalar> 0();
    }
    inlet
    {
        type            cyclic;
    }
    outlet
    {
        type            cyclic;
    }
    fixWall
    {
        type            empty;
    }
    procBoundary1to0
    {
        type            processor;
        value           nonuniform List<scalar> 8(105.107 105.105 105.113 105.117 105.111 105.109 105.107 105.116);
    }
    procBoundary1to2
    {
        type            processor;
        value           nonuniform List<scalar> 8(25.84 25.8364 25.8379 25.8395 25.8378 25.8367 25.8371 25.8384);
    }
}


// ************************************************************************* //
