/*--------------------------------*- C++ -*----------------------------------*\
  =========                 |
  \\      /  F ield         | OpenFOAM: The Open Source CFD Toolbox
   \\    /   O peration     | Website:  https://openfoam.org
    \\  /    A nd           | Version:  dev
     \\/     M anipulation  |

   OpenFOAM for Windows 20.09 (v1)
   Built by CFD Support, www.cfdsupport.com (based on Symscape).
\*---------------------------------------------------------------------------*/
FoamFile
{
    version     2.0;
    format      ascii;
    class       volScalarField;
    location    "2";
    object      p;
}
// * * * * * * * * * * * * * * * * * * * * * * * * * * * * * * * * * * * * * //

dimensions      [1 -1 -2 0 0 0 0];

internalField   nonuniform List<scalar> 
120
(
-1.22887
-1.29096
-1.35286
-1.41577
-1.31083
-1.37271
-1.43461
-1.49752
-1.39256
-1.45446
-1.51638
-1.5793
-1.47429
-1.53622
-1.59813
-1.66105
-1.55602
-1.61796
-1.67988
-1.7428
-1.63775
-1.69971
-1.76163
-1.82455
-1.71948
-1.78145
-1.84338
-1.9063
-1.80121
-1.8632
-1.92513
-1.98805
-1.88294
-1.94494
-2.00688
-2.0698
-1.96467
-2.02669
-2.08863
-2.15155
-2.04641
-2.10843
-2.17038
-2.2333
-2.12814
-2.19017
-2.25212
-2.31504
-2.20988
-2.27191
-2.33387
-2.39681
-2.29161
-2.35364
-2.4156
-2.47856
-2.37334
-2.43538
-2.49736
-2.55918
-1.47842
-1.54119
-1.60095
-1.66636
-1.56018
-1.62294
-1.6841
-1.7488
-1.64194
-1.70469
-1.76585
-1.83054
-1.72369
-1.78644
-1.8476
-1.91229
-1.80544
-1.86819
-1.92934
-1.99404
-1.8872
-1.94995
-2.01109
-2.07579
-1.96895
-2.0317
-2.09283
-2.15753
-2.05071
-2.11345
-2.17458
-2.23928
-2.13246
-2.1952
-2.25632
-2.32103
-2.21422
-2.27696
-2.33807
-2.40277
-2.29597
-2.35871
-2.41981
-2.48452
-2.37773
-2.44045
-2.50156
-2.56626
-2.45949
-2.52221
-2.5833
-2.648
-2.54124
-2.60394
-2.66505
-2.72974
-2.62183
-2.6846
-2.74679
-2.81018
)
;

boundaryField
{
    topWall
    {
        type            calculated;
        value           nonuniform List<scalar> 0();
    }
    botWall
    {
        type            calculated;
        value           nonuniform List<scalar> 0();
    }
    inlet
    {
        type            cyclic;
    }
    outlet
    {
        type            cyclic;
    }
    fixWall
    {
        type            empty;
    }
    procBoundary1to0
    {
        type            processor;
        value           nonuniform List<scalar> 8(-1.14631 -1.20918 -1.27045 -1.3328 -1.39606 -1.45937 -1.51972 -1.58503);
    }
    procBoundary1to2
    {
        type            processor;
        value           nonuniform List<scalar> 8(-2.45502 -2.51605 -2.57807 -2.64121 -2.70423 -2.7665 -2.82838 -2.89241);
    }
}


// ************************************************************************* //
