/*--------------------------------*- C++ -*----------------------------------*\
  =========                 |
  \\      /  F ield         | OpenFOAM: The Open Source CFD Toolbox
   \\    /   O peration     | Website:  https://openfoam.org
    \\  /    A nd           | Version:  dev
     \\/     M anipulation  |

   OpenFOAM for Windows 20.09 (v1)
   Built by CFD Support, www.cfdsupport.com (based on Symscape).
\*---------------------------------------------------------------------------*/
FoamFile
{
    version     2.0;
    format      ascii;
    class       volScalarField;
    location    "2";
    object      p_rgh;
}
// * * * * * * * * * * * * * * * * * * * * * * * * * * * * * * * * * * * * * //

dimensions      [1 -1 -2 0 0 0 0];

internalField   nonuniform List<scalar> 
120
(
0.0382603
-0.023839
-0.0857449
-0.148653
0.0380475
-0.0238387
-0.085738
-0.148649
0.0380682
-0.0238388
-0.0857526
-0.148679
0.0380889
-0.0238403
-0.0857506
-0.148672
0.038109
-0.0238361
-0.0857516
-0.148672
0.0381284
-0.0238315
-0.0857513
-0.148671
0.0381472
-0.0238268
-0.0857546
-0.148672
0.0381653
-0.0238219
-0.0857556
-0.148672
0.0381834
-0.0238164
-0.0857564
-0.148672
0.0382011
-0.0238103
-0.085757
-0.148671
0.0382152
-0.023804
-0.0857572
-0.14867
0.0382306
-0.0237921
-0.0857483
-0.14866
0.0382454
-0.023784
-0.0857498
-0.148685
0.0382609
-0.0237637
-0.08573
-0.148685
0.0383079
-0.0237476
-0.0857362
-0.147584
-0.211286
-0.274052
-0.333802
-0.39923
-0.211307
-0.274067
-0.335229
-0.39992
-0.211311
-0.274068
-0.335225
-0.399917
-0.211315
-0.274069
-0.335221
-0.399913
-0.211319
-0.27407
-0.335219
-0.399913
-0.211324
-0.274071
-0.335215
-0.399913
-0.211329
-0.274077
-0.33521
-0.399909
-0.211334
-0.274078
-0.335205
-0.399906
-0.211338
-0.274079
-0.335199
-0.399902
-0.211343
-0.274081
-0.335194
-0.399898
-0.211348
-0.274082
-0.335189
-0.399891
-0.211354
-0.274079
-0.335182
-0.399889
-0.21136
-0.27408
-0.335176
-0.399877
-0.211366
-0.274066
-0.33517
-0.399861
-0.210173
-0.272949
-0.335132
-0.398517
)
;

boundaryField
{
    topWall
    {
        type            zeroGradient;
    }
    botWall
    {
        type            zeroGradient;
    }
    inlet
    {
        type            fixedJump;
        patchType       cyclic;
        jump            uniform -0.5;
        value           nonuniform List<scalar> 
15
(
0.0698954
0.0691997
0.0691843
0.0691708
0.0691621
0.0691514
0.0691407
0.0691298
0.069119
0.0691079
0.0690978
0.0690879
0.0690755
0.0690636
0.0695152
)
;
    }
    outlet
    {
        type            fixedJump;
        patchType       cyclic;
        value           nonuniform List<scalar> 
15
(
-0.430105
-0.4308
-0.430816
-0.430829
-0.430838
-0.430849
-0.430859
-0.43087
-0.430881
-0.430892
-0.430902
-0.430912
-0.430925
-0.430936
-0.430485
)
;
    }
    fixWall
    {
        type            empty;
    }
    procBoundary1to0
    {
        type            processor;
        value           nonuniform List<scalar> 8(0.0390557 -0.0238034 -0.0850942 -0.147444 -0.210664 -0.273984 -0.334334 -0.399647);
    }
    procBoundary1to2
    {
        type            processor;
        value           nonuniform List<scalar> 8(0.0383774 -0.0226397 -0.0846701 -0.147859 -0.210838 -0.273097 -0.334973 -0.399012);
    }
}


// ************************************************************************* //
