/*--------------------------------*- C++ -*----------------------------------*\
  =========                 |
  \\      /  F ield         | OpenFOAM: The Open Source CFD Toolbox
   \\    /   O peration     | Website:  https://openfoam.org
    \\  /    A nd           | Version:  dev
     \\/     M anipulation  |

   OpenFOAM for Windows 20.09 (v1)
   Built by CFD Support, www.cfdsupport.com (based on Symscape).
\*---------------------------------------------------------------------------*/
FoamFile
{
    version     2.0;
    format      ascii;
    class       surfaceScalarField;
    location    "2";
    object      phi;
}
// * * * * * * * * * * * * * * * * * * * * * * * * * * * * * * * * * * * * * //

dimensions      [0 3 -1 0 0 0 0];

internalField   nonuniform List<scalar> 
217
(
1.36122e-08
-1.37311e-10
1.36457e-08
-5.18041e-10
1.36464e-08
1.32099e-10
4.36631e-10
1.36185e-08
1.3684e-08
-1.49407e-10
1.37184e-08
-5.52378e-10
1.37223e-08
1.28147e-10
4.63115e-10
1.36958e-08
1.37371e-08
-1.60792e-10
1.37711e-08
-5.86305e-10
1.37776e-08
1.21659e-10
4.88114e-10
1.37526e-08
1.37754e-08
-1.72582e-10
1.38098e-08
-6.20695e-10
1.38182e-08
1.13346e-10
5.12718e-10
1.37936e-08
1.3803e-08
-1.84368e-10
1.38376e-08
-6.55281e-10
1.3847e-08
1.03934e-10
5.37036e-10
1.38227e-08
1.38224e-08
-1.96547e-10
1.38573e-08
-6.90187e-10
1.38674e-08
9.37687e-11
5.61264e-10
1.38432e-08
1.38358e-08
-2.08781e-10
1.38709e-08
-7.25281e-10
1.38814e-08
8.33047e-11
5.85207e-10
1.38575e-08
1.38452e-08
-2.2123e-10
1.38804e-08
-7.60465e-10
1.3891e-08
7.26759e-11
6.08956e-10
1.38673e-08
1.38514e-08
-2.33343e-10
1.38866e-08
-7.95669e-10
1.38974e-08
6.19205e-11
6.32465e-10
1.38738e-08
1.38558e-08
-2.45216e-10
1.38907e-08
-8.30602e-10
1.39015e-08
5.11522e-11
6.55417e-10
1.38785e-08
1.38585e-08
-2.56422e-10
1.38927e-08
-8.64798e-10
1.39037e-08
4.022e-11
6.77572e-10
1.38815e-08
1.3861e-08
-2.67004e-10
1.38938e-08
-8.97548e-10
1.39047e-08
2.92956e-11
6.98248e-10
1.3884e-08
1.38624e-08
-2.75794e-10
1.38931e-08
-9.28272e-10
1.39042e-08
1.82202e-11
7.1719e-10
1.38852e-08
1.38645e-08
-2.83631e-10
1.38915e-08
-9.55304e-10
1.39025e-08
7.29225e-12
7.33209e-10
1.38865e-08
1.38655e-08
1.3888e-08
1.38989e-08
1.38863e-08
1.36064e-08
2.33911e-10
1.36021e-08
-2.45282e-11
1.36156e-08
-4.79288e-10
3.59299e-10
1.36838e-08
2.45933e-10
1.3679e-08
-1.97744e-11
1.36889e-08
-4.89111e-10
3.76232e-10
1.37407e-08
2.57818e-10
1.37347e-08
-1.37456e-11
1.37426e-08
-4.97075e-10
3.9309e-10
1.37812e-08
2.7017e-10
1.37737e-08
-6.27173e-12
1.37801e-08
-5.0345e-10
4.09543e-10
1.38104e-08
2.82438e-10
1.38022e-08
1.9203e-12
1.38077e-08
-5.08982e-10
4.26095e-10
1.38306e-08
2.95002e-10
1.38218e-08
1.0803e-11
1.38265e-08
-5.13674e-10
4.42375e-10
1.3845e-08
3.07469e-10
1.38361e-08
1.96814e-11
1.38403e-08
-5.17808e-10
4.59027e-10
1.38548e-08
3.20007e-10
1.38456e-08
2.88737e-11
1.38494e-08
-5.21686e-10
4.75706e-10
1.38615e-08
3.32317e-10
1.38525e-08
3.78964e-11
1.38564e-08
-5.2555e-10
4.92823e-10
1.38661e-08
3.4475e-10
1.38568e-08
4.72508e-11
1.38609e-08
-5.29724e-10
5.09862e-10
1.38693e-08
3.57012e-10
1.386e-08
5.64856e-11
1.38649e-08
-5.34576e-10
5.27434e-10
1.38716e-08
3.6943e-10
1.38617e-08
6.63897e-11
1.38673e-08
-5.40168e-10
5.4433e-10
1.38734e-08
3.81213e-10
1.38636e-08
7.62125e-11
1.387e-08
-5.46589e-10
5.60807e-10
1.38752e-08
3.92429e-10
1.38646e-08
8.68713e-11
1.38716e-08
-5.53588e-10
5.75709e-10
1.38762e-08
1.38694e-08
1.38704e-08
)
;

boundaryField
{
    topWall
    {
        type            calculated;
        value           nonuniform List<scalar> 0();
    }
    botWall
    {
        type            calculated;
        value           nonuniform List<scalar> 0();
    }
    inlet
    {
        type            cyclic;
        value           nonuniform List<scalar> 
15
(
-1.38624e-08
-1.38567e-08
-1.38536e-08
-1.38504e-08
-1.38473e-08
-1.38439e-08
-1.38393e-08
-1.38328e-08
-1.38236e-08
-1.38102e-08
-1.37912e-08
-1.37637e-08
-1.37258e-08
-1.36719e-08
-1.36001e-08
)
;
    }
    outlet
    {
        type            cyclic;
        value           nonuniform List<scalar> 
15
(
1.38624e-08
1.38567e-08
1.38536e-08
1.38504e-08
1.38473e-08
1.38439e-08
1.38393e-08
1.38328e-08
1.38236e-08
1.38102e-08
1.37912e-08
1.37637e-08
1.37258e-08
1.36719e-08
1.36001e-08
)
;
    }
    fixWall
    {
        type            empty;
        value           nonuniform List<scalar> 0();
    }
    procBoundary1to0
    {
        type            processor;
        value           nonuniform List<scalar> 8(1.2529e-10 4.84138e-10 -1.3332e-10 -4.08732e-10 -2.20909e-10 2.9472e-11 4.65279e-10 -3.44539e-10);
    }
    procBoundary1to2
    {
        type            processor;
        value           nonuniform List<scalar> 8(-2.85982e-10 -9.7663e-10 -3.33124e-12 7.44718e-10 4.048e-10 9.33297e-11 -5.53174e-10 5.84135e-10);
    }
}


// ************************************************************************* //
