/*--------------------------------*- C++ -*----------------------------------*\
  =========                 |
  \\      /  F ield         | OpenFOAM: The Open Source CFD Toolbox
   \\    /   O peration     | Website:  https://openfoam.org
    \\  /    A nd           | Version:  dev
     \\/     M anipulation  |

   OpenFOAM for Windows 20.09 (v1)
   Built by CFD Support, www.cfdsupport.com (based on Symscape).
\*---------------------------------------------------------------------------*/
FoamFile
{
    version     2.0;
    format      ascii;
    class       volSymmTensorField;
    location    "2";
    object      R;
}
// * * * * * * * * * * * * * * * * * * * * * * * * * * * * * * * * * * * * * //

dimensions      [0 2 -2 0 0 0 0];

internalField   nonuniform List<symmTensor> 
120
(
(1.48028e-16 -3.04146e-19 -0 1.48031e-16 -0 1.4803e-16)
(1.48026e-16 -2.9089e-19 -0 1.48034e-16 -0 1.4803e-16)
(1.4803e-16 -3.01292e-19 -0 1.4803e-16 -0 1.4803e-16)
(1.48033e-16 -3.15515e-19 -0 1.48026e-16 -0 1.4803e-16)
(1.48028e-16 -2.53629e-19 -0 1.48031e-16 -0 1.4803e-16)
(1.48025e-16 -2.44263e-19 -0 1.48034e-16 -0 1.4803e-16)
(1.48029e-16 -2.55137e-19 -0 1.4803e-16 -0 1.4803e-16)
(1.48033e-16 -2.67409e-19 -0 1.48026e-16 -0 1.4803e-16)
(1.48028e-16 -2.08631e-19 -0 1.48031e-16 -0 1.4803e-16)
(1.48025e-16 -2.0144e-19 -0 1.48035e-16 -0 1.4803e-16)
(1.48029e-16 -2.10571e-19 -0 1.48031e-16 -0 1.4803e-16)
(1.48033e-16 -2.20749e-19 -0 1.48026e-16 -0 1.4803e-16)
(1.48028e-16 -1.6686e-19 -0 1.48031e-16 -0 1.4803e-16)
(1.48024e-16 -1.63669e-19 -0 1.48036e-16 -0 1.4803e-16)
(1.48029e-16 -1.71942e-19 -0 1.48031e-16 -0 1.4803e-16)
(1.48034e-16 -1.7814e-19 -0 1.48026e-16 -0 1.4803e-16)
(1.48028e-16 -1.31508e-19 -0 1.48032e-16 -0 1.4803e-16)
(1.48023e-16 -1.30132e-19 -0 1.48036e-16 -0 1.4803e-16)
(1.48028e-16 -1.36435e-19 -0 1.48031e-16 -0 1.4803e-16)
(1.48034e-16 -1.40144e-19 -0 1.48025e-16 -0 1.4803e-16)
(1.48028e-16 -1.00737e-19 -0 1.48032e-16 -0 1.4803e-16)
(1.48022e-16 -1.01393e-19 -0 1.48037e-16 -0 1.4803e-16)
(1.48028e-16 -1.0623e-19 -0 1.48032e-16 -0 1.4803e-16)
(1.48035e-16 -1.08012e-19 -0 1.48025e-16 -0 1.4803e-16)
(1.48027e-16 -7.61628e-20 -0 1.48032e-16 -0 1.4803e-16)
(1.48022e-16 -7.78185e-20 -0 1.48038e-16 -0 1.4803e-16)
(1.48028e-16 -8.07911e-20 -0 1.48032e-16 -0 1.4803e-16)
(1.48035e-16 -8.13616e-20 -0 1.48024e-16 -0 1.4803e-16)
(1.48027e-16 -5.61609e-20 -0 1.48032e-16 -0 1.4803e-16)
(1.48021e-16 -5.7794e-20 -0 1.48039e-16 -0 1.4803e-16)
(1.48027e-16 -5.98539e-20 -0 1.48032e-16 -0 1.4803e-16)
(1.48035e-16 -6.00344e-20 -0 1.48024e-16 -0 1.4803e-16)
(1.48027e-16 -4.15818e-20 -0 1.48033e-16 -0 1.48029e-16)
(1.4802e-16 -4.22364e-20 -0 1.48039e-16 -0 1.4803e-16)
(1.48027e-16 -4.23709e-20 -0 1.48032e-16 -0 1.4803e-16)
(1.48036e-16 -4.35763e-20 -0 1.48024e-16 -0 1.4803e-16)
(1.48027e-16 -3.12837e-20 -0 1.48033e-16 -0 1.4803e-16)
(1.48019e-16 -2.89079e-20 -0 1.4804e-16 -0 1.4803e-16)
(1.48027e-16 -2.6556e-20 -0 1.48033e-16 -0 1.4803e-16)
(1.48036e-16 -3.06205e-20 -0 1.48023e-16 -0 1.4803e-16)
(1.48027e-16 -2.6852e-20 -0 1.48033e-16 -0 1.48029e-16)
(1.48019e-16 -1.93866e-20 -0 1.48041e-16 -0 1.4803e-16)
(1.48027e-16 -1.16756e-20 -0 1.48033e-16 -0 1.4803e-16)
(1.48036e-16 -2.08946e-20 -0 1.48023e-16 -0 1.4803e-16)
(1.48027e-16 -2.70855e-20 -0 1.48033e-16 -0 1.48029e-16)
(1.48019e-16 -9.96475e-21 -0 1.48039e-16 -0 1.48031e-16)
(1.48027e-16 4.34906e-21 -0 1.48033e-16 -0 1.4803e-16)
(1.48036e-16 -1.15236e-20 -0 1.48023e-16 -0 1.4803e-16)
(1.48027e-16 -3.29602e-20 -0 1.48033e-16 -0 1.48029e-16)
(1.48019e-16 -2.63442e-21 -0 1.48041e-16 -0 1.4803e-16)
(1.48026e-16 2.35498e-20 -0 1.48034e-16 -0 1.48029e-16)
(1.48036e-16 -2.20989e-21 -0 1.48023e-16 -0 1.4803e-16)
(1.48028e-16 -4.45803e-20 -0 1.48032e-16 -0 1.4803e-16)
(1.48019e-16 5.35131e-21 -0 1.4804e-16 -0 1.4803e-16)
(1.48026e-16 4.71224e-20 -0 1.48033e-16 -0 1.4803e-16)
(1.48035e-16 1.02366e-20 -0 1.48024e-16 -0 1.4803e-16)
(1.48029e-16 -4.98588e-20 -0 1.4803e-16 -0 1.4803e-16)
(1.48021e-16 1.47754e-20 -0 1.48037e-16 -0 1.4803e-16)
(1.48026e-16 7.69458e-20 -0 1.48033e-16 -0 1.4803e-16)
(1.48035e-16 2.67402e-20 -0 1.48025e-16 -0 1.4803e-16)
(1.48032e-16 -3.16641e-19 -0 1.48028e-16 -0 1.4803e-16)
(1.4803e-16 -3.23443e-19 -0 1.48029e-16 -0 1.4803e-16)
(1.48029e-16 -3.01159e-19 -0 1.48031e-16 -0 1.48029e-16)
(1.48031e-16 -2.93377e-19 -0 1.48028e-16 -0 1.4803e-16)
(1.48031e-16 -2.65814e-19 -0 1.48029e-16 -0 1.48029e-16)
(1.4803e-16 -2.70225e-19 -0 1.48029e-16 -0 1.4803e-16)
(1.48029e-16 -2.55385e-19 -0 1.48031e-16 -0 1.48029e-16)
(1.48031e-16 -2.48034e-19 -0 1.48028e-16 -0 1.4803e-16)
(1.48032e-16 -2.1831e-19 -0 1.48028e-16 -0 1.4803e-16)
(1.4803e-16 -2.18612e-19 -0 1.48029e-16 -0 1.4803e-16)
(1.48029e-16 -2.06834e-19 -0 1.4803e-16 -0 1.48029e-16)
(1.48032e-16 -2.03508e-19 -0 1.48028e-16 -0 1.4803e-16)
(1.48032e-16 -1.74875e-19 -0 1.48028e-16 -0 1.4803e-16)
(1.4803e-16 -1.74738e-19 -0 1.48029e-16 -0 1.4803e-16)
(1.4803e-16 -1.65391e-19 -0 1.4803e-16 -0 1.48029e-16)
(1.48032e-16 -1.62495e-19 -0 1.48027e-16 -0 1.4803e-16)
(1.48032e-16 -1.37764e-19 -0 1.48027e-16 -0 1.4803e-16)
(1.48031e-16 -1.377e-19 -0 1.48029e-16 -0 1.4803e-16)
(1.4803e-16 -1.31002e-19 -0 1.4803e-16 -0 1.48029e-16)
(1.48032e-16 -1.28714e-19 -0 1.48027e-16 -0 1.4803e-16)
(1.48033e-16 -1.06327e-19 -0 1.48027e-16 -0 1.4803e-16)
(1.48031e-16 -1.06804e-19 -0 1.48028e-16 -0 1.4803e-16)
(1.4803e-16 -1.02257e-19 -0 1.4803e-16 -0 1.48029e-16)
(1.48032e-16 -9.93233e-20 -0 1.48027e-16 -0 1.4803e-16)
(1.48033e-16 -8.11182e-20 -0 1.48027e-16 -0 1.48029e-16)
(1.48031e-16 -8.16142e-20 -0 1.48028e-16 -0 1.4803e-16)
(1.4803e-16 -7.96352e-20 -0 1.4803e-16 -0 1.48029e-16)
(1.48032e-16 -7.68897e-20 -0 1.48027e-16 -0 1.4803e-16)
(1.48033e-16 -6.07522e-20 -0 1.48026e-16 -0 1.4803e-16)
(1.48031e-16 -6.03622e-20 -0 1.48028e-16 -0 1.4803e-16)
(1.4803e-16 -6.07586e-20 -0 1.4803e-16 -0 1.48029e-16)
(1.48033e-16 -5.9306e-20 -0 1.48026e-16 -0 1.4803e-16)
(1.48033e-16 -4.62036e-20 -0 1.48027e-16 -0 1.48029e-16)
(1.48031e-16 -4.34934e-20 -0 1.48028e-16 -0 1.4803e-16)
(1.4803e-16 -4.61107e-20 -0 1.4803e-16 -0 1.48029e-16)
(1.48033e-16 -4.69199e-20 -0 1.48026e-16 -0 1.4803e-16)
(1.48034e-16 -3.53853e-20 -0 1.48025e-16 -0 1.4803e-16)
(1.48031e-16 -3.00165e-20 -0 1.48028e-16 -0 1.4803e-16)
(1.4803e-16 -3.51151e-20 -0 1.4803e-16 -0 1.48029e-16)
(1.48033e-16 -3.87458e-20 -0 1.48025e-16 -0 1.48031e-16)
(1.48033e-16 -2.9419e-20 -0 1.48027e-16 -0 1.48029e-16)
(1.48031e-16 -2.00008e-20 -0 1.48028e-16 -0 1.4803e-16)
(1.4803e-16 -2.61183e-20 -0 1.4803e-16 -0 1.48029e-16)
(1.48033e-16 -3.37241e-20 -0 1.48026e-16 -0 1.4803e-16)
(1.48034e-16 -2.51024e-20 -0 1.48025e-16 -0 1.4803e-16)
(1.48032e-16 -1.43097e-20 -0 1.48027e-16 -0 1.48031e-16)
(1.4803e-16 -2.05183e-20 -0 1.4803e-16 -0 1.48029e-16)
(1.48034e-16 -3.24814e-20 -0 1.48025e-16 -0 1.4803e-16)
(1.48034e-16 -2.34883e-20 -0 1.48025e-16 -0 1.4803e-16)
(1.48032e-16 -1.30182e-20 -0 1.48027e-16 -0 1.4803e-16)
(1.4803e-16 -1.57835e-20 -0 1.48031e-16 -0 1.48029e-16)
(1.48034e-16 -3.07613e-20 -0 1.48025e-16 -0 1.48031e-16)
(1.48034e-16 -2.16904e-20 -0 1.48026e-16 -0 1.48029e-16)
(1.48032e-16 -1.8799e-20 -0 1.48027e-16 -0 1.4803e-16)
(1.48029e-16 -1.32606e-20 -0 1.48031e-16 -0 1.48029e-16)
(1.48033e-16 -2.92519e-20 -0 1.48026e-16 -0 1.4803e-16)
(1.48035e-16 -2.15307e-20 -0 1.48023e-16 -0 1.48031e-16)
(1.48032e-16 -1.42108e-20 -0 1.48027e-16 -0 1.4803e-16)
(1.4803e-16 -1.05309e-20 -0 1.4803e-16 -0 1.48029e-16)
(1.48034e-16 -3.24122e-20 -0 1.48024e-16 -0 1.48031e-16)
)
;

boundaryField
{
    topWall
    {
        type            kqRWallFunction;
        value           nonuniform List<symmTensor> 0();
    }
    botWall
    {
        type            kqRWallFunction;
        value           nonuniform List<symmTensor> 0();
    }
    inlet
    {
        type            cyclic;
    }
    outlet
    {
        type            cyclic;
    }
    fixWall
    {
        type            empty;
    }
    procBoundary1to0
    {
        type            processor;
        value           nonuniform List<symmTensor> 8((1.48029e-16 -3.57167e-19 -0 1.48031e-16 -0 1.4803e-16) (1.48026e-16 -3.4734e-19 -0 1.48033e-16 -0 1.4803e-16) (1.4803e-16 -3.56188e-19 -0 1.48029e-16 -0 1.4803e-16) (1.48033e-16 -3.66113e-19 -0 1.48027e-16 -0 1.4803e-16) (1.48031e-16 -3.65557e-19 -0 1.48028e-16 -0 1.4803e-16) (1.48029e-16 -3.72133e-19 -0 1.4803e-16 -0 1.4803e-16) (1.48028e-16 -3.51597e-19 -0 1.48032e-16 -0 1.48029e-16) (1.48031e-16 -3.44913e-19 -0 1.48028e-16 -0 1.4803e-16));
    }
    procBoundary1to2
    {
        type            processor;
        value           nonuniform List<symmTensor> 8((1.4803e-16 -4.22462e-20 -0 1.4803e-16 -0 1.4803e-16) (1.48021e-16 1.83198e-20 -0 1.48039e-16 -0 1.48028e-16) (1.48026e-16 6.43578e-20 -0 1.48034e-16 -0 1.48029e-16) (1.48032e-16 1.81804e-20 -0 1.48028e-16 -0 1.48029e-16) (1.48033e-16 -2.30395e-20 -0 1.48027e-16 -0 1.48029e-16) (1.48032e-16 -8.07662e-21 -0 1.48028e-16 -0 1.48029e-16) (1.48029e-16 -1.06065e-20 -0 1.48031e-16 -0 1.48029e-16) (1.48032e-16 -4.00337e-20 -0 1.48028e-16 -0 1.4803e-16));
    }
}


// ************************************************************************* //
