/*--------------------------------*- C++ -*----------------------------------*\
  =========                 |
  \\      /  F ield         | OpenFOAM: The Open Source CFD Toolbox
   \\    /   O peration     | Website:  https://openfoam.org
    \\  /    A nd           | Version:  dev
     \\/     M anipulation  |

   OpenFOAM for Windows 20.09 (v1)
   Built by CFD Support, www.cfdsupport.com (based on Symscape).
\*---------------------------------------------------------------------------*/
FoamFile
{
    version     2.0;
    format      ascii;
    class       volVectorField;
    location    "2";
    object      U;
}
// * * * * * * * * * * * * * * * * * * * * * * * * * * * * * * * * * * * * * //

dimensions      [0 1 -1 0 0 0 0];

internalField   nonuniform List<vector> 
120
(
(0.0163107 -2.73212e-06 0)
(0.0163582 -9.917e-06 0)
(0.0163936 2.67616e-06 0)
(0.0163555 8.45567e-06 0)
(0.0163986 -2.79707e-06 0)
(0.0164433 -1.08444e-05 0)
(0.0164826 2.60665e-06 0)
(0.0164486 9.03548e-06 0)
(0.0164639 -3.19187e-06 0)
(0.0165054 -1.13117e-05 0)
(0.0165471 2.50173e-06 0)
(0.0165167 9.45526e-06 0)
(0.0165104 -3.30487e-06 0)
(0.0165507 -1.21163e-05 0)
(0.0165948 2.37622e-06 0)
(0.0165665 1.00802e-05 0)
(0.0165438 -3.5858e-06 0)
(0.0165833 -1.27131e-05 0)
(0.0166288 2.1588e-06 0)
(0.0166016 1.04241e-05 0)
(0.0165671 -3.79347e-06 0)
(0.0166065 -1.35084e-05 0)
(0.0166529 1.99275e-06 0)
(0.0166265 1.105e-05 0)
(0.0165833 -4.05438e-06 0)
(0.0166226 -1.41092e-05 0)
(0.0166696 1.75948e-06 0)
(0.0166435 1.14085e-05 0)
(0.0165944 -4.31651e-06 0)
(0.0166339 -1.48844e-05 0)
(0.016681 1.57119e-06 0)
(0.0166552 1.19899e-05 0)
(0.0166019 -4.51269e-06 0)
(0.0166412 -1.55548e-05 0)
(0.0166885 1.33678e-06 0)
(0.0166629 1.23736e-05 0)
(0.0166073 -4.84485e-06 0)
(0.0166464 -1.62418e-05 0)
(0.0166932 1.13897e-06 0)
(0.0166681 1.29302e-05 0)
(0.016611 -4.92426e-06 0)
(0.0166491 -1.70183e-05 0)
(0.0166954 8.79016e-07 0)
(0.0166712 1.33245e-05 0)
(0.0166146 -5.35913e-06 0)
(0.0166513 -1.76576e-05 0)
(0.0166957 7.0582e-07 0)
(0.0166734 1.37207e-05 0)
(0.016618 -5.43272e-06 0)
(0.0166514 -1.80847e-05 0)
(0.0166938 5.46662e-07 0)
(0.0166739 1.41864e-05 0)
(0.0166226 -5.77573e-06 0)
(0.0166518 -1.89456e-05 0)
(0.0166898 1.95148e-07 0)
(0.0166738 1.445e-05 0)
(0.016628 -5.67534e-06 0)
(0.0166501 -1.91735e-05 0)
(0.0166832 1.31336e-07 0)
(0.0166716 1.4813e-05 0)
(0.0163297 4.55341e-06 0)
(0.0163213 -4.95502e-07 0)
(0.0163343 -9.51904e-06 0)
(0.0163333 7.08928e-06 0)
(0.016422 4.96139e-06 0)
(0.0164159 -4.365e-07 0)
(0.0164232 -9.68931e-06 0)
(0.0164187 7.30153e-06 0)
(0.0164901 4.81842e-06 0)
(0.0164844 -3.77398e-07 0)
(0.0164882 -9.88942e-06 0)
(0.0164827 7.73682e-06 0)
(0.0165388 5.50336e-06 0)
(0.0165329 -1.84738e-07 0)
(0.0165335 -9.99778e-06 0)
(0.0165273 7.96183e-06 0)
(0.0165736 5.29926e-06 0)
(0.016568 -5.83685e-08 0)
(0.0165669 -1.0142e-05 0)
(0.0165601 8.41807e-06 0)
(0.0165981 5.95603e-06 0)
(0.0165922 1.1368e-07 0)
(0.0165896 -1.02116e-05 0)
(0.0165824 8.64003e-06 0)
(0.0166151 5.88844e-06 0)
(0.0166098 3.13087e-07 0)
(0.0166065 -1.03289e-05 0)
(0.0165985 9.05684e-06 0)
(0.0166269 6.35646e-06 0)
(0.0166214 4.83215e-07 0)
(0.0166176 -1.03923e-05 0)
(0.0166094 9.30122e-06 0)
(0.016635 6.49885e-06 0)
(0.0166296 6.61152e-07 0)
(0.016626 -1.0469e-05 0)
(0.0166176 9.72903e-06 0)
(0.0166409 6.74879e-06 0)
(0.0166346 8.72417e-07 0)
(0.0166312 -1.05596e-05 0)
(0.0166234 9.98676e-06 0)
(0.016645 7.14809e-06 0)
(0.0166382 1.0204e-06 0)
(0.0166356 -1.06208e-05 0)
(0.0166283 1.04694e-05 0)
(0.0166487 7.0311e-06 0)
(0.0166401 1.20131e-06 0)
(0.0166377 -1.07846e-05 0)
(0.0166319 1.05881e-05 0)
(0.0166512 7.70837e-06 0)
(0.0166419 1.48574e-06 0)
(0.0166403 -1.07487e-05 0)
(0.016636 1.1075e-05 0)
(0.0166542 7.55651e-06 0)
(0.0166433 1.63478e-06 0)
(0.0166412 -1.10311e-05 0)
(0.0166388 1.12446e-05 0)
(0.0166561 8.01748e-06 0)
(0.0166463 1.87842e-06 0)
(0.016643 -1.10535e-05 0)
(0.0166422 1.15588e-05 0)
)
;

boundaryField
{
    topWall
    {
        type            noSlip;
    }
    botWall
    {
        type            noSlip;
    }
    inlet
    {
        type            cyclic;
    }
    outlet
    {
        type            cyclic;
    }
    fixWall
    {
        type            empty;
    }
    procBoundary1to0
    {
        type            processor;
        value           nonuniform List<vector> 8((0.0161896 -2.25585e-06 0) (0.0162437 -9.40141e-06 0) (0.0162761 2.6003e-06 0) (0.016232 7.89175e-06 0) (0.0162046 4.14263e-06 0) (0.0161937 -6.69854e-07 0) (0.0162166 -9.07787e-06 0) (0.0162174 6.65647e-06 0));
    }
    procBoundary1to2
    {
        type            processor;
        value           nonuniform List<vector> 8((0.0166333 -5.75419e-06 0) (0.0166487 -1.96716e-05 0) (0.0166736 -1.75392e-07 0) (0.0166682 1.5009e-05 0) (0.0166588 8.40205e-06 0) (0.0166465 1.94113e-06 0) (0.0166432 -1.10455e-05 0) (0.0166453 1.19322e-05 0));
    }
}


// ************************************************************************* //
