/*--------------------------------*- C++ -*----------------------------------*\
  =========                 |
  \\      /  F ield         | OpenFOAM: The Open Source CFD Toolbox
   \\    /   O peration     | Website:  https://openfoam.org
    \\  /    A nd           | Version:  dev
     \\/     M anipulation  |

   OpenFOAM for Windows 20.09 (v1)
   Built by CFD Support, www.cfdsupport.com (based on Symscape).
\*---------------------------------------------------------------------------*/
FoamFile
{
    version     2.0;
    format      ascii;
    class       volScalarField;
    location    "10";
    object      epsilon;
}
// * * * * * * * * * * * * * * * * * * * * * * * * * * * * * * * * * * * * * //

dimensions      [0 2 -3 0 0 0 0];

internalField   nonuniform List<scalar> 
1600
(
0.000998036
0.000998054
0.000998063
0.000998066
0.000998065
0.000998061
0.000998049
0.000998042
0.000998042
0.000998043
0.000998044
0.000998044
0.000998035
0.000998024
0.00099802
0.00099802
0.00099802
0.00099802
0.00099802
0.000998021
0.000998021
0.000998022
0.000998023
0.000998023
0.000998024
0.000998024
0.000998024
0.000998025
0.000998025
0.000998025
0.000998026
0.000998027
0.000998027
0.000998027
0.000998028
0.000998028
0.000998029
0.000998029
0.000998029
0.000998029
0.000479899
0.000479905
0.00047991
0.000479912
0.000479913
0.000479912
0.000479909
0.000479906
0.000479905
0.000479905
0.000479905
0.000479904
0.0004799
0.000479895
0.000479893
0.000479893
0.000479893
0.000479893
0.000479893
0.000479893
0.000479893
0.000479893
0.000479894
0.000479894
0.000479894
0.000479894
0.000479894
0.000479895
0.000479895
0.000479895
0.000479895
0.000479895
0.000479896
0.000479896
0.000479896
0.000479896
0.000479896
0.000479897
0.000479896
0.000479897
0.000411831
0.000411836
0.00041184
0.000411843
0.000411843
0.000411842
0.00041184
0.000411838
0.000411837
0.000411836
0.000411835
0.000411834
0.000411831
0.000411827
0.000411825
0.000411825
0.000411825
0.000411825
0.000411825
0.000411825
0.000411825
0.000411825
0.000411826
0.000411826
0.000411826
0.000411826
0.000411826
0.000411826
0.000411827
0.000411827
0.000411827
0.000411827
0.000411827
0.000411828
0.000411828
0.000411828
0.000411828
0.000411828
0.000411828
0.000411829
0.000402959
0.000402964
0.000402968
0.00040297
0.000402971
0.00040297
0.000402968
0.000402965
0.000402964
0.000402963
0.000402961
0.00040296
0.000402956
0.000402953
0.000402951
0.000402951
0.000402951
0.000402951
0.000402951
0.000402952
0.000402952
0.000402952
0.000402952
0.000402952
0.000402952
0.000402952
0.000402953
0.000402953
0.000402953
0.000402953
0.000402953
0.000402954
0.000402954
0.000402954
0.000402954
0.000402954
0.000402955
0.000402955
0.000402955
0.000402955
0.000410036
0.000410042
0.000410046
0.000410048
0.000410048
0.000410047
0.000410045
0.000410042
0.00041004
0.000410038
0.000410037
0.000410034
0.000410031
0.000410028
0.000410026
0.000410026
0.000410026
0.000410027
0.000410027
0.000410027
0.000410027
0.000410027
0.000410027
0.000410027
0.000410027
0.000410028
0.000410028
0.000410028
0.000410028
0.000410028
0.000410029
0.000410029
0.000410029
0.000410029
0.00041003
0.00041003
0.00041003
0.00041003
0.00041003
0.000410031
0.000422376
0.000422381
0.000422385
0.000422387
0.000422387
0.000422386
0.000422384
0.000422381
0.000422378
0.000422376
0.000422374
0.000422372
0.000422368
0.000422365
0.000422364
0.000422364
0.000422364
0.000422364
0.000422364
0.000422364
0.000422365
0.000422365
0.000422365
0.000422365
0.000422365
0.000422365
0.000422365
0.000422366
0.000422366
0.000422366
0.000422367
0.000422367
0.000422367
0.000422367
0.000422368
0.000422368
0.000422368
0.000422368
0.000422368
0.000422369
0.000436013
0.000436018
0.000436023
0.000436024
0.000436024
0.000436024
0.000436021
0.000436017
0.000436015
0.000436012
0.00043601
0.000436007
0.000436004
0.000436001
0.000436
0.000436
0.000436
0.000436
0.000436
0.000436
0.000436
0.000436001
0.000436001
0.000436001
0.000436001
0.000436001
0.000436001
0.000436002
0.000436002
0.000436002
0.000436002
0.000436003
0.000436003
0.000436003
0.000436003
0.000436004
0.000436004
0.000436004
0.000436004
0.000436005
0.000449143
0.000449149
0.000449154
0.000449155
0.000449156
0.000449155
0.000449151
0.000449148
0.000449145
0.000449143
0.00044914
0.000449138
0.000449134
0.000449131
0.00044913
0.00044913
0.00044913
0.00044913
0.00044913
0.000449131
0.000449131
0.000449131
0.000449131
0.000449131
0.000449132
0.000449132
0.000449132
0.000449132
0.000449132
0.000449133
0.000449133
0.000449133
0.000449133
0.000449134
0.000449134
0.000449134
0.000449134
0.000449134
0.000449134
0.000449136
0.000460886
0.000460893
0.000460897
0.000460899
0.000460899
0.000460898
0.000460895
0.000460892
0.000460889
0.000460886
0.000460884
0.000460881
0.000460878
0.000460875
0.000460874
0.000460874
0.000460874
0.000460874
0.000460874
0.000460874
0.000460875
0.000460875
0.000460875
0.000460876
0.000460876
0.000460876
0.000460876
0.000460876
0.000460876
0.000460876
0.000460877
0.000460877
0.000460877
0.000460877
0.000460877
0.000460877
0.000460878
0.000460878
0.000460878
0.000460879
0.000470844
0.000470851
0.000470855
0.000470856
0.000470857
0.000470856
0.000470853
0.00047085
0.000470847
0.000470845
0.000470843
0.00047084
0.000470837
0.000470834
0.000470833
0.000470833
0.000470833
0.000470833
0.000470833
0.000470833
0.000470834
0.000470834
0.000470834
0.000470834
0.000470834
0.000470834
0.000470834
0.000470834
0.000470835
0.000470835
0.000470835
0.000470835
0.000470835
0.000470836
0.000470836
0.000470836
0.000470836
0.000470836
0.000470836
0.000470838
0.000478909
0.000478915
0.000478919
0.00047892
0.00047892
0.000478919
0.000478917
0.000478914
0.000478912
0.00047891
0.000478908
0.000478905
0.000478903
0.0004789
0.000478899
0.000478899
0.000478899
0.000478899
0.000478899
0.000478899
0.000478899
0.0004789
0.0004789
0.0004789
0.0004789
0.0004789
0.0004789
0.0004789
0.0004789
0.0004789
0.0004789
0.000478901
0.000478901
0.000478901
0.000478901
0.000478901
0.000478901
0.000478902
0.000478902
0.000478903
0.000485159
0.000485165
0.000485168
0.000485169
0.000485169
0.000485168
0.000485166
0.000485163
0.000485161
0.00048516
0.000485158
0.000485156
0.000485154
0.000485152
0.00048515
0.00048515
0.00048515
0.00048515
0.00048515
0.00048515
0.00048515
0.00048515
0.000485151
0.000485151
0.000485151
0.000485151
0.000485151
0.000485151
0.000485151
0.000485151
0.000485151
0.000485151
0.000485152
0.000485152
0.000485152
0.000485152
0.000485152
0.000485152
0.000485153
0.000485154
0.000489791
0.000489796
0.000489798
0.0004898
0.0004898
0.000489799
0.000489797
0.000489795
0.000489793
0.000489792
0.000489791
0.000489789
0.000489787
0.000489785
0.000489784
0.000489783
0.000489783
0.000489783
0.000489783
0.000489784
0.000489784
0.000489784
0.000489784
0.000489784
0.000489784
0.000489784
0.000489784
0.000489784
0.000489784
0.000489784
0.000489784
0.000489785
0.000489785
0.000489785
0.000489785
0.000489785
0.000489785
0.000489785
0.000489786
0.000489787
0.000493068
0.000493072
0.000493074
0.000493075
0.000493075
0.000493074
0.000493073
0.000493071
0.00049307
0.000493069
0.000493068
0.000493067
0.000493065
0.000493063
0.000493062
0.000493062
0.000493061
0.000493061
0.000493062
0.000493062
0.000493062
0.000493062
0.000493062
0.000493062
0.000493062
0.000493062
0.000493062
0.000493062
0.000493062
0.000493062
0.000493062
0.000493062
0.000493063
0.000493063
0.000493063
0.000493063
0.000493063
0.000493063
0.000493063
0.000493064
0.000495275
0.000495278
0.000495279
0.00049528
0.00049528
0.00049528
0.000495278
0.000495277
0.000495276
0.000495276
0.000495275
0.000495274
0.000495272
0.000495271
0.00049527
0.000495269
0.000495269
0.000495269
0.000495269
0.000495269
0.000495269
0.00049527
0.00049527
0.00049527
0.00049527
0.00049527
0.00049527
0.00049527
0.00049527
0.00049527
0.00049527
0.00049527
0.00049527
0.00049527
0.00049527
0.000495271
0.000495271
0.000495271
0.000495271
0.000495272
0.000496685
0.000496687
0.000496689
0.000496689
0.000496689
0.000496689
0.000496688
0.000496687
0.000496686
0.000496686
0.000496685
0.000496684
0.000496683
0.000496682
0.000496681
0.000496681
0.000496681
0.000496681
0.000496681
0.000496681
0.000496681
0.000496681
0.000496681
0.000496681
0.000496681
0.000496681
0.000496681
0.000496681
0.000496681
0.000496681
0.000496681
0.000496681
0.000496681
0.000496681
0.000496681
0.000496681
0.000496682
0.000496682
0.000496682
0.000496682
0.000497537
0.000497538
0.00049754
0.00049754
0.00049754
0.00049754
0.000497539
0.000497538
0.000497538
0.000497537
0.000497537
0.000497536
0.000497535
0.000497534
0.000497534
0.000497533
0.000497533
0.000497533
0.000497533
0.000497533
0.000497533
0.000497533
0.000497533
0.000497533
0.000497533
0.000497534
0.000497534
0.000497534
0.000497534
0.000497534
0.000497534
0.000497534
0.000497534
0.000497534
0.000497534
0.000497534
0.000497534
0.000497534
0.000497534
0.000497535
0.000498019
0.000498021
0.000498022
0.000498022
0.000498023
0.000498022
0.000498022
0.000498021
0.00049802
0.00049802
0.000498019
0.000498019
0.000498018
0.000498018
0.000498017
0.000498017
0.000498017
0.000498017
0.000498017
0.000498017
0.000498017
0.000498017
0.000498017
0.000498017
0.000498017
0.000498017
0.000498017
0.000498017
0.000498017
0.000498017
0.000498017
0.000498017
0.000498017
0.000498017
0.000498017
0.000498017
0.000498017
0.000498017
0.000498017
0.000498018
0.00049827
0.000498272
0.000498273
0.000498273
0.000498273
0.000498273
0.000498272
0.000498272
0.000498271
0.000498271
0.00049827
0.00049827
0.000498269
0.000498269
0.000498268
0.000498268
0.000498268
0.000498268
0.000498268
0.000498268
0.000498268
0.000498268
0.000498268
0.000498268
0.000498268
0.000498269
0.000498269
0.000498269
0.000498269
0.000498269
0.000498269
0.000498269
0.000498269
0.000498269
0.000498269
0.000498269
0.000498269
0.000498269
0.000498269
0.000498269
0.000498376
0.000498377
0.000498378
0.000498378
0.000498378
0.000498378
0.000498378
0.000498377
0.000498377
0.000498376
0.000498376
0.000498375
0.000498375
0.000498374
0.000498374
0.000498374
0.000498374
0.000498374
0.000498374
0.000498374
0.000498374
0.000498374
0.000498374
0.000498374
0.000498374
0.000498374
0.000498374
0.000498375
0.000498375
0.000498375
0.000498375
0.000498375
0.000498375
0.000498375
0.000498375
0.000498375
0.000498375
0.000498375
0.000498375
0.000498375
0.000498376
0.000498378
0.000498378
0.000498378
0.000498378
0.000498378
0.000498378
0.000498377
0.000498377
0.000498376
0.000498375
0.000498375
0.000498375
0.000498374
0.000498374
0.000498374
0.000498374
0.000498374
0.000498374
0.000498374
0.000498374
0.000498374
0.000498374
0.000498374
0.000498374
0.000498375
0.000498375
0.000498375
0.000498375
0.000498375
0.000498375
0.000498375
0.000498375
0.000498375
0.000498375
0.000498375
0.000498375
0.000498375
0.000498375
0.000498375
0.000498271
0.000498272
0.000498273
0.000498273
0.000498273
0.000498273
0.000498272
0.000498272
0.000498271
0.00049827
0.00049827
0.000498269
0.000498269
0.000498268
0.000498268
0.000498268
0.000498268
0.000498268
0.000498268
0.000498269
0.000498269
0.000498269
0.000498269
0.000498269
0.000498269
0.000498269
0.000498269
0.000498269
0.000498269
0.000498269
0.000498269
0.000498269
0.000498269
0.000498269
0.000498269
0.000498269
0.000498269
0.000498269
0.000498269
0.00049827
0.000498021
0.000498022
0.000498023
0.000498023
0.000498023
0.000498023
0.000498022
0.000498021
0.00049802
0.000498019
0.000498019
0.000498018
0.000498017
0.000498017
0.000498017
0.000498017
0.000498017
0.000498017
0.000498017
0.000498017
0.000498017
0.000498017
0.000498017
0.000498017
0.000498017
0.000498017
0.000498017
0.000498018
0.000498018
0.000498018
0.000498018
0.000498018
0.000498018
0.000498018
0.000498018
0.000498018
0.000498018
0.000498018
0.000498018
0.000498019
0.000497539
0.00049754
0.000497541
0.000497541
0.000497541
0.000497541
0.00049754
0.000497539
0.000497538
0.000497537
0.000497536
0.000497535
0.000497534
0.000497534
0.000497534
0.000497534
0.000497534
0.000497534
0.000497534
0.000497534
0.000497534
0.000497534
0.000497534
0.000497534
0.000497534
0.000497534
0.000497534
0.000497534
0.000497534
0.000497535
0.000497535
0.000497535
0.000497535
0.000497535
0.000497535
0.000497535
0.000497535
0.000497535
0.000497535
0.000497536
0.000496688
0.000496689
0.00049669
0.000496691
0.000496691
0.00049669
0.00049669
0.000496688
0.000496687
0.000496685
0.000496684
0.000496682
0.000496682
0.000496681
0.000496681
0.000496681
0.000496682
0.000496682
0.000496682
0.000496682
0.000496682
0.000496682
0.000496682
0.000496682
0.000496682
0.000496682
0.000496682
0.000496682
0.000496682
0.000496683
0.000496683
0.000496683
0.000496683
0.000496683
0.000496683
0.000496683
0.000496683
0.000496683
0.000496683
0.000496684
0.000495278
0.00049528
0.000495282
0.000495282
0.000495282
0.000495282
0.000495281
0.000495279
0.000495277
0.000495275
0.000495273
0.000495272
0.000495271
0.00049527
0.000495271
0.000495271
0.000495271
0.000495271
0.000495271
0.000495271
0.000495271
0.000495271
0.000495271
0.000495271
0.000495271
0.000495271
0.000495272
0.000495272
0.000495272
0.000495272
0.000495272
0.000495272
0.000495273
0.000495273
0.000495273
0.000495273
0.000495273
0.000495273
0.000495273
0.000495274
0.000493072
0.000493075
0.000493076
0.000493077
0.000493077
0.000493077
0.000493075
0.000493073
0.000493071
0.000493068
0.000493066
0.000493065
0.000493063
0.000493063
0.000493063
0.000493063
0.000493063
0.000493063
0.000493063
0.000493063
0.000493063
0.000493064
0.000493064
0.000493064
0.000493064
0.000493064
0.000493064
0.000493065
0.000493065
0.000493065
0.000493065
0.000493065
0.000493065
0.000493066
0.000493066
0.000493066
0.000493066
0.000493066
0.000493066
0.000493067
0.000489796
0.000489799
0.000489801
0.000489802
0.000489802
0.000489801
0.0004898
0.000489797
0.000489794
0.000489791
0.000489789
0.000489787
0.000489786
0.000489785
0.000489785
0.000489785
0.000489785
0.000489785
0.000489786
0.000489786
0.000489786
0.000489786
0.000489786
0.000489786
0.000489786
0.000489786
0.000489787
0.000489787
0.000489787
0.000489787
0.000489788
0.000489788
0.000489788
0.000489788
0.000489788
0.000489789
0.000489789
0.000489789
0.000489789
0.00048979
0.000485164
0.000485168
0.00048517
0.000485171
0.000485171
0.00048517
0.000485168
0.000485165
0.000485162
0.000485159
0.000485156
0.000485154
0.000485152
0.000485152
0.000485152
0.000485152
0.000485152
0.000485152
0.000485152
0.000485152
0.000485152
0.000485153
0.000485153
0.000485153
0.000485153
0.000485153
0.000485154
0.000485154
0.000485154
0.000485154
0.000485155
0.000485155
0.000485155
0.000485155
0.000485155
0.000485156
0.000485156
0.000485156
0.000485156
0.000485158
0.000478914
0.000478917
0.00047892
0.000478921
0.000478921
0.000478921
0.000478918
0.000478914
0.000478911
0.000478908
0.000478905
0.000478903
0.000478901
0.0004789
0.0004789
0.000478901
0.000478901
0.000478901
0.000478901
0.000478901
0.000478901
0.000478901
0.000478901
0.000478902
0.000478902
0.000478902
0.000478902
0.000478902
0.000478903
0.000478903
0.000478903
0.000478904
0.000478904
0.000478904
0.000478904
0.000478905
0.000478905
0.000478905
0.000478905
0.000478906
0.000470847
0.000470852
0.000470855
0.000470856
0.000470856
0.000470855
0.000470852
0.000470849
0.000470845
0.000470842
0.000470839
0.000470837
0.000470835
0.000470834
0.000470834
0.000470834
0.000470834
0.000470835
0.000470835
0.000470835
0.000470835
0.000470835
0.000470835
0.000470836
0.000470836
0.000470836
0.000470836
0.000470836
0.000470836
0.000470837
0.000470837
0.000470837
0.000470837
0.000470838
0.000470838
0.000470838
0.000470839
0.000470838
0.000470838
0.00047084
0.000460887
0.000460892
0.000460895
0.000460897
0.000460897
0.000460896
0.000460893
0.000460889
0.000460886
0.000460883
0.00046088
0.000460877
0.000460875
0.000460874
0.000460874
0.000460874
0.000460874
0.000460875
0.000460875
0.000460875
0.000460875
0.000460875
0.000460876
0.000460876
0.000460876
0.000460876
0.000460876
0.000460876
0.000460876
0.000460877
0.000460877
0.000460877
0.000460878
0.000460878
0.000460878
0.000460878
0.000460878
0.000460878
0.000460878
0.00046088
0.000449141
0.000449146
0.000449149
0.000449151
0.000449151
0.00044915
0.000449147
0.000449144
0.000449141
0.000449138
0.000449136
0.000449133
0.00044913
0.000449129
0.000449129
0.000449129
0.000449129
0.000449129
0.00044913
0.00044913
0.00044913
0.00044913
0.00044913
0.00044913
0.00044913
0.000449131
0.000449131
0.000449131
0.000449131
0.000449131
0.000449132
0.000449132
0.000449132
0.000449133
0.000449133
0.000449133
0.000449133
0.000449132
0.000449133
0.000449134
0.000436007
0.000436012
0.000436016
0.000436018
0.000436018
0.000436017
0.000436014
0.000436011
0.000436009
0.000436007
0.000436004
0.000436001
0.000435999
0.000435998
0.000435997
0.000435997
0.000435998
0.000435998
0.000435998
0.000435998
0.000435998
0.000435998
0.000435998
0.000435998
0.000435998
0.000435999
0.000435999
0.000435999
0.000435999
0.000435999
0.000436
0.000436
0.000436
0.000436
0.000436001
0.000436001
0.000436
0.000436
0.000436
0.000436001
0.000422368
0.000422372
0.000422376
0.000422378
0.000422379
0.000422378
0.000422376
0.000422374
0.000422372
0.00042237
0.000422368
0.000422365
0.000422362
0.000422361
0.00042236
0.00042236
0.000422361
0.000422361
0.000422361
0.000422361
0.000422361
0.000422361
0.000422361
0.000422361
0.000422361
0.000422361
0.000422362
0.000422362
0.000422362
0.000422362
0.000422362
0.000422362
0.000422363
0.000422363
0.000422363
0.000422363
0.000422363
0.000422363
0.000422363
0.000422364
0.000410027
0.000410031
0.000410035
0.000410037
0.000410038
0.000410038
0.000410036
0.000410034
0.000410033
0.000410031
0.000410029
0.000410027
0.000410024
0.000410023
0.000410022
0.000410022
0.000410022
0.000410022
0.000410022
0.000410022
0.000410022
0.000410022
0.000410022
0.000410022
0.000410023
0.000410023
0.000410023
0.000410023
0.000410023
0.000410023
0.000410023
0.000410023
0.000410023
0.000410024
0.000410024
0.000410024
0.000410024
0.000410024
0.000410024
0.000410025
0.000402951
0.000402953
0.000402957
0.000402959
0.00040296
0.00040296
0.000402958
0.000402957
0.000402956
0.000402956
0.000402954
0.000402951
0.000402949
0.000402947
0.000402946
0.000402946
0.000402946
0.000402946
0.000402946
0.000402946
0.000402946
0.000402946
0.000402947
0.000402947
0.000402947
0.000402947
0.000402947
0.000402947
0.000402947
0.000402947
0.000402947
0.000402947
0.000402947
0.000402947
0.000402947
0.000402947
0.000402947
0.000402947
0.000402948
0.000402949
0.000411824
0.000411826
0.000411829
0.000411831
0.000411832
0.000411832
0.00041183
0.00041183
0.000411829
0.000411829
0.000411827
0.000411824
0.000411822
0.00041182
0.000411819
0.000411819
0.000411819
0.000411819
0.000411819
0.000411819
0.000411819
0.000411819
0.000411819
0.000411819
0.000411819
0.000411819
0.000411819
0.000411819
0.000411819
0.00041182
0.00041182
0.00041182
0.00041182
0.00041182
0.00041182
0.00041182
0.00041182
0.00041182
0.00041182
0.000411822
0.00047989
0.000479893
0.000479897
0.000479899
0.0004799
0.000479899
0.000479897
0.000479896
0.000479896
0.000479896
0.000479895
0.000479891
0.000479888
0.000479886
0.000479885
0.000479885
0.000479885
0.000479885
0.000479885
0.000479885
0.000479885
0.000479886
0.000479886
0.000479886
0.000479885
0.000479885
0.000479885
0.000479885
0.000479885
0.000479885
0.000479886
0.000479886
0.000479886
0.000479886
0.000479886
0.000479886
0.000479886
0.000479886
0.000479886
0.000479887
0.00099801
0.000998021
0.000998032
0.000998037
0.000998036
0.000998031
0.000998025
0.000998023
0.000998023
0.000998023
0.000998021
0.000998013
0.000998007
0.000998003
0.000998002
0.000998002
0.000998002
0.000998002
0.000998003
0.000998003
0.000998003
0.000998003
0.000998004
0.000998003
0.000998003
0.000998003
0.000998003
0.000998003
0.000998003
0.000998003
0.000998003
0.000998003
0.000998003
0.000998003
0.000998004
0.000998004
0.000998004
0.000998005
0.000998005
0.000998006
)
;

boundaryField
{
    bottomWall
    {
        type            epsilonWallFunction;
        value           nonuniform List<scalar> 
40
(
0.000998036
0.000998054
0.000998063
0.000998066
0.000998065
0.000998061
0.000998049
0.000998042
0.000998042
0.000998043
0.000998044
0.000998044
0.000998035
0.000998024
0.00099802
0.00099802
0.00099802
0.00099802
0.00099802
0.000998021
0.000998021
0.000998022
0.000998023
0.000998023
0.000998024
0.000998024
0.000998024
0.000998025
0.000998025
0.000998025
0.000998026
0.000998027
0.000998027
0.000998027
0.000998028
0.000998028
0.000998029
0.000998029
0.000998029
0.000998029
)
;
    }
    topWall
    {
        type            epsilonWallFunction;
        value           nonuniform List<scalar> 
40
(
0.00099801
0.000998021
0.000998032
0.000998037
0.000998036
0.000998031
0.000998025
0.000998023
0.000998023
0.000998023
0.000998021
0.000998013
0.000998007
0.000998003
0.000998002
0.000998002
0.000998002
0.000998002
0.000998003
0.000998003
0.000998003
0.000998003
0.000998004
0.000998003
0.000998003
0.000998003
0.000998003
0.000998003
0.000998003
0.000998003
0.000998003
0.000998003
0.000998003
0.000998003
0.000998004
0.000998004
0.000998004
0.000998005
0.000998005
0.000998006
)
;
    }
    sides1_half0
    {
        type            empty;
    }
    sides1_half1
    {
        type            empty;
    }
    sides2_half0
    {
        type            empty;
    }
    sides2_half1
    {
        type            empty;
    }
    inout1_half0
    {
        type            cyclic;
    }
    inout1_half1
    {
        type            cyclic;
    }
    inout2_half0
    {
        type            cyclic;
    }
    inout2_half1
    {
        type            cyclic;
    }
}


// ************************************************************************* //
