/*--------------------------------*- C++ -*----------------------------------*\
  =========                 |
  \\      /  F ield         | OpenFOAM: The Open Source CFD Toolbox
   \\    /   O peration     | Website:  https://openfoam.org
    \\  /    A nd           | Version:  dev
     \\/     M anipulation  |

   OpenFOAM for Windows 20.09 (v1)
   Built by CFD Support, www.cfdsupport.com (based on Symscape).
\*---------------------------------------------------------------------------*/
FoamFile
{
    version     2.0;
    format      ascii;
    class       volScalarField;
    location    "10";
    object      k;
}
// * * * * * * * * * * * * * * * * * * * * * * * * * * * * * * * * * * * * * //

dimensions      [0 2 -2 0 0 0 0];

internalField   nonuniform List<scalar> 
1600
(
0.00119256
0.00119257
0.00119258
0.00119258
0.00119258
0.00119258
0.00119257
0.00119256
0.00119256
0.00119256
0.00119256
0.00119256
0.00119256
0.00119255
0.00119254
0.00119254
0.00119254
0.00119254
0.00119254
0.00119254
0.00119254
0.00119254
0.00119254
0.00119254
0.00119255
0.00119255
0.00119255
0.00119255
0.00119255
0.00119255
0.00119255
0.00119255
0.00119255
0.00119255
0.00119255
0.00119255
0.00119255
0.00119255
0.00119255
0.00119255
0.00212578
0.00212582
0.00212583
0.00212584
0.00212584
0.00212583
0.0021258
0.00212578
0.00212577
0.00212577
0.00212577
0.00212578
0.00212577
0.00212575
0.00212574
0.00212573
0.00212573
0.00212574
0.00212574
0.00212574
0.00212574
0.00212574
0.00212574
0.00212574
0.00212574
0.00212574
0.00212574
0.00212574
0.00212574
0.00212575
0.00212575
0.00212575
0.00212575
0.00212575
0.00212575
0.00212575
0.00212575
0.00212575
0.00212575
0.00212576
0.00270005
0.00270009
0.00270011
0.00270011
0.00270011
0.00270009
0.00270005
0.00270002
0.00270001
0.00270001
0.00270002
0.00270002
0.00270001
0.00269998
0.00269997
0.00269996
0.00269996
0.00269996
0.00269997
0.00269997
0.00269997
0.00269997
0.00269997
0.00269997
0.00269998
0.00269998
0.00269998
0.00269998
0.00269998
0.00269998
0.00269998
0.00269998
0.00269998
0.00269998
0.00269999
0.00269999
0.00269999
0.00269999
0.00269999
0.0027
0.00312854
0.00312859
0.00312861
0.00312861
0.0031286
0.00312856
0.00312851
0.00312847
0.00312846
0.00312847
0.00312847
0.00312847
0.00312846
0.00312843
0.00312841
0.00312841
0.00312841
0.00312841
0.00312841
0.00312841
0.00312842
0.00312842
0.00312842
0.00312842
0.00312843
0.00312843
0.00312843
0.00312843
0.00312843
0.00312843
0.00312843
0.00312843
0.00312843
0.00312843
0.00312844
0.00312844
0.00312844
0.00312845
0.00312845
0.00312846
0.0034779
0.00347795
0.00347797
0.00347797
0.00347795
0.0034779
0.00347783
0.00347779
0.00347778
0.00347779
0.00347779
0.0034778
0.00347779
0.00347775
0.00347773
0.00347773
0.00347773
0.00347773
0.00347773
0.00347773
0.00347773
0.00347773
0.00347774
0.00347774
0.00347775
0.00347774
0.00347775
0.00347775
0.00347775
0.00347775
0.00347775
0.00347775
0.00347775
0.00347775
0.00347776
0.00347776
0.00347777
0.00347777
0.00347777
0.00347779
0.00377108
0.00377114
0.00377115
0.00377115
0.00377113
0.00377106
0.00377099
0.00377094
0.00377094
0.00377094
0.00377095
0.00377095
0.00377094
0.00377089
0.00377087
0.00377087
0.00377087
0.00377088
0.00377087
0.00377087
0.00377088
0.00377088
0.00377089
0.00377089
0.00377089
0.00377089
0.0037709
0.0037709
0.00377089
0.0037709
0.00377089
0.00377089
0.00377089
0.0037709
0.00377091
0.00377091
0.00377092
0.00377092
0.00377092
0.00377095
0.00401843
0.00401849
0.00401851
0.0040185
0.00401848
0.0040184
0.00401832
0.00401827
0.00401827
0.00401827
0.00401828
0.00401828
0.00401826
0.00401822
0.00401819
0.0040182
0.0040182
0.0040182
0.0040182
0.0040182
0.0040182
0.00401821
0.00401821
0.00401822
0.00401822
0.00401822
0.00401822
0.00401822
0.00401822
0.00401822
0.00401822
0.00401822
0.00401822
0.00401823
0.00401823
0.00401824
0.00401824
0.00401824
0.00401825
0.00401828
0.00422577
0.00422584
0.00422585
0.00422585
0.00422581
0.00422573
0.00422566
0.00422561
0.0042256
0.0042256
0.00422561
0.00422561
0.00422559
0.00422554
0.00422552
0.00422552
0.00422552
0.00422553
0.00422552
0.00422552
0.00422553
0.00422554
0.00422554
0.00422554
0.00422554
0.00422555
0.00422555
0.00422555
0.00422555
0.00422555
0.00422554
0.00422555
0.00422555
0.00422556
0.00422556
0.00422557
0.00422557
0.00422557
0.00422558
0.00422561
0.0043972
0.00439727
0.00439728
0.00439728
0.00439724
0.00439716
0.00439708
0.00439704
0.00439703
0.00439703
0.00439704
0.00439704
0.00439701
0.00439697
0.00439695
0.00439695
0.00439695
0.00439695
0.00439695
0.00439695
0.00439695
0.00439696
0.00439696
0.00439696
0.00439697
0.00439697
0.00439697
0.00439697
0.00439697
0.00439697
0.00439697
0.00439697
0.00439698
0.00439698
0.00439699
0.00439699
0.00439699
0.00439699
0.004397
0.00439704
0.00453624
0.0045363
0.00453631
0.00453631
0.00453628
0.0045362
0.00453613
0.00453608
0.00453607
0.00453607
0.00453608
0.00453608
0.00453605
0.00453601
0.00453599
0.00453599
0.00453599
0.00453599
0.00453599
0.00453599
0.004536
0.004536
0.004536
0.00453601
0.00453601
0.00453601
0.00453602
0.00453601
0.00453601
0.00453601
0.00453601
0.00453602
0.00453602
0.00453602
0.00453603
0.00453603
0.00453603
0.00453603
0.00453604
0.00453608
0.00464634
0.0046464
0.00464641
0.00464641
0.00464637
0.00464631
0.00464624
0.0046462
0.00464619
0.00464619
0.00464619
0.00464619
0.00464616
0.00464612
0.00464611
0.0046461
0.00464611
0.00464611
0.00464611
0.00464611
0.00464611
0.00464611
0.00464612
0.00464612
0.00464612
0.00464613
0.00464613
0.00464613
0.00464612
0.00464612
0.00464613
0.00464613
0.00464614
0.00464614
0.00464614
0.00464614
0.00464615
0.00464615
0.00464616
0.0046462
0.0047311
0.00473114
0.00473116
0.00473115
0.00473113
0.00473107
0.00473101
0.00473097
0.00473096
0.00473096
0.00473096
0.00473096
0.00473093
0.0047309
0.00473088
0.00473088
0.00473088
0.00473088
0.00473089
0.00473089
0.00473089
0.00473089
0.00473089
0.0047309
0.0047309
0.0047309
0.0047309
0.0047309
0.0047309
0.0047309
0.0047309
0.00473091
0.00473091
0.00473091
0.00473091
0.00473092
0.00473092
0.00473092
0.00473093
0.00473097
0.00479424
0.00479429
0.0047943
0.0047943
0.00479428
0.00479423
0.00479418
0.00479414
0.00479413
0.00479413
0.00479413
0.00479412
0.0047941
0.00479407
0.00479406
0.00479406
0.00479406
0.00479406
0.00479406
0.00479406
0.00479406
0.00479407
0.00479407
0.00479407
0.00479407
0.00479407
0.00479407
0.00479407
0.00479407
0.00479407
0.00479407
0.00479408
0.00479408
0.00479408
0.00479408
0.00479409
0.00479409
0.0047941
0.0047941
0.00479413
0.00483959
0.00483962
0.00483964
0.00483964
0.00483962
0.00483958
0.00483954
0.00483951
0.00483949
0.00483949
0.00483949
0.00483948
0.00483946
0.00483944
0.00483943
0.00483943
0.00483943
0.00483943
0.00483943
0.00483943
0.00483944
0.00483944
0.00483944
0.00483944
0.00483944
0.00483944
0.00483944
0.00483944
0.00483944
0.00483944
0.00483945
0.00483945
0.00483945
0.00483945
0.00483945
0.00483946
0.00483946
0.00483946
0.00483947
0.00483949
0.00487083
0.00487086
0.00487087
0.00487087
0.00487086
0.00487083
0.00487079
0.00487077
0.00487075
0.00487075
0.00487075
0.00487074
0.00487072
0.00487071
0.0048707
0.0048707
0.0048707
0.0048707
0.0048707
0.0048707
0.0048707
0.00487071
0.00487071
0.00487071
0.00487071
0.00487071
0.00487071
0.00487071
0.00487071
0.00487071
0.00487071
0.00487072
0.00487072
0.00487072
0.00487072
0.00487072
0.00487073
0.00487073
0.00487073
0.00487075
0.00489139
0.00489142
0.00489143
0.00489143
0.00489142
0.00489139
0.00489137
0.00489134
0.00489133
0.00489132
0.00489132
0.00489131
0.0048913
0.00489129
0.00489129
0.00489129
0.00489129
0.00489129
0.00489129
0.00489129
0.00489129
0.00489129
0.00489129
0.00489129
0.00489129
0.00489129
0.00489129
0.00489129
0.0048913
0.0048913
0.0048913
0.0048913
0.0048913
0.0048913
0.00489131
0.00489131
0.00489131
0.00489131
0.00489131
0.00489133
0.00490425
0.00490427
0.00490428
0.00490428
0.00490427
0.00490425
0.00490423
0.00490421
0.0049042
0.00490419
0.00490419
0.00490418
0.00490418
0.00490417
0.00490417
0.00490417
0.00490417
0.00490417
0.00490417
0.00490417
0.00490417
0.00490417
0.00490417
0.00490417
0.00490417
0.00490417
0.00490417
0.00490417
0.00490417
0.00490418
0.00490418
0.00490418
0.00490418
0.00490418
0.00490418
0.00490418
0.00490418
0.00490418
0.00490418
0.0049042
0.00491182
0.00491184
0.00491185
0.00491185
0.00491184
0.00491182
0.0049118
0.00491179
0.00491178
0.00491177
0.00491177
0.00491176
0.00491176
0.00491175
0.00491175
0.00491175
0.00491175
0.00491175
0.00491175
0.00491176
0.00491176
0.00491176
0.00491176
0.00491176
0.00491176
0.00491176
0.00491176
0.00491176
0.00491176
0.00491176
0.00491176
0.00491176
0.00491176
0.00491176
0.00491177
0.00491177
0.00491177
0.00491177
0.00491177
0.00491178
0.00491591
0.00491592
0.00491593
0.00491593
0.00491592
0.0049159
0.00491588
0.00491587
0.00491586
0.00491586
0.00491586
0.00491585
0.00491585
0.00491585
0.00491585
0.00491585
0.00491585
0.00491585
0.00491585
0.00491585
0.00491585
0.00491585
0.00491585
0.00491585
0.00491585
0.00491585
0.00491585
0.00491585
0.00491585
0.00491585
0.00491586
0.00491586
0.00491586
0.00491586
0.00491586
0.00491586
0.00491586
0.00491586
0.00491586
0.00491587
0.00491768
0.0049177
0.0049177
0.0049177
0.00491769
0.00491767
0.00491766
0.00491765
0.00491764
0.00491763
0.00491763
0.00491763
0.00491763
0.00491763
0.00491763
0.00491763
0.00491763
0.00491763
0.00491763
0.00491763
0.00491763
0.00491763
0.00491763
0.00491763
0.00491763
0.00491763
0.00491763
0.00491763
0.00491763
0.00491763
0.00491763
0.00491763
0.00491763
0.00491763
0.00491764
0.00491764
0.00491764
0.00491764
0.00491764
0.00491765
0.00491768
0.0049177
0.0049177
0.0049177
0.00491769
0.00491767
0.00491765
0.00491764
0.00491764
0.00491763
0.00491763
0.00491762
0.00491763
0.00491763
0.00491763
0.00491763
0.00491763
0.00491763
0.00491763
0.00491763
0.00491763
0.00491763
0.00491763
0.00491763
0.00491763
0.00491763
0.00491763
0.00491763
0.00491763
0.00491763
0.00491763
0.00491763
0.00491763
0.00491764
0.00491764
0.00491764
0.00491764
0.00491764
0.00491764
0.00491765
0.00491591
0.00491593
0.00491593
0.00491593
0.00491591
0.00491589
0.00491588
0.00491587
0.00491586
0.00491585
0.00491584
0.00491584
0.00491585
0.00491585
0.00491585
0.00491585
0.00491585
0.00491585
0.00491585
0.00491585
0.00491585
0.00491585
0.00491585
0.00491585
0.00491585
0.00491585
0.00491585
0.00491585
0.00491585
0.00491586
0.00491586
0.00491586
0.00491586
0.00491586
0.00491586
0.00491586
0.00491586
0.00491586
0.00491586
0.00491587
0.00491183
0.00491185
0.00491185
0.00491185
0.00491183
0.00491181
0.00491179
0.00491178
0.00491176
0.00491175
0.00491175
0.00491175
0.00491175
0.00491175
0.00491175
0.00491175
0.00491175
0.00491175
0.00491175
0.00491175
0.00491175
0.00491175
0.00491176
0.00491176
0.00491176
0.00491176
0.00491176
0.00491176
0.00491176
0.00491176
0.00491177
0.00491177
0.00491177
0.00491177
0.00491177
0.00491177
0.00491177
0.00491177
0.00491177
0.00491178
0.00490426
0.00490428
0.00490429
0.00490428
0.00490427
0.00490424
0.00490422
0.0049042
0.00490418
0.00490417
0.00490416
0.00490416
0.00490416
0.00490417
0.00490417
0.00490417
0.00490417
0.00490417
0.00490417
0.00490417
0.00490417
0.00490417
0.00490417
0.00490417
0.00490417
0.00490418
0.00490418
0.00490418
0.00490418
0.00490418
0.00490419
0.00490419
0.00490419
0.00490419
0.00490419
0.00490419
0.00490419
0.00490419
0.00490419
0.00490421
0.00489141
0.00489143
0.00489143
0.00489143
0.00489142
0.00489139
0.00489136
0.00489133
0.00489131
0.0048913
0.00489129
0.00489129
0.00489129
0.00489129
0.00489129
0.00489129
0.00489129
0.00489129
0.00489129
0.00489129
0.00489129
0.0048913
0.0048913
0.0048913
0.0048913
0.0048913
0.0048913
0.00489131
0.00489131
0.00489131
0.00489132
0.00489132
0.00489132
0.00489132
0.00489133
0.00489132
0.00489132
0.00489132
0.00489133
0.00489134
0.00487085
0.00487088
0.00487088
0.00487088
0.00487086
0.00487083
0.00487079
0.00487076
0.00487073
0.00487071
0.0048707
0.0048707
0.0048707
0.00487071
0.00487071
0.00487071
0.00487071
0.00487071
0.00487071
0.00487071
0.00487071
0.00487071
0.00487072
0.00487072
0.00487072
0.00487072
0.00487073
0.00487073
0.00487073
0.00487073
0.00487074
0.00487074
0.00487074
0.00487075
0.00487075
0.00487075
0.00487075
0.00487075
0.00487075
0.00487077
0.00483961
0.00483964
0.00483965
0.00483964
0.00483963
0.00483959
0.00483954
0.0048395
0.00483947
0.00483945
0.00483944
0.00483943
0.00483944
0.00483944
0.00483944
0.00483944
0.00483944
0.00483944
0.00483944
0.00483945
0.00483945
0.00483945
0.00483945
0.00483946
0.00483946
0.00483946
0.00483946
0.00483947
0.00483947
0.00483947
0.00483948
0.00483948
0.00483948
0.00483949
0.00483949
0.00483949
0.00483949
0.00483949
0.00483949
0.00483952
0.00479426
0.0047943
0.00479431
0.0047943
0.00479428
0.00479424
0.00479418
0.00479413
0.0047941
0.00479408
0.00479406
0.00479406
0.00479407
0.00479407
0.00479407
0.00479407
0.00479407
0.00479407
0.00479408
0.00479408
0.00479408
0.00479408
0.00479409
0.00479409
0.0047941
0.00479409
0.0047941
0.0047941
0.0047941
0.00479411
0.00479411
0.00479411
0.00479412
0.00479412
0.00479412
0.00479413
0.00479413
0.00479413
0.00479413
0.00479415
0.00473111
0.00473115
0.00473116
0.00473115
0.00473113
0.00473108
0.00473102
0.00473096
0.00473092
0.0047309
0.00473089
0.00473089
0.00473089
0.00473089
0.0047309
0.0047309
0.0047309
0.0047309
0.0047309
0.00473091
0.00473091
0.00473091
0.00473092
0.00473092
0.00473092
0.00473092
0.00473093
0.00473093
0.00473093
0.00473093
0.00473093
0.00473094
0.00473094
0.00473095
0.00473095
0.00473095
0.00473095
0.00473095
0.00473095
0.00473098
0.00464634
0.00464639
0.0046464
0.00464639
0.00464637
0.00464631
0.00464624
0.00464618
0.00464614
0.00464612
0.00464611
0.00464611
0.00464612
0.00464612
0.00464612
0.00464612
0.00464612
0.00464613
0.00464613
0.00464613
0.00464613
0.00464614
0.00464614
0.00464614
0.00464614
0.00464615
0.00464615
0.00464615
0.00464615
0.00464615
0.00464615
0.00464616
0.00464616
0.00464616
0.00464617
0.00464617
0.00464617
0.00464616
0.00464617
0.00464621
0.00453622
0.00453627
0.00453628
0.00453628
0.00453625
0.00453619
0.00453612
0.00453605
0.00453602
0.004536
0.00453599
0.004536
0.004536
0.004536
0.004536
0.004536
0.004536
0.00453601
0.00453601
0.00453601
0.00453602
0.00453602
0.00453602
0.00453602
0.00453602
0.00453602
0.00453602
0.00453602
0.00453602
0.00453602
0.00453602
0.00453603
0.00453603
0.00453603
0.00453604
0.00453604
0.00453604
0.00453604
0.00453605
0.00453608
0.00439717
0.00439722
0.00439722
0.00439722
0.0043972
0.00439714
0.00439706
0.004397
0.00439696
0.00439695
0.00439695
0.00439695
0.00439695
0.00439695
0.00439695
0.00439695
0.00439695
0.00439695
0.00439695
0.00439696
0.00439696
0.00439696
0.00439696
0.00439696
0.00439696
0.00439696
0.00439696
0.00439696
0.00439696
0.00439696
0.00439696
0.00439697
0.00439697
0.00439698
0.00439698
0.00439698
0.00439698
0.00439698
0.00439699
0.00439702
0.00422571
0.00422576
0.00422577
0.00422577
0.00422575
0.00422569
0.00422561
0.00422555
0.00422553
0.00422552
0.00422553
0.00422553
0.00422551
0.00422551
0.00422551
0.00422551
0.00422551
0.00422551
0.00422551
0.00422552
0.00422552
0.00422552
0.00422552
0.00422552
0.00422552
0.00422552
0.00422552
0.00422552
0.00422552
0.00422552
0.00422552
0.00422552
0.00422553
0.00422553
0.00422554
0.00422554
0.00422554
0.00422553
0.00422554
0.00422557
0.00401835
0.0040184
0.00401841
0.00401841
0.00401839
0.00401834
0.00401826
0.00401821
0.00401819
0.00401819
0.00401819
0.00401819
0.00401817
0.00401816
0.00401816
0.00401817
0.00401816
0.00401817
0.00401817
0.00401817
0.00401817
0.00401817
0.00401817
0.00401818
0.00401817
0.00401817
0.00401818
0.00401818
0.00401817
0.00401817
0.00401818
0.00401818
0.00401818
0.00401819
0.00401819
0.0040182
0.00401819
0.00401818
0.00401819
0.00401822
0.00377098
0.00377102
0.00377104
0.00377104
0.00377103
0.00377098
0.00377092
0.00377087
0.00377086
0.00377086
0.00377086
0.00377086
0.00377083
0.00377082
0.00377082
0.00377082
0.00377083
0.00377083
0.00377083
0.00377083
0.00377083
0.00377083
0.00377084
0.00377083
0.00377083
0.00377084
0.00377084
0.00377084
0.00377084
0.00377083
0.00377084
0.00377084
0.00377084
0.00377084
0.00377085
0.00377085
0.00377085
0.00377084
0.00377085
0.00377087
0.00347779
0.00347783
0.00347785
0.00347785
0.00347785
0.00347781
0.00347775
0.00347772
0.00347771
0.00347771
0.00347772
0.0034777
0.00347768
0.00347767
0.00347767
0.00347767
0.00347767
0.00347767
0.00347767
0.00347768
0.00347768
0.00347768
0.00347768
0.00347768
0.00347768
0.00347768
0.00347768
0.00347768
0.00347768
0.00347768
0.00347768
0.00347768
0.00347768
0.00347769
0.00347769
0.00347769
0.00347769
0.00347768
0.00347769
0.0034777
0.00312843
0.00312847
0.0031285
0.0031285
0.0031285
0.00312847
0.00312843
0.0031284
0.0031284
0.0031284
0.0031284
0.00312839
0.00312837
0.00312836
0.00312835
0.00312835
0.00312836
0.00312836
0.00312836
0.00312836
0.00312836
0.00312836
0.00312836
0.00312836
0.00312836
0.00312836
0.00312836
0.00312836
0.00312836
0.00312836
0.00312836
0.00312836
0.00312837
0.00312837
0.00312837
0.00312837
0.00312837
0.00312837
0.00312837
0.00312838
0.00269996
0.00269999
0.00270002
0.00270003
0.00270002
0.00270001
0.00269998
0.00269996
0.00269995
0.00269996
0.00269995
0.00269994
0.00269993
0.00269992
0.00269991
0.00269991
0.00269992
0.00269992
0.00269992
0.00269992
0.00269992
0.00269992
0.00269992
0.00269992
0.00269992
0.00269992
0.00269992
0.00269992
0.00269992
0.00269992
0.00269992
0.00269992
0.00269992
0.00269992
0.00269992
0.00269992
0.00269992
0.00269992
0.00269992
0.00269993
0.00212572
0.00212574
0.00212576
0.00212577
0.00212577
0.00212576
0.00212574
0.00212573
0.00212573
0.00212573
0.00212573
0.00212572
0.00212571
0.0021257
0.0021257
0.0021257
0.0021257
0.0021257
0.0021257
0.0021257
0.0021257
0.0021257
0.0021257
0.0021257
0.0021257
0.0021257
0.0021257
0.0021257
0.0021257
0.0021257
0.0021257
0.0021257
0.0021257
0.0021257
0.0021257
0.0021257
0.0021257
0.0021257
0.0021257
0.0021257
0.00119253
0.00119254
0.00119255
0.00119256
0.00119256
0.00119255
0.00119255
0.00119254
0.00119254
0.00119254
0.00119254
0.00119254
0.00119253
0.00119253
0.00119253
0.00119253
0.00119253
0.00119253
0.00119253
0.00119253
0.00119253
0.00119253
0.00119253
0.00119253
0.00119253
0.00119253
0.00119253
0.00119253
0.00119253
0.00119253
0.00119253
0.00119253
0.00119253
0.00119253
0.00119253
0.00119253
0.00119253
0.00119253
0.00119253
0.00119253
)
;

boundaryField
{
    bottomWall
    {
        type            kqRWallFunction;
        value           nonuniform List<scalar> 
40
(
0.00119256
0.00119257
0.00119258
0.00119258
0.00119258
0.00119258
0.00119257
0.00119256
0.00119256
0.00119256
0.00119256
0.00119256
0.00119256
0.00119255
0.00119254
0.00119254
0.00119254
0.00119254
0.00119254
0.00119254
0.00119254
0.00119254
0.00119254
0.00119254
0.00119255
0.00119255
0.00119255
0.00119255
0.00119255
0.00119255
0.00119255
0.00119255
0.00119255
0.00119255
0.00119255
0.00119255
0.00119255
0.00119255
0.00119255
0.00119255
)
;
    }
    topWall
    {
        type            kqRWallFunction;
        value           nonuniform List<scalar> 
40
(
0.00119253
0.00119254
0.00119255
0.00119256
0.00119256
0.00119255
0.00119255
0.00119254
0.00119254
0.00119254
0.00119254
0.00119254
0.00119253
0.00119253
0.00119253
0.00119253
0.00119253
0.00119253
0.00119253
0.00119253
0.00119253
0.00119253
0.00119253
0.00119253
0.00119253
0.00119253
0.00119253
0.00119253
0.00119253
0.00119253
0.00119253
0.00119253
0.00119253
0.00119253
0.00119253
0.00119253
0.00119253
0.00119253
0.00119253
0.00119253
)
;
    }
    sides1_half0
    {
        type            empty;
    }
    sides1_half1
    {
        type            empty;
    }
    sides2_half0
    {
        type            empty;
    }
    sides2_half1
    {
        type            empty;
    }
    inout1_half0
    {
        type            cyclic;
    }
    inout1_half1
    {
        type            cyclic;
    }
    inout2_half0
    {
        type            cyclic;
    }
    inout2_half1
    {
        type            cyclic;
    }
}


// ************************************************************************* //
