/*--------------------------------*- C++ -*----------------------------------*\
  =========                 |
  \\      /  F ield         | OpenFOAM: The Open Source CFD Toolbox
   \\    /   O peration     | Website:  https://openfoam.org
    \\  /    A nd           | Version:  dev
     \\/     M anipulation  |

   OpenFOAM for Windows 20.09 (v1)
   Built by CFD Support, www.cfdsupport.com (based on Symscape).
\*---------------------------------------------------------------------------*/
FoamFile
{
    version     2.0;
    format      ascii;
    class       volScalarField;
    location    "10";
    object      nut;
}
// * * * * * * * * * * * * * * * * * * * * * * * * * * * * * * * * * * * * * //

dimensions      [0 2 -1 0 0 0 0];

internalField   nonuniform List<scalar> 
1600
(
0.000128249
0.00012825
0.000128251
0.000128251
0.000128251
0.000128251
0.00012825
0.000128249
0.000128249
0.000128249
0.000128249
0.000128249
0.000128249
0.000128249
0.000128248
0.000128248
0.000128248
0.000128248
0.000128248
0.000128248
0.000128248
0.000128248
0.000128248
0.000128248
0.000128248
0.000128248
0.000128248
0.000128248
0.000128248
0.000128248
0.000128248
0.000128248
0.000128248
0.000128248
0.000128249
0.000128249
0.000128249
0.000128249
0.000128249
0.000128249
0.000847479
0.000847497
0.000847503
0.000847501
0.000847499
0.000847493
0.000847475
0.000847464
0.000847462
0.000847463
0.000847465
0.000847468
0.000847468
0.00084746
0.000847455
0.000847454
0.000847455
0.000847455
0.000847455
0.000847455
0.000847456
0.000847456
0.000847457
0.000847458
0.000847458
0.000847458
0.000847459
0.000847459
0.000847459
0.00084746
0.000847459
0.00084746
0.00084746
0.00084746
0.000847461
0.000847462
0.000847463
0.000847463
0.000847464
0.000847466
0.00159318
0.00159322
0.00159322
0.00159322
0.00159321
0.00159319
0.00159315
0.00159312
0.00159312
0.00159312
0.00159313
0.00159314
0.00159314
0.00159312
0.00159311
0.00159311
0.00159311
0.00159311
0.00159311
0.00159311
0.00159311
0.00159311
0.00159312
0.00159312
0.00159312
0.00159312
0.00159312
0.00159312
0.00159312
0.00159312
0.00159312
0.00159312
0.00159312
0.00159312
0.00159312
0.00159313
0.00159313
0.00159313
0.00159313
0.00159314
0.00218607
0.00218612
0.00218612
0.00218611
0.0021861
0.00218605
0.00218598
0.00218595
0.00218594
0.00218595
0.00218597
0.00218598
0.00218598
0.00218595
0.00218594
0.00218594
0.00218594
0.00218594
0.00218594
0.00218594
0.00218594
0.00218594
0.00218595
0.00218595
0.00218595
0.00218595
0.00218595
0.00218595
0.00218595
0.00218595
0.00218595
0.00218595
0.00218595
0.00218595
0.00218596
0.00218596
0.00218596
0.00218597
0.00218597
0.00218598
0.00265493
0.00265498
0.00265498
0.00265497
0.00265495
0.00265487
0.00265478
0.00265474
0.00265474
0.00265476
0.00265477
0.0026548
0.0026548
0.00265476
0.00265474
0.00265474
0.00265474
0.00265474
0.00265474
0.00265474
0.00265474
0.00265474
0.00265475
0.00265476
0.00265476
0.00265476
0.00265476
0.00265476
0.00265476
0.00265476
0.00265475
0.00265475
0.00265475
0.00265475
0.00265476
0.00265477
0.00265477
0.00265478
0.00265478
0.0026548
0.00303022
0.00303028
0.00303027
0.00303026
0.00303022
0.00303012
0.00303002
0.00302997
0.00302997
0.00303
0.00303002
0.00303005
0.00303005
0.00303
0.00302997
0.00302998
0.00302998
0.00302998
0.00302998
0.00302998
0.00302998
0.00302998
0.00302999
0.00303
0.00303
0.00303
0.00303
0.00303
0.00303
0.00303
0.00302999
0.00302999
0.00302999
0.00302999
0.00303
0.00303001
0.00303002
0.00303002
0.00303003
0.00303006
0.00333316
0.00333322
0.00333321
0.00333319
0.00333315
0.00333303
0.00333292
0.00333287
0.00333288
0.0033329
0.00333293
0.00333296
0.00333295
0.0033329
0.00333287
0.00333287
0.00333287
0.00333288
0.00333287
0.00333287
0.00333288
0.00333288
0.00333289
0.0033329
0.0033329
0.00333289
0.0033329
0.0033329
0.0033329
0.00333289
0.00333288
0.00333288
0.00333289
0.0033329
0.00333291
0.00333292
0.00333292
0.00333292
0.00333292
0.00333297
0.00357824
0.0035783
0.00357829
0.00357827
0.00357822
0.00357809
0.00357798
0.00357793
0.00357794
0.00357796
0.00357799
0.00357802
0.00357801
0.00357795
0.00357792
0.00357793
0.00357792
0.00357793
0.00357793
0.00357792
0.00357793
0.00357794
0.00357795
0.00357795
0.00357795
0.00357795
0.00357796
0.00357795
0.00357795
0.00357794
0.00357794
0.00357794
0.00357794
0.00357795
0.00357796
0.00357797
0.00357797
0.00357797
0.00357798
0.00357803
0.00377573
0.00377579
0.00377578
0.00377576
0.0037757
0.00377557
0.00377546
0.00377541
0.00377541
0.00377544
0.00377547
0.0037755
0.00377548
0.00377542
0.0037754
0.0037754
0.0037754
0.0037754
0.0037754
0.0037754
0.00377541
0.00377541
0.00377541
0.00377542
0.00377542
0.00377543
0.00377543
0.00377543
0.00377542
0.00377542
0.00377541
0.00377542
0.00377542
0.00377543
0.00377544
0.00377545
0.00377544
0.00377545
0.00377546
0.00377551
0.0039333
0.00393335
0.00393334
0.00393332
0.00393326
0.00393314
0.00393304
0.00393299
0.00393299
0.00393301
0.00393304
0.00393306
0.00393304
0.00393298
0.00393296
0.00393296
0.00393297
0.00393296
0.00393296
0.00393297
0.00393297
0.00393297
0.00393297
0.00393298
0.00393299
0.00393299
0.003933
0.00393299
0.00393299
0.00393298
0.00393298
0.00393299
0.00393299
0.003933
0.00393301
0.003933
0.00393301
0.00393301
0.00393303
0.00393309
0.00405706
0.00405711
0.0040571
0.00405708
0.00405703
0.00405692
0.00405683
0.00405677
0.00405677
0.00405679
0.00405681
0.00405683
0.0040568
0.00405676
0.00405674
0.00405673
0.00405674
0.00405674
0.00405674
0.00405674
0.00405674
0.00405675
0.00405675
0.00405676
0.00405676
0.00405677
0.00405677
0.00405676
0.00405676
0.00405676
0.00405676
0.00405677
0.00405677
0.00405677
0.00405678
0.00405678
0.00405678
0.00405679
0.0040568
0.00405686
0.00415223
0.00415227
0.00415227
0.00415225
0.00415221
0.00415211
0.00415203
0.00415198
0.00415197
0.00415199
0.004152
0.00415202
0.00415199
0.00415195
0.00415193
0.00415193
0.00415194
0.00415194
0.00415194
0.00415194
0.00415194
0.00415195
0.00415195
0.00415195
0.00415196
0.00415196
0.00415196
0.00415196
0.00415195
0.00415196
0.00415196
0.00415197
0.00415197
0.00415197
0.00415197
0.00415198
0.00415198
0.00415199
0.004152
0.00415205
0.00422349
0.00422353
0.00422353
0.00422352
0.00422348
0.0042234
0.00422333
0.00422328
0.00422327
0.00422328
0.00422329
0.0042233
0.00422327
0.00422324
0.00422323
0.00422323
0.00422323
0.00422323
0.00422324
0.00422324
0.00422324
0.00422324
0.00422324
0.00422325
0.00422325
0.00422325
0.00422325
0.00422325
0.00422325
0.00422325
0.00422325
0.00422326
0.00422326
0.00422326
0.00422326
0.00422327
0.00422327
0.00422328
0.00422329
0.00422333
0.00427516
0.00427519
0.00427519
0.00427519
0.00427516
0.00427509
0.00427504
0.00427499
0.00427498
0.00427498
0.00427499
0.00427499
0.00427497
0.00427494
0.00427493
0.00427494
0.00427494
0.00427494
0.00427494
0.00427494
0.00427495
0.00427495
0.00427495
0.00427495
0.00427495
0.00427495
0.00427495
0.00427495
0.00427495
0.00427496
0.00427496
0.00427496
0.00427496
0.00427497
0.00427497
0.00427497
0.00427498
0.00427498
0.00427499
0.00427502
0.00431124
0.00431127
0.00431127
0.00431127
0.00431125
0.0043112
0.00431115
0.00431111
0.00431109
0.00431109
0.00431109
0.00431109
0.00431107
0.00431106
0.00431105
0.00431106
0.00431106
0.00431106
0.00431106
0.00431106
0.00431106
0.00431107
0.00431107
0.00431107
0.00431107
0.00431107
0.00431107
0.00431107
0.00431107
0.00431107
0.00431108
0.00431108
0.00431108
0.00431108
0.00431109
0.00431109
0.00431109
0.00431109
0.0043111
0.00431113
0.00433537
0.0043354
0.0043354
0.0043354
0.00433539
0.00433534
0.0043353
0.00433527
0.00433525
0.00433525
0.00433525
0.00433524
0.00433523
0.00433522
0.00433522
0.00433522
0.00433522
0.00433523
0.00433523
0.00433523
0.00433523
0.00433523
0.00433523
0.00433523
0.00433523
0.00433523
0.00433523
0.00433523
0.00433524
0.00433524
0.00433524
0.00433524
0.00433525
0.00433525
0.00433525
0.00433525
0.00433525
0.00433525
0.00433526
0.00433528
0.00435074
0.00435076
0.00435076
0.00435076
0.00435075
0.00435071
0.00435067
0.00435065
0.00435064
0.00435063
0.00435063
0.00435062
0.00435062
0.00435061
0.00435061
0.00435062
0.00435062
0.00435062
0.00435062
0.00435062
0.00435062
0.00435062
0.00435062
0.00435062
0.00435062
0.00435062
0.00435062
0.00435063
0.00435063
0.00435063
0.00435063
0.00435063
0.00435063
0.00435064
0.00435064
0.00435064
0.00435064
0.00435064
0.00435064
0.00435066
0.00435995
0.00435997
0.00435997
0.00435997
0.00435995
0.00435992
0.00435989
0.00435987
0.00435986
0.00435986
0.00435985
0.00435985
0.00435985
0.00435984
0.00435985
0.00435985
0.00435985
0.00435985
0.00435985
0.00435985
0.00435985
0.00435985
0.00435985
0.00435985
0.00435985
0.00435985
0.00435986
0.00435986
0.00435986
0.00435986
0.00435986
0.00435986
0.00435986
0.00435987
0.00435987
0.00435987
0.00435987
0.00435987
0.00435987
0.00435989
0.00436501
0.00436502
0.00436503
0.00436502
0.004365
0.00436497
0.00436495
0.00436493
0.00436492
0.00436492
0.00436492
0.00436491
0.00436491
0.00436491
0.00436492
0.00436492
0.00436492
0.00436492
0.00436492
0.00436492
0.00436492
0.00436492
0.00436492
0.00436492
0.00436492
0.00436492
0.00436492
0.00436493
0.00436493
0.00436493
0.00436493
0.00436493
0.00436493
0.00436493
0.00436493
0.00436493
0.00436493
0.00436493
0.00436494
0.00436495
0.00436723
0.00436725
0.00436725
0.00436724
0.00436722
0.00436719
0.00436717
0.00436716
0.00436715
0.00436714
0.00436714
0.00436714
0.00436714
0.00436715
0.00436715
0.00436715
0.00436715
0.00436715
0.00436715
0.00436715
0.00436715
0.00436715
0.00436715
0.00436715
0.00436715
0.00436715
0.00436715
0.00436716
0.00436716
0.00436716
0.00436716
0.00436716
0.00436716
0.00436716
0.00436716
0.00436716
0.00436716
0.00436716
0.00436717
0.00436718
0.00436723
0.00436725
0.00436725
0.00436724
0.00436722
0.00436719
0.00436717
0.00436715
0.00436714
0.00436714
0.00436714
0.00436714
0.00436714
0.00436715
0.00436715
0.00436715
0.00436715
0.00436715
0.00436715
0.00436715
0.00436715
0.00436715
0.00436715
0.00436715
0.00436715
0.00436715
0.00436715
0.00436715
0.00436716
0.00436716
0.00436716
0.00436716
0.00436716
0.00436716
0.00436716
0.00436716
0.00436716
0.00436716
0.00436717
0.00436718
0.00436501
0.00436502
0.00436502
0.00436502
0.00436499
0.00436496
0.00436494
0.00436492
0.00436491
0.0043649
0.0043649
0.00436491
0.00436491
0.00436491
0.00436491
0.00436491
0.00436492
0.00436492
0.00436492
0.00436492
0.00436492
0.00436492
0.00436492
0.00436492
0.00436492
0.00436492
0.00436492
0.00436492
0.00436493
0.00436493
0.00436493
0.00436493
0.00436493
0.00436493
0.00436493
0.00436494
0.00436494
0.00436494
0.00436494
0.00436495
0.00435995
0.00435997
0.00435997
0.00435996
0.00435994
0.0043599
0.00435988
0.00435985
0.00435984
0.00435983
0.00435983
0.00435984
0.00435984
0.00435984
0.00435984
0.00435984
0.00435985
0.00435985
0.00435985
0.00435985
0.00435985
0.00435985
0.00435985
0.00435985
0.00435985
0.00435985
0.00435986
0.00435986
0.00435986
0.00435986
0.00435986
0.00435987
0.00435987
0.00435987
0.00435987
0.00435987
0.00435987
0.00435987
0.00435987
0.00435989
0.00435073
0.00435076
0.00435076
0.00435075
0.00435073
0.00435069
0.00435065
0.00435063
0.00435061
0.00435059
0.00435059
0.0043506
0.00435061
0.00435061
0.00435061
0.00435061
0.00435061
0.00435061
0.00435061
0.00435061
0.00435061
0.00435062
0.00435062
0.00435062
0.00435062
0.00435063
0.00435063
0.00435063
0.00435063
0.00435064
0.00435064
0.00435064
0.00435064
0.00435065
0.00435065
0.00435065
0.00435064
0.00435064
0.00435065
0.00435066
0.00433537
0.0043354
0.0043354
0.00433539
0.00433537
0.00433532
0.00433528
0.00433524
0.00433522
0.0043352
0.0043352
0.00433521
0.00433522
0.00433522
0.00433522
0.00433522
0.00433522
0.00433522
0.00433522
0.00433523
0.00433523
0.00433523
0.00433523
0.00433524
0.00433524
0.00433524
0.00433524
0.00433525
0.00433525
0.00433525
0.00433526
0.00433526
0.00433526
0.00433527
0.00433527
0.00433527
0.00433526
0.00433527
0.00433527
0.00433529
0.00431124
0.00431127
0.00431127
0.00431126
0.00431123
0.00431118
0.00431112
0.00431108
0.00431105
0.00431103
0.00431103
0.00431104
0.00431105
0.00431106
0.00431106
0.00431106
0.00431106
0.00431106
0.00431106
0.00431106
0.00431107
0.00431107
0.00431107
0.00431108
0.00431108
0.00431108
0.00431108
0.00431109
0.00431109
0.0043111
0.0043111
0.0043111
0.00431111
0.00431111
0.00431111
0.00431112
0.00431111
0.00431111
0.00431111
0.00431114
0.00427516
0.00427519
0.00427519
0.00427518
0.00427515
0.00427508
0.00427502
0.00427496
0.00427493
0.00427491
0.00427491
0.00427492
0.00427493
0.00427494
0.00427494
0.00427494
0.00427494
0.00427494
0.00427495
0.00427495
0.00427495
0.00427496
0.00427496
0.00427497
0.00427497
0.00427497
0.00427497
0.00427498
0.00427498
0.00427498
0.00427499
0.00427499
0.004275
0.004275
0.004275
0.00427501
0.00427501
0.004275
0.00427501
0.00427504
0.00422348
0.00422352
0.00422352
0.00422351
0.00422347
0.0042234
0.00422332
0.00422325
0.00422321
0.00422319
0.00422319
0.00422321
0.00422323
0.00422324
0.00422324
0.00422324
0.00422324
0.00422324
0.00422325
0.00422325
0.00422325
0.00422326
0.00422327
0.00422327
0.00422327
0.00422327
0.00422327
0.00422328
0.00422328
0.00422328
0.00422329
0.00422329
0.0042233
0.0042233
0.00422331
0.00422331
0.00422331
0.0042233
0.00422331
0.00422334
0.00415221
0.00415225
0.00415225
0.00415224
0.0041522
0.00415211
0.00415202
0.00415195
0.00415191
0.00415189
0.00415189
0.00415191
0.00415194
0.00415194
0.00415194
0.00415195
0.00415195
0.00415195
0.00415195
0.00415196
0.00415196
0.00415197
0.00415198
0.00415198
0.00415198
0.00415198
0.00415198
0.00415199
0.00415199
0.00415199
0.00415199
0.004152
0.004152
0.00415201
0.00415201
0.00415201
0.00415201
0.004152
0.00415201
0.00415205
0.00405702
0.00405707
0.00405706
0.00405705
0.00405701
0.00405691
0.00405681
0.00405674
0.0040567
0.00405668
0.00405669
0.00405671
0.00405674
0.00405675
0.00405675
0.00405675
0.00405675
0.00405675
0.00405676
0.00405676
0.00405677
0.00405678
0.00405678
0.00405678
0.00405678
0.00405678
0.00405678
0.00405678
0.00405678
0.00405678
0.00405678
0.00405679
0.00405679
0.00405679
0.0040568
0.0040568
0.0040568
0.00405679
0.0040568
0.00405685
0.00393325
0.0039333
0.00393329
0.00393327
0.00393322
0.00393313
0.00393302
0.00393294
0.00393291
0.0039329
0.00393291
0.00393294
0.00393297
0.00393297
0.00393297
0.00393297
0.00393298
0.00393298
0.00393298
0.00393298
0.00393299
0.003933
0.00393299
0.00393299
0.00393299
0.00393299
0.003933
0.00393299
0.00393299
0.00393299
0.00393299
0.00393299
0.003933
0.003933
0.00393301
0.00393301
0.003933
0.003933
0.00393301
0.00393306
0.00377567
0.00377572
0.0037757
0.00377568
0.00377564
0.00377555
0.00377544
0.00377536
0.00377533
0.00377533
0.00377535
0.00377538
0.0037754
0.00377539
0.0037754
0.0037754
0.00377541
0.0037754
0.0037754
0.00377541
0.00377541
0.00377541
0.00377541
0.00377541
0.00377541
0.00377541
0.00377541
0.00377541
0.0037754
0.0037754
0.0037754
0.00377541
0.00377541
0.00377542
0.00377542
0.00377543
0.00377542
0.00377542
0.00377543
0.00377548
0.00357817
0.00357821
0.0035782
0.00357818
0.00357814
0.00357805
0.00357794
0.00357787
0.00357785
0.00357785
0.00357789
0.00357791
0.0035779
0.0035779
0.00357791
0.00357791
0.00357791
0.00357791
0.00357791
0.00357792
0.00357792
0.00357791
0.00357791
0.00357792
0.00357792
0.00357792
0.00357791
0.00357791
0.00357791
0.00357791
0.00357791
0.00357791
0.00357792
0.00357792
0.00357793
0.00357794
0.00357793
0.00357792
0.00357793
0.00357797
0.00333307
0.00333311
0.0033331
0.00333309
0.00333305
0.00333297
0.00333287
0.00333281
0.00333279
0.00333281
0.00333283
0.00333285
0.00333283
0.00333283
0.00333283
0.00333284
0.00333283
0.00333284
0.00333284
0.00333284
0.00333285
0.00333284
0.00333284
0.00333285
0.00333284
0.00333284
0.00333284
0.00333284
0.00333284
0.00333284
0.00333284
0.00333284
0.00333284
0.00333285
0.00333286
0.00333287
0.00333286
0.00333285
0.00333285
0.00333289
0.00303012
0.00303016
0.00303016
0.00303014
0.00303012
0.00303005
0.00302996
0.00302991
0.0030299
0.00302992
0.00302994
0.00302995
0.00302993
0.00302992
0.00302992
0.00302992
0.00302993
0.00302993
0.00302993
0.00302993
0.00302993
0.00302993
0.00302994
0.00302993
0.00302993
0.00302994
0.00302994
0.00302994
0.00302993
0.00302993
0.00302993
0.00302993
0.00302994
0.00302994
0.00302995
0.00302995
0.00302994
0.00302994
0.00302994
0.00302997
0.00265482
0.00265486
0.00265487
0.00265486
0.00265484
0.00265479
0.00265472
0.00265468
0.00265467
0.00265468
0.0026547
0.0026547
0.00265468
0.00265468
0.00265468
0.00265468
0.00265468
0.00265468
0.00265469
0.00265469
0.00265469
0.00265469
0.00265469
0.00265469
0.00265469
0.00265469
0.00265469
0.00265469
0.00265469
0.00265469
0.00265469
0.00265469
0.00265469
0.0026547
0.0026547
0.0026547
0.0026547
0.00265469
0.00265469
0.00265471
0.00218597
0.00218601
0.00218602
0.00218602
0.00218601
0.00218597
0.00218592
0.00218589
0.00218589
0.0021859
0.00218591
0.0021859
0.00218589
0.00218588
0.00218589
0.00218589
0.00218589
0.00218589
0.00218589
0.00218589
0.00218589
0.00218589
0.0021859
0.00218589
0.00218589
0.0021859
0.0021859
0.0021859
0.00218589
0.00218589
0.00218589
0.00218589
0.0021859
0.0021859
0.0021859
0.0021859
0.00218589
0.00218589
0.00218589
0.0021859
0.0015931
0.00159314
0.00159316
0.00159316
0.00159315
0.00159313
0.0015931
0.00159309
0.00159308
0.00159309
0.00159309
0.00159309
0.00159308
0.00159307
0.00159307
0.00159307
0.00159308
0.00159308
0.00159308
0.00159308
0.00159308
0.00159308
0.00159308
0.00159308
0.00159308
0.00159308
0.00159308
0.00159308
0.00159308
0.00159308
0.00159308
0.00159308
0.00159308
0.00159308
0.00159308
0.00159308
0.00159308
0.00159308
0.00159308
0.00159308
0.000847444
0.00084746
0.000847471
0.000847474
0.000847472
0.000847465
0.000847453
0.000847446
0.000847445
0.000847446
0.000847446
0.000847445
0.000847441
0.000847438
0.000847438
0.000847439
0.000847439
0.000847439
0.000847439
0.00084744
0.00084744
0.00084744
0.000847441
0.000847441
0.000847441
0.00084744
0.00084744
0.00084744
0.00084744
0.00084744
0.00084744
0.00084744
0.00084744
0.00084744
0.000847441
0.000847441
0.00084744
0.00084744
0.00084744
0.00084744
0.000128247
0.000128248
0.000128249
0.000128249
0.000128249
0.000128249
0.000128248
0.000128248
0.000128248
0.000128248
0.000128248
0.000128248
0.000128248
0.000128247
0.000128247
0.000128247
0.000128247
0.000128247
0.000128247
0.000128247
0.000128247
0.000128247
0.000128247
0.000128247
0.000128247
0.000128247
0.000128247
0.000128247
0.000128247
0.000128247
0.000128247
0.000128247
0.000128247
0.000128247
0.000128247
0.000128247
0.000128247
0.000128247
0.000128247
0.000128247
)
;

boundaryField
{
    bottomWall
    {
        type            nutkWallFunction;
        Cmu             0.09;
        kappa           0.41;
        E               9.8;
        value           nonuniform List<scalar> 
40
(
6.41475e-06
6.41487e-06
6.41496e-06
6.41498e-06
6.41498e-06
6.41496e-06
6.41487e-06
6.41479e-06
6.41478e-06
6.41478e-06
6.41479e-06
6.41479e-06
6.41476e-06
6.41468e-06
6.41464e-06
6.41463e-06
6.41463e-06
6.41463e-06
6.41463e-06
6.41463e-06
6.41464e-06
6.41464e-06
6.41464e-06
6.41465e-06
6.41465e-06
6.41465e-06
6.41466e-06
6.41466e-06
6.41466e-06
6.41467e-06
6.41467e-06
6.41467e-06
6.41468e-06
6.41468e-06
6.41468e-06
6.41469e-06
6.41469e-06
6.4147e-06
6.41469e-06
6.4147e-06
)
;
    }
    topWall
    {
        type            nutkWallFunction;
        Cmu             0.09;
        kappa           0.41;
        E               9.8;
        value           nonuniform List<scalar> 
40
(
6.41454e-06
6.41462e-06
6.41471e-06
6.41475e-06
6.41475e-06
6.41472e-06
6.41467e-06
6.41464e-06
6.41463e-06
6.41463e-06
6.41462e-06
6.41458e-06
6.41453e-06
6.4145e-06
6.41449e-06
6.41449e-06
6.41449e-06
6.41449e-06
6.41449e-06
6.4145e-06
6.4145e-06
6.4145e-06
6.4145e-06
6.4145e-06
6.4145e-06
6.4145e-06
6.4145e-06
6.4145e-06
6.4145e-06
6.4145e-06
6.4145e-06
6.4145e-06
6.4145e-06
6.4145e-06
6.4145e-06
6.4145e-06
6.41451e-06
6.41451e-06
6.41451e-06
6.41451e-06
)
;
    }
    sides1_half0
    {
        type            empty;
    }
    sides1_half1
    {
        type            empty;
    }
    sides2_half0
    {
        type            empty;
    }
    sides2_half1
    {
        type            empty;
    }
    inout1_half0
    {
        type            cyclic;
    }
    inout1_half1
    {
        type            cyclic;
    }
    inout2_half0
    {
        type            cyclic;
    }
    inout2_half1
    {
        type            cyclic;
    }
}


// ************************************************************************* //
