/*--------------------------------*- C++ -*----------------------------------*\
  =========                 |
  \\      /  F ield         | OpenFOAM: The Open Source CFD Toolbox
   \\    /   O peration     | Website:  https://openfoam.org
    \\  /    A nd           | Version:  dev
     \\/     M anipulation  |

   OpenFOAM for Windows 20.09 (v1)
   Built by CFD Support, www.cfdsupport.com (based on Symscape).
\*---------------------------------------------------------------------------*/
FoamFile
{
    version     2.0;
    format      ascii;
    class       volScalarField;
    location    "10";
    object      p;
}
// * * * * * * * * * * * * * * * * * * * * * * * * * * * * * * * * * * * * * //

dimensions      [0 2 -2 0 0 0 0];

internalField   nonuniform List<scalar> 
1600
(
-7.31868e-09
-7.84189e-09
-6.27462e-10
6.54458e-09
1.04244e-08
1.2069e-08
1.08605e-08
7.35945e-09
4.54467e-09
3.20228e-09
2.88486e-09
3.90245e-09
5.77442e-09
6.10745e-09
4.92567e-09
4.05429e-09
3.68217e-09
3.48388e-09
3.35826e-09
3.18794e-09
3.09949e-09
3.17571e-09
3.31402e-09
3.44411e-09
3.45409e-09
3.40591e-09
3.34484e-09
3.29685e-09
3.19901e-09
3.00662e-09
2.77327e-09
2.49202e-09
2.2057e-09
2.01235e-09
1.88756e-09
1.78815e-09
1.55568e-09
1.20271e-09
1.04621e-09
-1.569e-09
-6.10334e-09
-6.71554e-09
1.53574e-10
6.86153e-09
1.03099e-08
1.12493e-08
9.60453e-09
6.67734e-09
4.40256e-09
3.27153e-09
3.04067e-09
3.86553e-09
4.98384e-09
5.17512e-09
4.55192e-09
3.98651e-09
3.72205e-09
3.53638e-09
3.39154e-09
3.24287e-09
3.17704e-09
3.24545e-09
3.38975e-09
3.50001e-09
3.4896e-09
3.44534e-09
3.38746e-09
3.33136e-09
3.24403e-09
3.0618e-09
2.7982e-09
2.53482e-09
2.25169e-09
2.1015e-09
1.98025e-09
1.82218e-09
1.73129e-09
1.20619e-09
8.17281e-10
-1.08493e-09
-4.67124e-09
-6.15257e-09
4.7518e-10
6.89835e-09
9.73422e-09
9.9364e-09
8.23989e-09
6.06569e-09
4.33193e-09
3.38316e-09
3.18163e-09
3.75207e-09
4.52953e-09
4.71865e-09
4.34583e-09
3.98105e-09
3.77903e-09
3.578e-09
3.42368e-09
3.30837e-09
3.24897e-09
3.31989e-09
3.46273e-09
3.52968e-09
3.51439e-09
3.48593e-09
3.4299e-09
3.36915e-09
3.27598e-09
3.0684e-09
2.79406e-09
2.55877e-09
2.33202e-09
2.22096e-09
2.10343e-09
1.88878e-09
1.98247e-09
9.51718e-10
7.61851e-10
4.59459e-10
-3.52064e-09
-5.7936e-09
9.0837e-10
6.78258e-09
8.7781e-09
8.32305e-09
6.83469e-09
5.43613e-09
4.23172e-09
3.53402e-09
3.4132e-09
3.72741e-09
4.14267e-09
4.27028e-09
4.11033e-09
3.93159e-09
3.7854e-09
3.59844e-09
3.47065e-09
3.39127e-09
3.35532e-09
3.42869e-09
3.52135e-09
3.52335e-09
3.53155e-09
3.52087e-09
3.45946e-09
3.38797e-09
3.27081e-09
3.05219e-09
2.80078e-09
2.61925e-09
2.46328e-09
2.37272e-09
2.26716e-09
2.00517e-09
2.25891e-09
5.40086e-10
1.16003e-09
2.61291e-09
-2.79332e-09
-5.39516e-09
1.42221e-09
6.49998e-09
7.50579e-09
6.60607e-09
5.54054e-09
4.83194e-09
4.14835e-09
3.74203e-09
3.66622e-09
3.72667e-09
3.79146e-09
3.84208e-09
3.86723e-09
3.83768e-09
3.74505e-09
3.61914e-09
3.52644e-09
3.49096e-09
3.50067e-09
3.54967e-09
3.54604e-09
3.497e-09
3.54643e-09
3.50906e-09
3.45019e-09
3.38374e-09
3.22987e-09
3.04455e-09
2.84222e-09
2.72347e-09
2.62662e-09
2.54144e-09
2.45338e-09
2.1553e-09
2.51195e-09
1.6518e-10
2.04319e-09
4.80141e-09
-2.27367e-09
-4.8445e-09
1.89132e-09
6.02736e-09
6.09223e-09
4.99454e-09
4.43299e-09
4.2971e-09
4.10907e-09
3.96264e-09
3.85271e-09
3.69416e-09
3.48295e-09
3.47587e-09
3.64114e-09
3.72864e-09
3.69919e-09
3.64003e-09
3.59159e-09
3.60317e-09
3.63999e-09
3.6373e-09
3.53961e-09
3.49101e-09
3.51611e-09
3.4492e-09
3.43441e-09
3.35609e-09
3.18725e-09
3.05404e-09
2.92073e-09
2.86116e-09
2.80061e-09
2.73663e-09
2.62599e-09
2.30762e-09
2.70943e-09
-1.10703e-11
3.1759e-09
6.62014e-09
-1.78754e-09
-4.17361e-09
2.20682e-09
5.42041e-09
4.77349e-09
3.64253e-09
3.52151e-09
3.86269e-09
4.07851e-09
4.08206e-09
3.94101e-09
3.62647e-09
3.22858e-09
3.18463e-09
3.45242e-09
3.63333e-09
3.66493e-09
3.66155e-09
3.65635e-09
3.70029e-09
3.73381e-09
3.66406e-09
3.52684e-09
3.49511e-09
3.4504e-09
3.41759e-09
3.42263e-09
3.29953e-09
3.17354e-09
3.09205e-09
3.02722e-09
3.00072e-09
2.9801e-09
2.9098e-09
2.76063e-09
2.45372e-09
2.83581e-09
8.85689e-11
4.31125e-09
7.90086e-09
-1.23653e-09
-3.42796e-09
2.35484e-09
4.76633e-09
3.68927e-09
2.62784e-09
2.82309e-09
3.51595e-09
3.99043e-09
4.08137e-09
3.94877e-09
3.53565e-09
3.02933e-09
2.975e-09
3.31859e-09
3.56634e-09
3.63618e-09
3.6792e-09
3.69279e-09
3.75111e-09
3.76512e-09
3.64764e-09
3.53509e-09
3.48218e-09
3.42332e-09
3.43041e-09
3.38702e-09
3.25821e-09
3.19173e-09
3.15518e-09
3.12783e-09
3.12777e-09
3.11888e-09
3.01779e-09
2.87456e-09
2.60396e-09
2.91544e-09
4.52966e-10
5.23825e-09
8.57659e-09
-5.9974e-10
-2.65634e-09
2.36037e-09
4.15223e-09
2.90065e-09
1.95786e-09
2.33938e-09
3.22427e-09
3.82569e-09
3.99361e-09
3.89406e-09
3.42433e-09
2.88511e-09
2.8575e-09
3.24384e-09
3.51217e-09
3.60199e-09
3.67888e-09
3.70067e-09
3.75595e-09
3.74081e-09
3.62806e-09
3.55981e-09
3.48324e-09
3.44867e-09
3.43888e-09
3.34954e-09
3.25956e-09
3.22507e-09
3.21663e-09
3.21131e-09
3.22968e-09
3.20417e-09
3.08303e-09
2.96154e-09
2.75098e-09
3.00256e-09
1.00148e-09
5.81896e-09
8.68227e-09
8.21081e-11
-1.89849e-09
2.27075e-09
3.64482e-09
2.41079e-09
1.59307e-09
2.04401e-09
2.9759e-09
3.62188e-09
3.84822e-09
3.77618e-09
3.30338e-09
2.80314e-09
2.83023e-09
3.2055e-09
3.44991e-09
3.5616e-09
3.65317e-09
3.69273e-09
3.73845e-09
3.70712e-09
3.63228e-09
3.57954e-09
3.50907e-09
3.4765e-09
3.42459e-09
3.34025e-09
3.28452e-09
3.26213e-09
3.26737e-09
3.28239e-09
3.29654e-09
3.24199e-09
3.1138e-09
3.02656e-09
2.89435e-09
3.11334e-09
1.62701e-09
6.01445e-09
8.32567e-09
7.46338e-10
-1.16715e-09
2.14818e-09
3.25452e-09
2.16795e-09
1.47314e-09
1.90089e-09
2.76997e-09
3.40674e-09
3.66671e-09
3.61684e-09
3.19727e-09
2.78583e-09
2.85324e-09
3.17393e-09
3.39221e-09
3.52353e-09
3.61817e-09
3.67678e-09
3.71563e-09
3.68917e-09
3.64562e-09
3.59372e-09
3.53349e-09
3.47972e-09
3.40858e-09
3.35311e-09
3.31496e-09
3.30195e-09
3.31362e-09
3.33127e-09
3.31772e-09
3.24035e-09
3.13717e-09
3.09529e-09
3.0281e-09
3.22301e-09
2.2096e-09
5.88536e-09
7.6581e-09
1.34012e-09
-4.73996e-10
2.0371e-09
2.9643e-09
2.09643e-09
1.51991e-09
1.86785e-09
2.6109e-09
3.20033e-09
3.47231e-09
3.45152e-09
3.11807e-09
2.81016e-09
2.88932e-09
3.15348e-09
3.3581e-09
3.49397e-09
3.58803e-09
3.65631e-09
3.68937e-09
3.6767e-09
3.6487e-09
3.60041e-09
3.53749e-09
3.47e-09
3.40878e-09
3.37213e-09
3.34479e-09
3.33746e-09
3.34515e-09
3.34501e-09
3.30905e-09
3.23996e-09
3.17248e-09
3.15774e-09
3.13596e-09
3.3036e-09
2.67258e-09
5.54652e-09
6.84503e-09
1.82923e-09
1.61659e-10
1.95936e-09
2.75032e-09
2.12149e-09
1.65846e-09
1.9084e-09
2.50564e-09
3.0215e-09
3.2879e-09
3.29888e-09
3.06051e-09
2.85171e-09
2.93329e-09
3.15424e-09
3.34337e-09
3.47317e-09
3.56292e-09
3.62789e-09
3.6583e-09
3.65843e-09
3.6381e-09
3.59321e-09
3.53077e-09
3.4664e-09
3.41942e-09
3.3896e-09
3.36804e-09
3.35895e-09
3.35516e-09
3.33967e-09
3.30026e-09
3.24871e-09
3.20568e-09
3.20565e-09
3.20757e-09
3.34679e-09
3.00166e-09
5.10824e-09
6.01293e-09
2.19775e-09
7.17903e-10
1.92092e-09
2.59392e-09
2.18599e-09
1.82939e-09
1.99242e-09
2.44894e-09
2.87975e-09
3.12768e-09
3.16639e-09
3.02044e-09
2.90109e-09
2.98307e-09
3.16856e-09
3.33774e-09
3.4576e-09
3.54052e-09
3.59723e-09
3.62775e-09
3.63621e-09
3.61929e-09
3.57913e-09
3.52408e-09
3.46955e-09
3.43031e-09
3.40231e-09
3.38131e-09
3.3672e-09
3.35378e-09
3.33069e-09
3.29459e-09
3.25643e-09
3.2273e-09
3.23261e-09
3.24351e-09
3.36237e-09
3.20977e-09
4.65156e-09
5.24466e-09
2.44575e-09
1.17995e-09
1.91994e-09
2.48042e-09
2.25201e-09
1.99233e-09
2.09304e-09
2.42977e-09
2.77554e-09
2.99667e-09
3.06145e-09
2.99775e-09
2.95029e-09
3.03255e-09
3.18847e-09
3.33526e-09
3.44307e-09
3.51943e-09
3.57157e-09
3.60307e-09
3.61361e-09
3.59877e-09
3.56359e-09
3.51814e-09
3.47391e-09
3.43816e-09
3.41002e-09
3.38698e-09
3.36802e-09
3.34754e-09
3.32068e-09
3.28769e-09
3.25639e-09
3.23432e-09
3.23869e-09
3.2558e-09
3.35886e-09
3.31502e-09
4.2316e-09
4.58693e-09
2.5892e-09
1.54376e-09
1.94777e-09
2.3957e-09
2.29921e-09
2.12687e-09
2.19004e-09
2.4336e-09
2.70446e-09
2.89923e-09
2.98698e-09
2.98737e-09
2.99279e-09
3.07647e-09
3.20875e-09
3.33458e-09
3.43127e-09
3.50271e-09
3.55268e-09
3.58274e-09
3.5917e-09
3.57868e-09
3.55015e-09
3.51347e-09
3.47574e-09
3.44207e-09
3.41321e-09
3.38774e-09
3.36393e-09
3.33828e-09
3.30927e-09
3.27727e-09
3.24841e-09
3.22917e-09
3.23205e-09
3.25328e-09
3.33761e-09
3.3415e-09
3.87666e-09
4.05741e-09
2.65174e-09
1.81069e-09
1.98853e-09
2.33184e-09
2.32384e-09
2.22498e-09
2.26992e-09
2.44735e-09
2.66069e-09
2.83372e-09
2.93817e-09
2.98374e-09
3.02665e-09
3.11295e-09
3.22808e-09
3.337e-09
3.42427e-09
3.49075e-09
3.53744e-09
3.56472e-09
3.57255e-09
3.56248e-09
3.53934e-09
3.50828e-09
3.47466e-09
3.4424e-09
3.41269e-09
3.38463e-09
3.35669e-09
3.3273e-09
3.29614e-09
3.26361e-09
3.23522e-09
3.21675e-09
3.21764e-09
3.23753e-09
3.30048e-09
3.31679e-09
3.59515e-09
3.65211e-09
2.65549e-09
1.98485e-09
2.02545e-09
2.28331e-09
2.3293e-09
2.28657e-09
2.32569e-09
2.46089e-09
2.63497e-09
2.79333e-09
2.90877e-09
2.9851e-09
3.05399e-09
3.14336e-09
3.2466e-09
3.34282e-09
3.42197e-09
3.48295e-09
3.52563e-09
3.55039e-09
3.55787e-09
3.54985e-09
3.52993e-09
3.50243e-09
3.47147e-09
3.44007e-09
3.40943e-09
3.37902e-09
3.34791e-09
3.31538e-09
3.28167e-09
3.24779e-09
3.21873e-09
3.19936e-09
3.19665e-09
3.21136e-09
3.25353e-09
3.2642e-09
3.38248e-09
3.35483e-09
2.61701e-09
2.07095e-09
2.04281e-09
2.24404e-09
2.32063e-09
2.31575e-09
2.35524e-09
2.46706e-09
2.61849e-09
2.76893e-09
2.89412e-09
2.99169e-09
3.07821e-09
3.17015e-09
3.26517e-09
3.35197e-09
3.42415e-09
3.47982e-09
3.51854e-09
3.5407e-09
3.54722e-09
3.53988e-09
3.52177e-09
3.49639e-09
3.46697e-09
3.43594e-09
3.4044e-09
3.37216e-09
3.33856e-09
3.30316e-09
3.26668e-09
3.23078e-09
3.1997e-09
3.17771e-09
3.17046e-09
3.17822e-09
3.20253e-09
3.20116e-09
3.22884e-09
3.14545e-09
2.54381e-09
2.06931e-09
2.02637e-09
2.20832e-09
2.30264e-09
2.31769e-09
2.35889e-09
2.46158e-09
2.60516e-09
2.75619e-09
2.89151e-09
3.00444e-09
3.10266e-09
3.19605e-09
3.28521e-09
3.36492e-09
3.43106e-09
3.48174e-09
3.51644e-09
3.53558e-09
3.54032e-09
3.53258e-09
3.51502e-09
3.49048e-09
3.46168e-09
3.43069e-09
3.39847e-09
3.3649e-09
3.32929e-09
3.29134e-09
3.25205e-09
3.21331e-09
3.17898e-09
3.15308e-09
3.14048e-09
3.1409e-09
3.15235e-09
3.13952e-09
3.12555e-09
3.00629e-09
2.43503e-09
1.97284e-09
1.96391e-09
2.17256e-09
2.27861e-09
2.29538e-09
2.33645e-09
2.44163e-09
2.59125e-09
2.75191e-09
2.8994e-09
3.02429e-09
3.1298e-09
3.22326e-09
3.30774e-09
3.38179e-09
3.4427e-09
3.48866e-09
3.51918e-09
3.53488e-09
3.53717e-09
3.528e-09
3.50974e-09
3.48488e-09
3.45594e-09
3.42476e-09
3.39213e-09
3.35774e-09
3.32064e-09
3.28051e-09
3.23839e-09
3.19618e-09
3.15767e-09
3.12668e-09
3.10823e-09
3.1021e-09
3.10709e-09
3.0872e-09
3.07139e-09
2.9297e-09
2.28749e-09
1.77565e-09
1.85151e-09
2.13633e-09
2.24932e-09
2.24912e-09
2.28744e-09
2.40599e-09
2.57506e-09
2.75441e-09
2.91685e-09
3.05154e-09
3.16079e-09
3.25252e-09
3.33252e-09
3.4018e-09
3.45823e-09
3.49985e-09
3.52623e-09
3.53813e-09
3.53723e-09
3.52568e-09
3.50567e-09
3.47948e-09
3.4497e-09
3.41811e-09
3.38542e-09
3.35084e-09
3.31283e-09
3.27083e-09
3.22588e-09
3.17972e-09
3.1362e-09
3.099e-09
3.07433e-09
3.06272e-09
3.06831e-09
3.04687e-09
3.07122e-09
2.91909e-09
2.09628e-09
1.4704e-09
1.69442e-09
2.10568e-09
2.21609e-09
2.17838e-09
2.21213e-09
2.35571e-09
2.5575e-09
2.76403e-09
2.94384e-09
3.08636e-09
3.19603e-09
3.28376e-09
3.35869e-09
3.4238e-09
3.47669e-09
3.51461e-09
3.53682e-09
3.54425e-09
3.53951e-09
3.52483e-09
3.50215e-09
3.47375e-09
3.44248e-09
3.41036e-09
3.37809e-09
3.34405e-09
3.30563e-09
3.26197e-09
3.21418e-09
3.1637e-09
3.11431e-09
3.06953e-09
3.038e-09
3.02135e-09
3.03378e-09
3.01361e-09
3.13213e-09
2.98623e-09
1.85598e-09
1.02939e-09
1.50216e-09
2.09444e-09
2.18276e-09
2.08276e-09
2.11183e-09
2.29412e-09
2.54232e-09
2.78354e-09
2.98161e-09
3.12914e-09
3.23555e-09
3.31634e-09
3.38532e-09
3.44715e-09
3.49775e-09
3.53238e-09
3.54987e-09
3.55215e-09
3.54309e-09
3.52459e-09
3.49834e-09
3.46683e-09
3.43343e-09
3.40078e-09
3.36961e-09
3.33693e-09
3.29852e-09
3.2533e-09
3.2028e-09
3.14775e-09
3.09123e-09
3.03715e-09
2.99844e-09
2.97583e-09
2.99847e-09
2.97627e-09
3.26546e-09
3.15389e-09
1.58391e-09
5.08229e-10
1.29942e-09
2.12503e-09
2.15564e-09
1.96408e-09
1.99131e-09
2.22835e-09
2.53668e-09
2.81786e-09
3.03165e-09
3.17938e-09
3.27776e-09
3.34832e-09
3.4114e-09
3.47151e-09
3.52088e-09
3.55209e-09
3.56421e-09
3.56073e-09
3.54701e-09
3.52392e-09
3.49325e-09
3.45781e-09
3.4215e-09
3.38834e-09
3.35913e-09
3.32865e-09
3.29055e-09
3.24405e-09
3.19127e-09
3.13091e-09
3.06578e-09
3.00168e-09
2.95497e-09
2.92287e-09
2.956e-09
2.91804e-09
3.48322e-09
3.45066e-09
1.2809e-09
5.05256e-15
1.1911e-09
2.22886e-09
2.14201e-09
1.82895e-09
1.86142e-09
2.17095e-09
2.55174e-09
2.87376e-09
3.09499e-09
3.23488e-09
3.31895e-09
3.37632e-09
3.43564e-09
3.49592e-09
3.5449e-09
3.57271e-09
3.57869e-09
3.5685e-09
3.5498e-09
3.52132e-09
3.48583e-09
3.44606e-09
3.4059e-09
3.37189e-09
3.34538e-09
3.3177e-09
3.28004e-09
3.23319e-09
3.17876e-09
3.11203e-09
3.03834e-09
2.96298e-09
2.90515e-09
2.85839e-09
2.89945e-09
2.81665e-09
3.79023e-09
3.88742e-09
9.11707e-10
-4.99114e-10
1.27795e-09
2.43904e-09
2.14535e-09
1.69267e-09
1.74193e-09
2.14115e-09
2.60254e-09
2.95923e-09
3.17218e-09
3.29066e-09
3.35284e-09
3.39606e-09
3.45499e-09
3.51802e-09
3.5682e-09
3.59279e-09
3.59106e-09
3.57255e-09
3.54886e-09
3.51566e-09
3.47626e-09
3.43247e-09
3.38604e-09
3.34926e-09
3.32677e-09
3.30211e-09
3.26459e-09
3.21908e-09
3.16408e-09
3.09102e-09
3.00814e-09
2.91861e-09
2.84866e-09
2.77795e-09
2.82324e-09
2.64815e-09
4.18185e-09
4.47353e-09
4.79503e-10
-9.60707e-10
1.48303e-09
2.7318e-09
2.18469e-09
1.58222e-09
1.66361e-09
2.16486e-09
2.70636e-09
3.08181e-09
3.26294e-09
3.33635e-09
3.36739e-09
3.40234e-09
3.46606e-09
3.53424e-09
3.58889e-09
3.61014e-09
3.59564e-09
3.56776e-09
3.5423e-09
3.50678e-09
3.46867e-09
3.41987e-09
3.35905e-09
3.31925e-09
3.30355e-09
3.28117e-09
3.24294e-09
3.19946e-09
3.14263e-09
3.06185e-09
2.97104e-09
2.87312e-09
2.78897e-09
2.6758e-09
2.7287e-09
2.39141e-09
4.62836e-09
5.18519e-09
-4.23243e-11
-1.46268e-09
1.72703e-09
3.09574e-09
2.28949e-09
1.53855e-09
1.66663e-09
2.27162e-09
2.87789e-09
3.24532e-09
3.35994e-09
3.35131e-09
3.3468e-09
3.3922e-09
3.46697e-09
3.5413e-09
3.60511e-09
3.62038e-09
3.58882e-09
3.55565e-09
3.53012e-09
3.49662e-09
3.4627e-09
3.40037e-09
3.32525e-09
3.28996e-09
3.2795e-09
3.25536e-09
3.21569e-09
3.16911e-09
3.10455e-09
3.01994e-09
2.93478e-09
2.8357e-09
2.71956e-09
2.5509e-09
2.62668e-09
2.0278e-09
5.07256e-09
5.97365e-09
-6.69887e-10
-2.04018e-09
1.98866e-09
3.52064e-09
2.50022e-09
1.62152e-09
1.79691e-09
2.48731e-09
3.12119e-09
3.44121e-09
3.44411e-09
3.30722e-09
3.27789e-09
3.36749e-09
3.455e-09
3.53847e-09
3.61025e-09
3.61495e-09
3.57354e-09
3.54342e-09
3.52689e-09
3.49543e-09
3.4504e-09
3.36472e-09
3.29195e-09
3.27331e-09
3.2571e-09
3.22352e-09
3.1797e-09
3.12274e-09
3.05293e-09
2.97999e-09
2.90736e-09
2.79115e-09
2.62794e-09
2.42579e-09
2.53007e-09
1.53556e-09
5.42755e-09
6.74502e-09
-1.37327e-09
-2.65393e-09
2.24901e-09
4.00399e-09
2.85015e-09
1.89314e-09
2.09825e-09
2.82399e-09
3.42171e-09
3.64251e-09
3.48656e-09
3.18516e-09
3.15694e-09
3.32911e-09
3.43725e-09
3.5287e-09
3.59937e-09
3.59923e-09
3.55763e-09
3.54137e-09
3.54261e-09
3.50768e-09
3.43295e-09
3.31692e-09
3.27216e-09
3.27356e-09
3.23107e-09
3.18533e-09
3.13463e-09
3.07064e-09
3.00595e-09
2.94253e-09
2.87043e-09
2.7165e-09
2.53346e-09
2.32756e-09
2.42865e-09
9.26522e-10
5.60336e-09
7.38187e-09
-2.10509e-09
-3.26415e-09
2.47056e-09
4.51413e-09
3.36604e-09
2.39997e-09
2.59883e-09
3.2713e-09
3.74373e-09
3.80743e-09
3.45308e-09
3.01018e-09
3.03218e-09
3.28554e-09
3.41692e-09
3.51785e-09
3.58053e-09
3.58276e-09
3.55363e-09
3.55759e-09
3.55898e-09
3.5101e-09
3.40806e-09
3.28845e-09
3.28401e-09
3.2782e-09
3.1977e-09
3.14431e-09
3.08696e-09
3.02739e-09
2.96266e-09
2.88735e-09
2.80007e-09
2.62113e-09
2.47026e-09
2.23699e-09
2.31182e-09
2.91562e-10
5.51841e-09
7.7491e-09
-2.8041e-09
-3.84937e-09
2.57922e-09
5.01636e-09
4.07418e-09
3.1694e-09
3.30243e-09
3.79194e-09
4.03864e-09
3.88763e-09
3.34714e-09
2.86875e-09
2.97021e-09
3.25045e-09
3.39962e-09
3.509e-09
3.55363e-09
3.5649e-09
3.56163e-09
3.58071e-09
3.56213e-09
3.48599e-09
3.37835e-09
3.31048e-09
3.32623e-09
3.2746e-09
3.17004e-09
3.10762e-09
3.04625e-09
2.98315e-09
2.89483e-09
2.80051e-09
2.68818e-09
2.53021e-09
2.41982e-09
2.11023e-09
2.24653e-09
-2.16753e-10
5.11962e-09
7.69812e-09
-3.42691e-09
-4.418e-09
2.50774e-09
5.50266e-09
4.97758e-09
4.20244e-09
4.17916e-09
4.3495e-09
4.26357e-09
3.87444e-09
3.23602e-09
2.83065e-09
2.97532e-09
3.24526e-09
3.41351e-09
3.49507e-09
3.51702e-09
3.53914e-09
3.57423e-09
3.58834e-09
3.52815e-09
3.45267e-09
3.38119e-09
3.37003e-09
3.36693e-09
3.26487e-09
3.1597e-09
3.08009e-09
3.00731e-09
2.91556e-09
2.79011e-09
2.68427e-09
2.55215e-09
2.43948e-09
2.34496e-09
1.99557e-09
2.2652e-09
-4.85349e-10
4.40397e-09
7.08979e-09
-3.97085e-09
-4.97077e-09
2.21721e-09
5.94074e-09
6.04002e-09
5.45899e-09
5.18493e-09
4.91432e-09
4.42127e-09
3.81537e-09
3.18001e-09
2.89306e-09
3.05198e-09
3.28475e-09
3.44452e-09
3.48013e-09
3.48059e-09
3.50564e-09
3.55897e-09
3.55972e-09
3.47981e-09
3.44844e-09
3.4311e-09
3.42024e-09
3.37178e-09
3.24725e-09
3.15518e-09
3.05784e-09
2.95952e-09
2.83009e-09
2.68044e-09
2.56357e-09
2.42512e-09
2.35777e-09
2.26332e-09
1.94601e-09
2.33111e-09
-4.99563e-10
3.43534e-09
5.88679e-09
-4.47229e-09
-5.5331e-09
1.6788e-09
6.27621e-09
7.177e-09
6.84989e-09
6.26194e-09
5.4713e-09
4.54514e-09
3.75868e-09
3.20222e-09
3.05157e-09
3.19803e-09
3.35397e-09
3.46901e-09
3.47137e-09
3.44563e-09
3.45856e-09
3.51409e-09
3.51559e-09
3.4575e-09
3.46351e-09
3.47244e-09
3.42929e-09
3.33787e-09
3.23265e-09
3.15664e-09
3.03548e-09
2.9121e-09
2.75875e-09
2.59685e-09
2.48016e-09
2.33981e-09
2.29685e-09
2.19558e-09
1.94112e-09
2.3518e-09
-2.69663e-10
2.40296e-09
4.1991e-09
-5.02812e-09
-6.14791e-09
8.94178e-10
6.43837e-09
8.26253e-09
8.24825e-09
7.33976e-09
6.00597e-09
4.66812e-09
3.7422e-09
3.3079e-09
3.30024e-09
3.39313e-09
3.43851e-09
3.48733e-09
3.45954e-09
3.41347e-09
3.41449e-09
3.47257e-09
3.46766e-09
3.43301e-09
3.45664e-09
3.46431e-09
3.40588e-09
3.3127e-09
3.24228e-09
3.15959e-09
3.01524e-09
2.87805e-09
2.71108e-09
2.56438e-09
2.44646e-09
2.29411e-09
2.25123e-09
2.13694e-09
1.96732e-09
2.27054e-09
1.64069e-10
1.59331e-09
2.28809e-09
-5.74986e-09
-6.85743e-09
-7.27356e-11
6.3647e-09
9.17236e-09
9.52835e-09
8.33124e-09
6.48086e-09
4.80428e-09
3.78773e-09
3.49363e-09
3.61204e-09
3.62781e-09
3.52718e-09
3.49269e-09
3.44487e-09
3.39383e-09
3.39434e-09
3.42125e-09
3.40508e-09
3.39745e-09
3.42219e-09
3.423e-09
3.38557e-09
3.32654e-09
3.25848e-09
3.15344e-09
2.99998e-09
2.85368e-09
2.69252e-09
2.56909e-09
2.43733e-09
2.27385e-09
2.22035e-09
2.09492e-09
2.00197e-09
2.12301e-09
6.7972e-10
1.23175e-09
5.59134e-10
-6.60116e-09
-7.72514e-09
-1.09253e-09
6.04714e-09
9.79987e-09
1.0581e-08
9.16102e-09
6.84258e-09
4.90566e-09
3.85967e-09
3.75679e-09
4.0106e-09
3.91579e-09
3.62654e-09
3.4952e-09
3.43522e-09
3.38371e-09
3.3763e-09
3.36452e-09
3.34194e-09
3.3631e-09
3.3699e-09
3.37371e-09
3.39393e-09
3.3573e-09
3.26163e-09
3.14327e-09
2.98601e-09
2.83615e-09
2.69797e-09
2.5782e-09
2.44641e-09
2.27924e-09
2.19071e-09
2.07477e-09
2.02783e-09
1.97648e-09
1.10138e-09
1.29345e-09
-5.61136e-10
-7.27884e-09
-8.81567e-09
-2.36824e-09
5.4224e-09
1.00197e-08
1.13101e-08
9.84367e-09
7.12573e-09
4.93951e-09
3.82165e-09
4.01597e-09
4.71296e-09
4.55661e-09
3.95732e-09
3.60282e-09
3.46095e-09
3.38505e-09
3.35975e-09
3.29692e-09
3.26874e-09
3.32628e-09
3.32148e-09
3.32803e-09
3.4199e-09
3.39912e-09
3.26921e-09
3.13443e-09
2.97381e-09
2.83005e-09
2.70242e-09
2.59003e-09
2.44819e-09
2.28772e-09
2.15658e-09
2.05608e-09
2.05016e-09
1.86153e-09
1.22855e-09
1.46792e-09
-8.55436e-10
)
;

boundaryField
{
    bottomWall
    {
        type            zeroGradient;
    }
    topWall
    {
        type            zeroGradient;
    }
    sides1_half0
    {
        type            empty;
    }
    sides1_half1
    {
        type            empty;
    }
    sides2_half0
    {
        type            empty;
    }
    sides2_half1
    {
        type            empty;
    }
    inout1_half0
    {
        type            cyclic;
    }
    inout1_half1
    {
        type            cyclic;
    }
    inout2_half0
    {
        type            cyclic;
    }
    inout2_half1
    {
        type            cyclic;
    }
}


// ************************************************************************* //
