/*--------------------------------*- C++ -*----------------------------------*\
  =========                 |
  \\      /  F ield         | OpenFOAM: The Open Source CFD Toolbox
   \\    /   O peration     | Website:  https://openfoam.org
    \\  /    A nd           | Version:  dev
     \\/     M anipulation  |

   OpenFOAM for Windows 20.09 (v1)
   Built by CFD Support, www.cfdsupport.com (based on Symscape).
\*---------------------------------------------------------------------------*/
FoamFile
{
    version     2.0;
    format      ascii;
    class       surfaceScalarField;
    location    "10";
    object      phi;
}
// * * * * * * * * * * * * * * * * * * * * * * * * * * * * * * * * * * * * * //

dimensions      [0 3 -1 0 0 0 0];

internalField   nonuniform List<scalar> 
3120
(
0.000754217
-2.64966e-10
0.000754218
-1.18721e-10
0.000754218
-2.74957e-11
0.000754218
2.85112e-11
0.000754218
8.49353e-11
0.000754217
1.51891e-10
0.000754217
2.18393e-10
0.000754217
1.87286e-10
0.000754217
8.16306e-11
0.000754217
-4.27888e-12
0.000754217
-4.81554e-11
0.000754217
-6.32223e-11
0.000754217
-1.87994e-11
0.000754217
4.95544e-11
0.000754217
5.83067e-11
0.000754217
4.20795e-11
0.000754217
2.77815e-11
0.000754217
1.35217e-11
0.000754217
3.247e-12
0.000754217
1.12519e-12
0.000754217
-4.53511e-12
0.000754217
-5.72486e-12
0.000754217
-7.86096e-12
0.000754217
-1.2788e-11
0.000754217
-1.06369e-11
0.000754217
-1.08901e-11
0.000754217
-7.05322e-12
0.000754217
-5.83862e-12
0.000754217
-3.94874e-12
0.000754217
-2.54518e-12
0.000754217
-1.34773e-11
0.000754217
-2.97007e-12
0.000754217
-9.8333e-12
0.000754217
-2.25078e-12
0.000754217
-1.97036e-11
0.000754217
-4.97022e-12
0.000754217
-1.78455e-11
0.000754217
-2.44974e-11
0.000754217
-2.09866e-11
-2.14268e-10
0.000856943
-2.06324e-10
0.000856943
3.99397e-11
0.000856943
2.58563e-11
0.000856943
6.42548e-11
0.000856943
1.2087e-10
0.000856943
1.77619e-10
0.000856943
2.48276e-10
0.000856943
2.26623e-10
0.000856943
1.11209e-10
0.000856943
4.40024e-12
0.000856943
-6.18005e-11
0.000856943
-1.06898e-10
0.000856943
-7.78761e-11
0.000856943
8.03452e-12
0.000856943
5.57178e-11
0.000856943
5.52594e-11
0.000856943
3.97866e-11
0.000856943
2.31031e-11
0.000856943
7.94075e-12
0.000856943
4.97866e-12
0.000856943
-1.15961e-12
0.000856943
-5.01783e-12
0.000856943
-8.81323e-12
0.000856943
-1.37062e-11
0.000856943
-1.32236e-11
0.000856943
-1.26426e-11
0.000856943
-7.5565e-12
0.000856943
-6.50738e-12
0.000856943
-2.64117e-12
0.000856943
-1.32282e-12
0.000856943
-1.11672e-11
0.000856943
-1.63741e-12
0.000856943
-1.15687e-11
0.000856943
-5.34882e-12
0.000856943
-2.59447e-11
0.000856943
-3.47931e-12
0.000856943
-4.2243e-11
0.000856943
-5.82029e-13
0.000856943
-1.40643e-10
-4.45765e-10
0.000918271
-2.11611e-12
0.000918271
1.89384e-10
0.000918271
5.40619e-11
0.000918271
7.62574e-11
0.000918271
1.30818e-10
0.000918271
1.64388e-10
0.000918271
2.20979e-10
0.000918271
2.14122e-10
0.000918271
1.17719e-10
0.000918271
1.39928e-11
0.000918271
-6.41521e-11
0.000918271
-1.38061e-10
0.000918271
-1.38259e-10
0.000918271
-4.63868e-11
0.000918271
3.15617e-11
0.000918271
5.19669e-11
0.000918271
4.38136e-11
0.000918271
2.91584e-11
0.000918271
1.30168e-11
0.000918271
8.48149e-12
0.000918271
1.84737e-12
0.000918271
-2.81718e-12
0.000918271
-6.21879e-12
0.000918271
-1.07613e-11
0.000918271
-1.13169e-11
0.000918271
-9.32588e-12
0.000918271
-4.0767e-12
0.000918271
-3.7494e-12
0.000918271
3.57735e-13
0.000918271
6.76052e-13
0.000918271
-7.22625e-12
0.000918271
-7.9193e-13
0.000918271
-1.20366e-11
0.000918271
-6.9893e-12
0.000918271
-2.55505e-11
0.000918271
-4.90967e-12
0.000918271
-5.34497e-11
0.000918271
1.26024e-12
0.000918271
-2.90323e-10
-5.25342e-10
0.000970882
2.12591e-10
0.000970882
2.44816e-10
0.000970882
4.75722e-11
0.000970882
7.84173e-11
0.000970882
1.22119e-10
0.000970882
1.23396e-10
0.000970882
1.64773e-10
0.000970882
1.79863e-10
0.000970882
1.14583e-10
0.000970882
2.62942e-11
0.000970882
-5.47551e-11
0.000970882
-1.5534e-10
0.000970882
-1.87605e-10
0.000970882
-9.95287e-11
0.000970883
-7.79158e-13
0.000970883
3.95046e-11
0.000970883
4.1286e-11
0.000970883
3.14461e-11
0.000970883
1.63142e-11
0.000970883
1.06407e-11
0.000970883
4.82185e-12
0.000970883
1.02347e-12
0.000970883
-1.53266e-12
0.000970882
-6.03775e-12
0.000970882
-6.61374e-12
0.000970882
-2.63377e-12
0.000970882
1.16909e-12
0.000970882
-4.21078e-13
0.000970882
3.01043e-12
0.000970882
2.28457e-12
0.000970882
-4.57355e-12
0.000970882
-1.25203e-12
0.000970882
-1.06344e-11
0.000970882
-6.98602e-12
0.000970882
-2.14431e-11
0.000970882
-7.60659e-12
0.000970882
-5.44709e-11
0.000970882
-2.69305e-11
0.000970883
-3.86064e-10
-4.30716e-10
0.00102078
3.51282e-10
0.00102078
2.26734e-10
0.00102078
3.19451e-11
0.00102078
7.55887e-11
0.00102078
9.36175e-11
0.00102078
6.24864e-11
0.00102078
9.72997e-11
0.00102078
1.38564e-10
0.00102078
1.09169e-10
0.00102078
4.35542e-11
0.00102078
-3.61504e-11
0.00102078
-1.59896e-10
0.00102078
-2.22587e-10
0.00102078
-1.45122e-10
0.00102078
-3.46454e-11
0.00102078
2.11273e-11
0.00102078
3.28792e-11
0.00102078
2.95484e-11
0.00102078
1.66309e-11
0.00102078
1.2888e-11
0.00102078
1.00294e-11
0.00102078
6.42691e-12
0.00102078
4.09629e-12
0.00102078
-9.08196e-13
0.00102078
1.23577e-13
0.00102078
3.62114e-12
0.00102078
4.98575e-12
0.00102078
2.62224e-12
0.00102078
4.02178e-12
0.00102078
3.81564e-12
0.00102078
-2.93357e-12
0.00102078
-1.51742e-12
0.00102078
-7.69898e-12
0.00102078
-6.2383e-12
0.00102078
-1.54807e-11
0.00102078
-1.03086e-11
0.00102078
-4.88383e-11
0.00102078
-6.39326e-11
0.00102078
-3.88063e-10
-2.38735e-10
0.0010698
4.05602e-10
0.0010698
1.78563e-10
0.0010698
2.20698e-11
0.0010698
6.73096e-11
0.0010698
4.95207e-11
0.0010698
-7.23844e-12
0.0010698
2.97129e-11
0.0010698
9.71921e-11
0.0010698
1.05125e-10
0.0010698
6.56233e-11
0.0010698
-1.23366e-11
0.0010698
-1.54888e-10
0.0010698
-2.4293e-10
0.0010698
-1.7976e-10
0.0010698
-6.71861e-11
0.0010698
-1.51075e-12
0.0010698
2.0504e-11
0.0010698
2.44348e-11
0.0010698
1.64403e-11
0.0010698
1.59526e-11
0.0010698
1.53745e-11
0.0010698
1.23762e-11
0.0010698
9.362e-12
0.0010698
4.62329e-12
0.0010698
5.48892e-12
0.0010698
6.12163e-12
0.0010698
7.14148e-12
0.0010698
5.20302e-12
0.0010698
4.48969e-12
0.0010698
4.65447e-12
0.0010698
-1.1674e-12
0.0010698
-1.11005e-13
0.0010698
-3.6463e-12
0.0010698
-3.24495e-12
0.0010698
-9.84543e-12
0.0010698
-1.24043e-11
0.0010698
-3.84756e-11
0.0010698
-8.95255e-11
0.0010698
-3.15375e-10
-3.32384e-11
0.00111872
4.00884e-10
0.00111872
1.28418e-10
0.00111872
1.9729e-11
0.00111872
5.47888e-11
0.00111872
-2.81976e-13
0.00111872
-7.46041e-11
0.00111872
-3.1693e-11
0.00111872
6.02467e-11
0.00111872
1.03286e-10
0.00111872
8.79806e-11
0.00111872
1.1536e-11
0.00111872
-1.43542e-10
0.00111872
-2.49759e-10
0.00111872
-2.03128e-10
0.00111872
-9.65085e-11
0.00111872
-2.53634e-11
0.00111872
6.41117e-12
0.00111872
1.80694e-11
0.00111872
1.66323e-11
0.00111872
1.8556e-11
0.00111872
1.90737e-11
0.00111872
1.69534e-11
0.00111872
1.34422e-11
0.00111872
9.14171e-12
0.00111872
7.1028e-12
0.00111872
6.73214e-12
0.00111872
8.54516e-12
0.00111872
6.37202e-12
0.00111872
5.30826e-12
0.00111872
5.31614e-12
0.00111872
1.4649e-12
0.00111872
3.08147e-12
0.00111872
1.8015e-12
0.00111872
3.20745e-13
0.00111872
-5.5772e-12
0.00111872
-1.2124e-11
0.00111872
-2.57143e-11
0.00111872
-9.52654e-11
0.00111872
-2.05726e-10
1.38094e-10
0.00116794
3.66316e-10
0.00116794
8.96438e-11
0.00116794
2.22862e-11
0.00116794
3.93435e-11
0.00116794
-4.68404e-11
0.00116794
-1.30545e-10
0.00116794
-8.19785e-11
0.00116794
2.95815e-11
0.00116794
1.01129e-10
0.00116794
1.05062e-10
0.00116794
3.13662e-11
0.00116794
-1.28497e-10
0.00116794
-2.45584e-10
0.00116794
-2.16125e-10
0.00116794
-1.20379e-10
0.00116794
-4.71113e-11
0.00116794
-7.79613e-12
0.00116794
1.08398e-11
0.00116794
1.5288e-11
0.00116794
1.93317e-11
0.00116794
2.08891e-11
0.00116794
1.95419e-11
0.00116794
1.6212e-11
0.00116794
1.12566e-11
0.00116794
7.61875e-12
0.00116794
7.82085e-12
0.00116794
9.11062e-12
0.00116794
6.61379e-12
0.00116794
6.44275e-12
0.00116794
6.89824e-12
0.00116794
4.83166e-12
0.00116794
6.72518e-12
0.00116794
5.99327e-12
0.00116794
2.65326e-12
0.00116794
-1.06285e-12
0.00116794
-8.38612e-12
0.00116794
-1.2688e-11
0.00116794
-8.29081e-11
0.00116794
-9.11802e-11
2.58288e-10
0.0012177
3.2364e-10
0.0012177
6.52311e-11
0.0012177
2.58236e-11
0.0012177
2.29312e-11
0.0012177
-8.37186e-11
0.0012177
-1.69645e-10
0.0012177
-1.1793e-10
0.0012177
5.00226e-12
0.0012177
9.54127e-11
0.0012177
1.13718e-10
0.0012177
4.45033e-11
0.0012177
-1.12812e-10
0.0012177
-2.33434e-10
0.0012177
-2.19505e-10
0.0012177
-1.36566e-10
0.0012177
-6.47533e-11
0.0012177
-2.14889e-11
0.0012177
2.3231e-12
0.0012177
1.15862e-11
0.0012177
1.79697e-11
0.0012177
2.08292e-11
0.0012177
2.05232e-11
0.0012177
1.79188e-11
0.0012177
1.22933e-11
0.0012177
8.96373e-12
0.0012177
9.0194e-12
0.0012177
9.10248e-12
0.0012177
7.19077e-12
0.0012177
7.84633e-12
0.0012177
8.71868e-12
0.0012177
7.59501e-12
0.0012177
9.32928e-12
0.0012177
8.63042e-12
0.0012177
4.72122e-12
0.0012177
3.42033e-12
0.0012177
-2.49475e-12
0.0012177
6.74359e-13
0.0012177
-5.81273e-11
0.0012177
7.17992e-12
3.28379e-10
0.00126818
2.8435e-10
0.00126818
5.28665e-11
0.00126818
2.76463e-11
0.00126818
8.191e-12
0.00126818
-1.07115e-10
0.00126818
-1.89912e-10
0.00126818
-1.38759e-10
0.00126818
-1.40158e-11
0.00126818
8.50767e-11
0.00126818
1.12361e-10
0.00126818
4.8844e-11
0.00126818
-9.88008e-11
0.00126818
-2.1557e-10
0.00126818
-2.13431e-10
0.00126818
-1.44547e-10
0.00126818
-7.83977e-11
0.00126818
-3.41048e-11
0.00126818
-7.05628e-12
0.00126818
6.46373e-12
0.00126818
1.52574e-11
0.00126818
1.95594e-11
0.00126818
2.04832e-11
0.00126818
1.83776e-11
0.00126818
1.33512e-11
0.00126818
1.04962e-11
0.00126818
9.64717e-12
0.00126818
9.19359e-12
0.00126818
8.24868e-12
0.00126818
9.00891e-12
0.00126818
9.78458e-12
0.00126818
9.65649e-12
0.00126818
1.10356e-11
0.00126818
1.01603e-11
0.00126818
6.23305e-12
0.00126818
7.33779e-12
0.00126818
4.37366e-12
0.00126818
1.41245e-11
0.00126818
-2.67986e-11
0.00126818
7.97912e-11
3.5659e-10
0.00131953
2.52249e-10
0.00131953
4.95612e-11
0.00131953
2.73614e-11
0.00131953
-3.24437e-12
0.00131953
-1.16232e-10
0.00131953
-1.92181e-10
0.00131953
-1.45716e-10
0.00131953
-2.84281e-11
0.00131953
7.00898e-11
0.00131953
1.01235e-10
0.00131953
4.47662e-11
0.00131953
-8.68318e-11
0.00131953
-1.93327e-10
0.00131953
-1.99701e-10
0.00131953
-1.45741e-10
0.00131953
-8.77284e-11
0.00131953
-4.44545e-11
0.00131953
-1.58429e-11
0.00131953
1.05867e-12
0.00131953
1.18991e-11
0.00131953
1.74387e-11
0.00131953
1.93653e-11
0.00131953
1.79226e-11
0.00131953
1.40934e-11
0.00131953
1.11633e-11
0.00131953
9.69911e-12
0.00131953
9.46532e-12
0.00131953
9.12455e-12
0.00131953
9.75792e-12
0.00131953
1.04443e-11
0.00131953
1.08971e-11
0.00131953
1.15865e-11
0.00131953
1.04254e-11
0.00131953
7.53229e-12
0.00131953
1.11063e-11
0.00131953
1.16283e-11
0.00131953
2.63957e-11
0.00131953
4.38433e-12
0.00131953
1.25378e-10
3.53402e-10
0.0013719
2.2679e-10
0.0013719
5.22537e-11
0.0013719
2.61397e-11
0.0013719
-1.03718e-11
0.0013719
-1.13087e-10
0.0013719
-1.80061e-10
0.0013719
-1.41597e-10
0.0013719
-3.88186e-11
0.0013719
5.16893e-11
0.0013719
8.27772e-11
0.0013719
3.5008e-11
0.0013719
-7.64156e-11
0.0013719
-1.68766e-10
0.0013719
-1.81047e-10
0.0013719
-1.40951e-10
0.0013719
-9.18875e-11
0.0013719
-5.16891e-11
0.0013719
-2.30023e-11
0.0013719
-4.16261e-12
0.0013719
7.93051e-12
0.0013719
1.45132e-11
0.0013719
1.72879e-11
0.0013719
1.66011e-11
0.0013719
1.3672e-11
0.0013719
1.08826e-11
0.0013719
9.48412e-12
0.0013719
9.47734e-12
0.0013719
9.48199e-12
0.0013719
1.0065e-11
0.0013719
1.05577e-11
0.0013719
1.0958e-11
0.0013719
1.11795e-11
0.0013719
1.04413e-11
0.0013719
9.17418e-12
0.0013719
1.4503e-11
0.0013719
1.81122e-11
0.0013719
3.58186e-11
0.0013719
3.03634e-11
0.0013719
1.47358e-10
3.2934e-10
0.00142545
2.05222e-10
0.00142545
5.79477e-11
0.00142545
2.52478e-11
0.00142545
-1.32488e-11
0.00142545
-1.01179e-10
0.00142545
-1.58204e-10
0.00142545
-1.29367e-10
0.00142545
-4.51107e-11
0.00142545
3.25275e-11
0.00142545
6.09604e-11
0.00142545
2.26684e-11
0.00142545
-6.73211e-11
0.00142545
-1.44007e-10
0.00142545
-1.59442e-10
0.00142545
-1.31057e-10
0.00142545
-9.11276e-11
0.00142545
-5.5527e-11
0.00142545
-2.82601e-11
0.00142545
-9.0234e-12
0.00142545
3.54701e-12
0.00142545
1.08681e-11
0.00142545
1.42453e-11
0.00142545
1.4318e-11
0.00142545
1.22878e-11
0.00142545
1.00246e-11
0.00142545
8.93607e-12
0.00142545
8.96624e-12
0.00142545
9.19513e-12
0.00142545
9.65663e-12
0.00142545
9.93079e-12
0.00142545
1.03175e-11
0.00142545
1.05068e-11
0.00142545
1.04994e-11
0.00142545
1.07397e-11
0.00142545
1.70037e-11
0.00142545
2.28005e-11
0.00142545
4.16612e-11
0.00142545
4.87751e-11
0.00142545
1.51185e-10
2.92839e-10
0.00148032
1.84438e-10
0.00148032
6.34692e-11
0.00148032
2.50911e-11
0.00148032
-1.23957e-11
0.00148032
-8.40242e-11
0.00148032
-1.3107e-10
0.00148032
-1.11668e-10
0.00148032
-4.6859e-11
0.00148032
1.56485e-11
0.00148032
3.97306e-11
0.00148032
1.03685e-11
0.00148032
-5.91848e-11
0.00148032
-1.20263e-10
0.00148032
-1.36542e-10
0.00148032
-1.17547e-10
0.00148032
-8.62839e-11
0.00148032
-5.61015e-11
0.00148032
-3.15112e-11
0.00148032
-1.32503e-11
0.00148032
-8.04498e-13
0.00148032
6.81712e-12
0.00148032
1.05985e-11
0.00148032
1.14176e-11
0.00148032
1.03003e-11
0.00148032
8.72562e-12
0.00148032
7.93212e-12
0.00148032
7.96677e-12
0.00148032
8.25502e-12
0.00148032
8.63623e-12
0.00148032
8.84245e-12
0.00148032
9.22665e-12
0.00148032
9.58465e-12
0.00148032
1.02824e-11
0.00148032
1.15965e-11
0.00148032
1.80601e-11
0.00148032
2.51848e-11
0.00148032
4.38933e-11
0.00148032
5.89627e-11
0.00148032
1.42288e-10
2.50191e-10
0.00153669
1.61902e-10
0.00153669
6.61734e-11
0.00153669
2.55167e-11
0.00153669
-8.81456e-12
0.00153669
-6.47391e-11
0.00153669
-1.02269e-10
0.00153669
-9.0717e-11
0.00153669
-4.38351e-11
0.00153669
3.35626e-12
0.00153669
2.21218e-11
0.00153669
4.18561e-13
0.00153669
-5.12124e-11
0.00153669
-9.80986e-11
0.00153669
-1.13588e-10
0.00153669
-1.01786e-10
0.00153669
-7.83715e-11
0.00153669
-5.39154e-11
0.00153669
-3.28035e-11
0.00153669
-1.63589e-11
0.00153669
-4.65136e-12
0.00153669
2.82445e-12
0.00153669
6.8116e-12
0.00153669
8.18346e-12
0.00153669
7.89107e-12
0.00153669
7.04306e-12
0.00153669
6.55203e-12
0.00153669
6.59895e-12
0.00153669
6.8738e-12
0.00153669
7.2109e-12
0.00153669
7.36029e-12
0.00153669
7.73745e-12
0.00153669
8.27711e-12
0.00153669
9.38707e-12
0.00153669
1.13034e-11
0.00153669
1.74462e-11
0.00153669
2.5192e-11
0.00153669
4.2673e-11
0.00153669
6.13411e-11
0.00153669
1.25323e-10
2.05644e-10
0.00159472
1.36515e-10
0.00159472
6.45871e-11
0.00159472
2.58992e-11
0.00159472
-3.82102e-12
0.00159472
-4.56256e-11
0.00159472
-7.42137e-11
0.00159472
-6.82611e-11
0.00159472
-3.63799e-11
0.00159472
-3.07656e-12
0.00159472
1.02432e-11
0.00159472
-5.50814e-12
0.00159472
-4.26718e-11
0.00159472
-7.76231e-11
0.00159472
-9.14098e-11
0.00159472
-8.49363e-11
0.00159472
-6.8334e-11
0.00159472
-4.94638e-11
0.00159472
-3.22016e-11
0.00159472
-1.81276e-11
0.00159472
-7.71956e-12
0.00159472
-8.16929e-13
0.00159472
3.1321e-12
0.00159472
4.91289e-12
0.00159472
5.29496e-12
0.00159472
5.05284e-12
0.00159472
4.85973e-12
0.00159472
4.95327e-12
0.00159472
5.20279e-12
0.00159472
5.44831e-12
0.00159472
5.54093e-12
0.00159472
5.88589e-12
0.00159472
6.47029e-12
0.00159472
7.67666e-12
0.00159472
9.78275e-12
0.00159472
1.52831e-11
0.00159472
2.28953e-11
0.00159472
3.81918e-11
0.00159472
5.69123e-11
0.00159472
1.0363e-10
1.61823e-10
0.00165458
1.08429e-10
0.00165458
5.82898e-11
0.00165458
2.54917e-11
0.00165458
1.57651e-12
0.00165458
-2.79319e-11
0.00165458
-4.82266e-11
0.00165458
-4.55468e-11
0.00165458
-2.51773e-11
0.00165458
-3.39986e-12
0.00165458
4.89095e-12
0.00165458
-6.75095e-12
0.00165458
-3.30671e-11
0.00165458
-5.86234e-11
0.00165458
-7.04263e-11
0.00165458
-6.77995e-11
0.00165458
-5.69089e-11
0.00165458
-4.32493e-11
0.00165458
-2.99767e-11
0.00165458
-1.86594e-11
0.00165458
-9.95135e-12
0.00165458
-3.91332e-12
0.00165458
-1.88519e-13
0.00165458
1.80932e-12
0.00165458
2.65567e-12
0.00165458
2.88527e-12
0.00165458
2.9637e-12
0.00165458
3.1161e-12
0.00165458
3.30574e-12
0.00165458
3.43495e-12
0.00165458
3.45839e-12
0.00165458
3.69628e-12
0.00165458
4.16783e-12
0.00165458
5.2307e-12
0.00165458
7.16888e-12
0.00165458
1.16997e-11
0.00165458
1.83766e-11
0.00165458
3.07225e-11
0.00165458
4.70056e-11
0.00165458
7.93652e-11
1.20059e-10
0.00171643
7.83928e-11
0.00171643
4.78251e-11
0.00171643
2.39014e-11
0.00171643
6.72121e-12
0.00171643
-1.21168e-11
0.00171643
-2.4711e-11
0.00171643
-2.32468e-11
0.00171643
-1.10578e-11
0.00171643
1.72227e-12
0.00171643
5.62262e-12
0.00171643
-3.45197e-12
0.00171643
-2.21069e-11
0.00171643
-4.0681e-11
0.00171643
-5.06623e-11
0.00171643
-5.08382e-11
0.00171643
-4.46873e-11
0.00171643
-3.57878e-11
0.00171643
-2.64897e-11
0.00171643
-1.81265e-11
0.00171643
-1.13601e-11
0.00171643
-6.39144e-12
0.00171643
-3.06952e-12
0.00171643
-1.03338e-12
0.00171643
1.04353e-13
0.00171643
6.77295e-13
0.00171643
9.74013e-13
0.00171643
1.16135e-12
0.00171643
1.25966e-12
0.00171643
1.25411e-12
0.00171643
1.15766e-12
0.00171643
1.20386e-12
0.00171643
1.45306e-12
0.00171643
2.17028e-12
0.00171643
3.60526e-12
0.00171643
6.85322e-12
0.00171643
1.1905e-11
0.00171643
2.07225e-11
0.00171643
3.29433e-11
0.00171643
5.36322e-11
8.05586e-11
0.00178042
4.71351e-11
0.00178042
3.4327e-11
0.00178042
2.11298e-11
0.00178042
1.12473e-11
0.00178042
1.87545e-12
0.00178042
-3.37812e-12
0.00178042
-1.48187e-12
0.00178042
5.19915e-12
0.00178042
1.11508e-11
0.00178042
1.13462e-11
0.00178042
3.70197e-12
0.00178042
-9.7207e-12
0.00178042
-2.33046e-11
0.00178042
-3.18527e-11
0.00178042
-3.41886e-11
0.00178042
-3.20425e-11
0.00178042
-2.74911e-11
0.00178042
-2.20629e-11
0.00178042
-1.67273e-11
0.00178042
-1.20494e-11
0.00178042
-8.30419e-12
0.00178042
-5.52898e-12
0.00178042
-3.5855e-12
0.00178042
-2.28305e-12
0.00178042
-1.47377e-12
0.00178042
-1.02577e-12
0.00178042
-8.40833e-13
0.00178042
-8.61844e-13
0.00178042
-1.03596e-12
0.00178042
-1.30826e-12
0.00178042
-1.511e-12
0.00178042
-1.58552e-12
0.00178042
-1.39731e-12
0.00178042
-7.36575e-13
0.00178042
9.6905e-13
0.00178042
3.85566e-12
0.00178042
8.70474e-12
0.00178042
1.58646e-11
0.00178042
2.67142e-11
4.25602e-11
0.00184667
1.48875e-11
0.00184667
1.90052e-11
0.00184667
1.7364e-11
0.00184667
1.48898e-11
0.00184667
1.43768e-11
0.00184667
1.65408e-11
0.00184667
2.01066e-11
0.00184667
2.30564e-11
0.00184667
2.36335e-11
0.00184667
2.06557e-11
0.00184667
1.37854e-11
0.00184667
4.03679e-12
0.00184667
-5.95282e-12
0.00184667
-1.34823e-11
0.00184667
-1.76578e-11
0.00184667
-1.90733e-11
0.00184667
-1.8601e-11
0.00184667
-1.69586e-11
0.00184667
-1.46875e-11
0.00184667
-1.21854e-11
0.00184667
-9.75989e-12
0.00184667
-7.62196e-12
0.00184667
-5.85794e-12
0.00184667
-4.47036e-12
0.00184667
-3.49338e-12
0.00184667
-2.94764e-12
0.00184667
-2.80854e-12
0.00184667
-2.99511e-12
0.00184667
-3.38463e-12
0.00184667
-3.87532e-12
0.00184667
-4.37049e-12
0.00184667
-4.85557e-12
0.00184667
-5.33373e-12
0.00184667
-5.63049e-12
0.00184667
-5.66421e-12
0.00184667
-5.29091e-12
0.00184667
-4.77963e-12
0.00184667
-3.32633e-12
0.00184667
-1.71108e-12
4.44024e-12
0.00184667
-1.72804e-11
0.00184667
3.56714e-12
0.00184667
1.28575e-11
0.00184667
1.71593e-11
0.00184667
2.53386e-11
0.00184667
3.53507e-11
0.00184667
4.13482e-11
0.00184667
4.13976e-11
0.00184667
3.73182e-11
0.00184667
3.15867e-11
0.00184667
2.53773e-11
0.00184667
1.86062e-11
0.00184667
1.14217e-11
0.00184667
4.59508e-12
0.00184667
-1.30701e-12
0.00184667
-6.06137e-12
0.00184667
-9.49732e-12
0.00184667
-1.1548e-11
0.00184667
-1.23023e-11
0.00184667
-1.19559e-11
0.00184667
-1.08383e-11
0.00184667
-9.34742e-12
0.00184667
-7.79358e-12
0.00184667
-6.3483e-12
0.00184667
-5.23521e-12
0.00184667
-4.62944e-12
0.00184667
-4.59067e-12
0.00184667
-5.01038e-12
0.00184667
-5.66463e-12
0.00184667
-6.40402e-12
0.00184667
-7.2127e-12
0.00184667
-8.14637e-12
0.00184667
-9.35195e-12
0.00184667
-1.06535e-11
0.00184667
-1.24593e-11
0.00184667
-1.46441e-11
0.00184667
-1.86373e-11
0.00184667
-2.31246e-11
0.00184667
-3.12676e-11
-3.46095e-11
0.00178042
-4.87055e-11
0.00178042
-1.0749e-11
0.00178042
7.57952e-12
0.00178042
1.74217e-11
0.00178042
3.46755e-11
0.00178042
5.33363e-11
0.00178042
6.20013e-11
0.00178042
5.89982e-11
0.00178042
5.02601e-11
0.00178042
4.21614e-11
0.00178042
3.71481e-11
0.00178042
3.35684e-11
0.00178042
2.90441e-11
0.00178042
2.27456e-11
0.00178042
1.5044e-11
0.00178042
6.92566e-12
0.00178042
-4.10973e-13
0.00178042
-6.11297e-12
0.00178042
-9.82235e-12
0.00178042
-1.15262e-11
0.00178042
-1.1615e-11
0.00178042
-1.07127e-11
0.00178042
-9.34698e-12
0.00178042
-7.82723e-12
0.00178042
-6.57429e-12
0.00178042
-5.93301e-12
0.00178042
-6.06069e-12
0.00178042
-6.79406e-12
0.00178042
-7.75954e-12
0.00178042
-8.7601e-12
0.00178042
-9.88128e-12
0.00178042
-1.12637e-11
0.00178042
-1.31768e-11
0.00178042
-1.53771e-11
0.00178042
-1.88085e-11
0.00178042
-2.32697e-11
0.00178042
-3.16869e-11
0.00178042
-4.19242e-11
0.00178042
-6.14118e-11
-7.53964e-11
0.00171643
-8.01177e-11
0.00171643
-2.37191e-11
0.00171643
8.24642e-13
0.00171643
1.48589e-11
0.00171643
4.24028e-11
0.00171643
7.10238e-11
0.00171643
8.21505e-11
0.00171643
7.50772e-11
0.00171643
6.10955e-11
0.00171643
5.11324e-11
0.00171643
4.86291e-11
0.00171643
4.93598e-11
0.00171643
4.78883e-11
0.00171643
4.20182e-11
0.00171643
3.2187e-11
0.00171643
2.03325e-11
0.00171643
8.82735e-12
0.00171643
-6.5192e-13
0.00171643
-7.31559e-12
0.00171643
-1.09705e-11
0.00171643
-1.21438e-11
0.00171643
-1.17446e-11
0.00171643
-1.05279e-11
0.00171643
-8.8853e-12
0.00171643
-7.45353e-12
0.00171643
-6.78942e-12
0.00171643
-7.16603e-12
0.00171643
-8.3137e-12
0.00171643
-9.63586e-12
0.00171643
-1.09042e-11
0.00171643
-1.23451e-11
0.00171643
-1.41609e-11
0.00171643
-1.66826e-11
0.00171643
-1.9549e-11
0.00171643
-2.43535e-11
0.00171643
-3.05722e-11
0.00171643
-4.31604e-11
0.00171643
-5.86425e-11
0.00171643
-9.22683e-11
-1.19731e-10
0.00165458
-1.12378e-10
0.00165458
-3.4798e-11
0.00165458
-8.85344e-12
0.00165458
8.3506e-12
0.00165458
4.81402e-11
0.00165458
8.82882e-11
0.00165458
1.01205e-10
0.00165458
8.84563e-11
0.00165458
6.84402e-11
0.00165458
5.75589e-11
0.00165458
5.98147e-11
0.00165458
6.67625e-11
0.00165458
6.90459e-11
0.00165458
6.34212e-11
0.00165458
5.08001e-11
0.00165458
3.4514e-11
0.00165458
1.83626e-11
0.00165458
4.87352e-12
0.00165458
-4.7867e-12
0.00165458
-1.02884e-11
0.00165458
-1.24079e-11
0.00165458
-1.24301e-11
0.00165458
-1.13331e-11
0.00165458
-9.50001e-12
0.00165458
-7.81938e-12
0.00165458
-7.1379e-12
0.00165458
-7.86934e-12
0.00165458
-9.54376e-12
0.00165458
-1.12511e-11
0.00165458
-1.2809e-11
0.00165458
-1.4612e-11
0.00165458
-1.68137e-11
0.00165458
-1.97213e-11
0.00165458
-2.29119e-11
0.00165458
-2.87561e-11
0.00165458
-3.59915e-11
0.00165458
-5.22488e-11
0.00165458
-7.19593e-11
0.00165458
-1.23362e-10
-1.68448e-10
0.00159472
-1.45695e-10
0.00159472
-4.61565e-11
0.00159472
-2.21236e-11
0.00159472
-3.12509e-12
0.00159472
5.13056e-11
0.00159472
1.0437e-10
0.00159472
1.17903e-10
0.00159472
9.76031e-11
0.00159472
7.09576e-11
0.00159472
6.0844e-11
0.00159472
7.11243e-11
0.00159472
8.68153e-11
0.00159472
9.36274e-11
0.00159472
8.77796e-11
0.00159472
7.12934e-11
0.00159472
4.96215e-11
0.00159472
2.82282e-11
0.00159472
1.04564e-11
0.00159472
-2.225e-12
0.00159472
-9.42555e-12
0.00159472
-1.23552e-11
0.00159472
-1.2746e-11
0.00159472
-1.17953e-11
0.00159472
-9.70057e-12
0.00159472
-7.65115e-12
0.00159472
-6.95583e-12
0.00159472
-8.17719e-12
0.00159472
-1.04675e-11
0.00159472
-1.25404e-11
0.00159472
-1.44531e-11
0.00159472
-1.6694e-11
0.00159472
-1.91017e-11
0.00159472
-2.2092e-11
0.00159472
-2.52663e-11
0.00159472
-3.17244e-11
0.00159472
-3.9041e-11
0.00159472
-5.81735e-11
0.00159472
-8.03754e-11
0.00159472
-1.53317e-10
-2.20549e-10
0.00153669
-1.78907e-10
0.00153669
-5.82125e-11
0.00153669
-4.0714e-11
0.00153669
-2.09466e-11
0.00153669
5.13879e-11
0.00153669
1.17886e-10
0.00153669
1.30407e-10
0.00153669
1.0082e-10
0.00153669
6.75873e-11
0.00153669
6.0865e-11
0.00153669
8.33213e-11
0.00153669
1.10659e-10
0.00153669
1.22542e-10
0.00153669
1.15462e-10
0.00153669
9.36173e-11
0.00153669
6.54783e-11
0.00153669
3.82371e-11
0.00153669
1.59805e-11
0.00153669
3.60861e-13
0.00153669
-8.32406e-12
0.00153669
-1.19357e-11
0.00153669
-1.27585e-11
0.00153669
-1.20616e-11
0.00153669
-9.58074e-12
0.00153669
-6.97736e-12
0.00153669
-6.29332e-12
0.00153669
-8.18632e-12
0.00153669
-1.10973e-11
0.00153669
-1.34202e-11
0.00153669
-1.57598e-11
0.00153669
-1.84036e-11
0.00153669
-2.07505e-11
0.00153669
-2.36444e-11
0.00153669
-2.65432e-11
0.00153669
-3.31273e-11
0.00153669
-3.9391e-11
0.00153669
-6.03277e-11
0.00153669
-8.2475e-11
0.00153669
-1.79924e-10
-2.74848e-10
0.00148032
-2.13042e-10
0.00148032
-7.38844e-11
0.00148032
-6.48236e-11
0.00148032
-4.31164e-11
0.00148032
4.705e-11
0.00148032
1.268e-10
0.00148032
1.36522e-10
0.00148032
9.65733e-11
0.00148032
5.79047e-11
0.00148032
5.81645e-11
0.00148032
9.74016e-11
0.00148032
1.39381e-10
0.00148032
1.56269e-10
0.00148032
1.46022e-10
0.00148032
1.16994e-10
0.00148032
8.13992e-11
0.00148032
4.79006e-11
0.00148032
2.11842e-11
0.00148032
2.90842e-12
0.00148032
-6.97903e-12
0.00148032
-1.12641e-11
0.00148032
-1.27095e-11
0.00148032
-1.24161e-11
0.00148032
-9.32093e-12
0.00148032
-5.88316e-12
0.00148032
-5.38995e-12
0.00148032
-8.17144e-12
0.00148032
-1.15019e-11
0.00148032
-1.37811e-11
0.00148032
-1.64806e-11
0.00148032
-1.92854e-11
0.00148032
-2.14957e-11
0.00148032
-2.43576e-11
0.00148032
-2.68627e-11
0.00148032
-3.30507e-11
0.00148032
-3.69819e-11
0.00148032
-5.85377e-11
0.00148032
-7.70653e-11
0.00148032
-1.99086e-10
-3.26984e-10
0.00142545
-2.47991e-10
0.00142545
-9.4079e-11
0.00142545
-9.36108e-11
0.00142545
-6.91936e-11
0.00142545
3.79054e-11
0.00142545
1.29051e-10
0.00142545
1.34138e-10
0.00142545
8.39399e-11
0.00142545
4.25248e-11
0.00142545
5.40907e-11
0.00142545
1.1458e-10
0.00142545
1.73651e-10
0.00142545
1.94202e-10
0.00142545
1.77754e-10
0.00142545
1.39716e-10
0.00142545
9.61527e-11
0.00142545
5.6385e-11
0.00142545
2.56137e-11
0.00142545
5.201e-12
0.00142545
-5.6712e-12
0.00142545
-1.06472e-11
0.00142545
-1.29102e-11
0.00142545
-1.31043e-11
0.00142545
-8.99385e-12
0.00142545
-4.70664e-12
0.00142545
-4.88731e-12
0.00142545
-8.50013e-12
0.00142545
-1.17477e-11
0.00142545
-1.35995e-11
0.00142545
-1.63184e-11
0.00142545
-1.90943e-11
0.00142545
-2.13582e-11
0.00142545
-2.4322e-11
0.00142545
-2.63965e-11
0.00142545
-3.14858e-11
0.00142545
-3.22296e-11
0.00142545
-5.29054e-11
0.00142545
-6.32569e-11
0.00142545
-2.05755e-10
-3.72139e-10
0.00137191
-2.8556e-10
0.00137191
-1.2146e-10
0.00137191
-1.23732e-10
0.00137191
-9.61039e-11
0.00137191
2.39933e-11
0.00137191
1.22781e-10
0.00137191
1.2164e-10
0.00137191
6.30165e-11
0.00137191
2.33737e-11
0.00137191
5.07643e-11
0.00137191
1.35755e-10
0.00137191
2.12707e-10
0.00137191
2.33775e-10
0.00137191
2.07502e-10
0.00137191
1.59501e-10
0.00137191
1.08213e-10
0.00137191
6.28027e-11
0.00137191
2.88587e-11
0.00137191
6.75036e-12
0.00137191
-4.96707e-12
0.00137191
-1.06906e-11
0.00137191
-1.38906e-11
0.00137191
-1.43076e-11
0.00137191
-8.763e-12
0.00137191
-4.08781e-12
0.00137191
-5.40699e-12
0.00137191
-9.25539e-12
0.00137191
-1.1737e-11
0.00137191
-1.28816e-11
0.00137191
-1.54383e-11
0.00137191
-1.81747e-11
0.00137191
-2.05362e-11
0.00137191
-2.32953e-11
0.00137191
-2.47289e-11
0.00137191
-2.85919e-11
0.00137191
-2.63006e-11
0.00137191
-4.35816e-11
0.00137191
-4.09931e-11
0.00137191
-1.94161e-10
-4.02788e-10
0.00131953
-3.27206e-10
0.00131953
-1.55581e-10
0.00131953
-1.51466e-10
0.00131953
-1.20069e-10
0.00131953
6.39712e-12
0.00131953
1.06856e-10
0.00131953
9.82281e-11
0.00131953
3.52337e-11
0.00131953
3.47017e-12
0.00131953
5.03302e-11
0.00131953
1.60259e-10
0.00131953
2.53137e-10
0.00131953
2.70258e-10
0.00131953
2.31184e-10
0.00131953
1.73682e-10
0.00131953
1.15844e-10
0.00131953
6.65169e-11
0.00131953
3.05135e-11
0.00131953
7.1357e-12
0.00131953
-5.2344e-12
0.00131953
-1.1848e-11
0.00131953
-1.588e-11
0.00131953
-1.62326e-11
0.00131953
-9.06602e-12
0.00131953
-4.61408e-12
0.00131953
-6.93453e-12
0.00131953
-1.01978e-11
0.00131953
-1.1707e-11
0.00131953
-1.1982e-11
0.00131953
-1.42886e-11
0.00131953
-1.66877e-11
0.00131953
-1.85236e-11
0.00131953
-2.05542e-11
0.00131953
-2.18783e-11
0.00131953
-2.5436e-11
0.00131953
-1.99889e-11
0.00131953
-3.06426e-11
0.00131953
-1.30525e-11
0.00131953
-1.5953e-10
-4.10443e-10
0.00126818
-3.72199e-10
0.00126818
-1.95837e-10
0.00126818
-1.72149e-10
0.00126818
-1.36784e-10
0.00126818
-1.38406e-11
0.00126818
8.07264e-11
0.00126818
6.42903e-11
0.00126818
3.28595e-12
0.00126818
-1.42248e-11
0.00126818
5.32708e-11
0.00126818
1.85147e-10
0.00126818
2.88415e-10
0.00126818
2.96624e-10
0.00126818
2.44689e-10
0.00126818
1.79984e-10
0.00126818
1.17977e-10
0.00126818
6.70541e-11
0.00126818
3.02515e-11
0.00126818
6.21435e-12
0.00126818
-6.65718e-12
0.00126818
-1.32676e-11
0.00126818
-1.77721e-11
0.00126818
-1.8427e-11
0.00126818
-1.03773e-11
0.00126818
-6.72096e-12
0.00126818
-9.15705e-12
0.00126818
-1.1396e-11
0.00126818
-1.20301e-11
0.00126818
-1.11674e-11
0.00126818
-1.26675e-11
0.00126818
-1.39473e-11
0.00126818
-1.46641e-11
0.00126818
-1.60411e-11
0.00126818
-1.89928e-11
0.00126818
-2.22867e-11
0.00126818
-1.30108e-11
0.00126818
-1.57777e-11
0.00126818
1.50459e-11
0.00126818
-9.82211e-11
-3.85357e-10
0.0012177
-4.16431e-10
0.0012177
-2.40428e-10
0.0012177
-1.81695e-10
0.0012177
-1.43772e-10
0.0012177
-3.66631e-11
0.0012177
4.43759e-11
0.0012177
2.16827e-11
0.0012177
-3.00934e-11
0.0012177
-2.86945e-11
0.0012177
5.75866e-11
0.0012177
2.0497e-10
0.0012177
3.1058e-10
0.0012177
3.0693e-10
0.0012177
2.45746e-10
0.0012177
1.77538e-10
0.0012177
1.1445e-10
0.0012177
6.46221e-11
0.0012177
2.84263e-11
0.0012177
4.18306e-12
0.0012177
-8.56523e-12
0.0012177
-1.38574e-11
0.0012177
-1.87329e-11
0.0012177