/*--------------------------------*- C++ -*----------------------------------*\
  =========                 |
  \\      /  F ield         | OpenFOAM: The Open Source CFD Toolbox
   \\    /   O peration     | Website:  https://openfoam.org
    \\  /    A nd           | Version:  dev
     \\/     M anipulation  |

   OpenFOAM for Windows 20.09 (v1)
   Built by CFD Support, www.cfdsupport.com (based on Symscape).
\*---------------------------------------------------------------------------*/
FoamFile
{
    version     2.0;
    format      ascii;
    class       volVectorField;
    location    "10";
    object      U;
}
// * * * * * * * * * * * * * * * * * * * * * * * * * * * * * * * * * * * * * //

dimensions      [0 1 -1 0 0 0 0];

internalField   nonuniform List<vector> 
1600
(
(0.109038 -6.30122e-09 0)
(0.109038 2.39072e-09 0)
(0.109038 3.97977e-09 0)
(0.109038 4.67737e-09 0)
(0.109038 5.36787e-09 0)
(0.109038 3.15223e-09 0)
(0.109038 1.60313e-09 0)
(0.109038 2.50083e-09 0)
(0.109038 1.80113e-09 0)
(0.109038 4.07833e-10 0)
(0.109038 -1.45324e-10 0)
(0.109038 -2.72367e-09 0)
(0.109038 -4.93663e-09 0)
(0.109038 -3.9691e-09 0)
(0.109038 -1.12238e-09 0)
(0.109038 6.66743e-10 0)
(0.109038 1.02189e-09 0)
(0.109038 7.19093e-10 0)
(0.109038 2.12266e-10 0)
(0.109038 1.68671e-10 0)
(0.109038 8.94039e-11 0)
(0.109038 1.42255e-10 0)
(0.109038 1.34268e-10 0)
(0.109038 -1.02552e-10 0)
(0.109038 -1.10627e-10 0)
(0.109038 -1.70711e-10 0)
(0.109038 -1.26094e-12 0)
(0.109038 -8.83404e-12 0)
(0.109038 1.85987e-11 0)
(0.109038 2.72343e-10 0)
(0.109038 -1.47868e-10 0)
(0.109038 1.46447e-10 0)
(0.109038 -2.24938e-10 0)
(0.109038 2.4755e-10 0)
(0.109038 -2.98133e-10 0)
(0.109038 -1.65794e-10 0)
(0.109038 4.96734e-10 0)
(0.109038 -1.26253e-09 0)
(0.109038 6.36827e-11 0)
(0.109038 -5.69781e-09 0)
(0.119451 -1.27925e-08 0)
(0.119451 -3.76538e-09 0)
(0.119451 -1.89833e-09 0)
(0.119451 1.76001e-09 0)
(0.119451 4.85549e-09 0)
(0.119451 7.88744e-09 0)
(0.119451 1.24832e-08 0)
(0.119451 1.16587e-08 0)
(0.119451 5.54484e-09 0)
(0.119451 -1.33934e-10 0)
(0.119451 -3.634e-09 0)
(0.119451 -4.6605e-09 0)
(0.119451 -8.0796e-10 0)
(0.119451 3.49142e-09 0)
(0.119451 4.26001e-09 0)
(0.119451 3.1466e-09 0)
(0.119451 1.99912e-09 0)
(0.119451 1.04888e-09 0)
(0.119451 2.4367e-10 0)
(0.119451 1.24176e-10 0)
(0.119451 -2.05681e-10 0)
(0.119451 -3.96868e-10 0)
(0.119451 -5.20741e-10 0)
(0.119451 -7.21079e-10 0)
(0.119451 -6.77169e-10 0)
(0.119451 -6.41352e-10 0)
(0.119451 -4.49055e-10 0)
(0.119451 -4.02607e-10 0)
(0.119451 -1.85435e-10 0)
(0.119451 -1.91787e-10 0)
(0.119451 -7.46881e-10 0)
(0.119451 -2.35348e-10 0)
(0.119451 -6.3381e-10 0)
(0.119451 -2.23048e-10 0)
(0.119451 -1.23419e-09 0)
(0.119451 -1.78944e-10 0)
(0.119451 -1.65377e-09 0)
(0.119451 -8.57607e-10 0)
(0.119451 -3.56401e-09 0)
(0.119451 -1.65314e-08 0)
(0.123414 -5.3505e-09 0)
(0.123414 6.57183e-09 0)
(0.123414 2.45414e-09 0)
(0.123414 3.55235e-09 0)
(0.123414 6.15959e-09 0)
(0.123414 8.36072e-09 0)
(0.123414 1.18579e-08 0)
(0.123414 1.13205e-08 0)
(0.123414 5.87239e-09 0)
(0.123414 4.57391e-10 0)
(0.123414 -3.17864e-09 0)
(0.123414 -6.12308e-09 0)
(0.123414 -5.44496e-09 0)
(0.123414 -8.73757e-10 0)
(0.123414 2.26694e-09 0)
(0.123414 2.78807e-09 0)
(0.123414 2.20778e-09 0)
(0.123414 1.34208e-09 0)
(0.123414 5.56263e-10 0)
(0.123414 3.43366e-10 0)
(0.123414 9.77474e-13 0)
(0.123414 -1.95642e-10 0)
(0.123414 -3.74495e-10 0)
(0.123414 -6.57593e-10 0)
(0.123414 -6.39358e-10 0)
(0.123414 -5.46445e-10 0)
(0.123414 -3.02086e-10 0)
(0.123414 -2.47687e-10 0)
(0.123414 -3.62759e-11 0)
(0.123414 -6.19184e-11 0)
(0.123414 -5.14182e-10 0)
(0.123414 -5.98979e-11 0)
(0.123414 -5.61383e-10 0)
(0.123414 -2.75895e-10 0)
(0.123414 -1.30315e-09 0)
(0.123414 -1.74639e-10 0)
(0.123414 -2.53488e-09 0)
(0.123414 3.51967e-10 0)
(0.123414 -1.11825e-08 0)
(0.123414 -2.59641e-08 0)
(0.125811 5.96061e-09 0)
(0.125811 1.18171e-08 0)
(0.125811 2.83104e-09 0)
(0.125811 3.91373e-09 0)
(0.125811 6.23555e-09 0)
(0.125811 7.09788e-09 0)
(0.125811 9.71054e-09 0)
(0.125811 9.97463e-09 0)
(0.125811 5.84271e-09 0)
(0.125811 1.01942e-09 0)
(0.125811 -2.91159e-09 0)
(0.125811 -7.38775e-09 0)
(0.125811 -8.3557e-09 0)
(0.125811 -3.83114e-09 0)
(0.125811 7.46842e-10 0)
(0.125811 2.34014e-09 0)
(0.125811 2.15334e-09 0)
(0.125811 1.55291e-09 0)
(0.125811 7.51414e-10 0)
(0.125811 4.82467e-10 0)
(0.125811 1.90701e-10 0)
(0.125811 -2.79199e-11 0)
(0.125811 -2.12242e-10 0)
(0.125811 -4.47905e-10 0)
(0.125811 -4.48429e-10 0)
(0.125811 -2.86567e-10 0)
(0.125811 -8.69393e-11 0)
(0.125811 -1.23887e-10 0)
(0.125811 7.2505e-11 0)
(0.125811 6.33321e-11 0)
(0.125811 -2.89819e-10 0)
(0.125811 -2.7831e-11 0)
(0.125811 -5.26336e-10 0)
(0.125811 -3.58131e-10 0)
(0.125811 -1.17297e-09 0)
(0.125811 -2.80375e-10 0)
(0.125811 -2.75951e-09 0)
(0.125811 -5.21761e-10 0)
(0.125811 -1.78069e-08 0)
(0.125811 -2.49734e-08 0)
(0.127538 1.51536e-08 0)
(0.127538 1.22965e-08 0)
(0.127538 2.01732e-09 0)
(0.127538 3.7594e-09 0)
(0.127538 5.23707e-09 0)
(0.127538 4.59626e-09 0)
(0.127538 6.63085e-09 0)
(0.127538 7.98552e-09 0)
(0.127538 5.61627e-09 0)
(0.127538 1.78134e-09 0)
(0.127538 -2.28925e-09 0)
(0.127538 -8.01149e-09 0)
(0.127538 -1.04706e-08 0)
(0.127538 -6.27166e-09 0)
(0.127538 -9.22266e-10 0)
(0.127538 1.54074e-09 0)
(0.127538 1.88242e-09 0)
(0.127538 1.55631e-09 0)
(0.127538 8.28035e-10 0)
(0.127538 6.2536e-10 0)
(0.127538 4.25693e-10 0)
(0.127538 1.88934e-10 0)
(0.127538 5.36311e-11 0)
(0.127538 -1.91002e-10 0)
(0.127538 -1.20724e-10 0)
(0.127538 -9.41001e-12 0)
(0.127538 1.34176e-10 0)
(0.127538 7.85955e-11 0)
(0.127538 1.46847e-10 0)
(0.127538 1.67223e-10 0)
(0.127538 -1.72618e-10 0)
(0.127538 -5.10388e-11 0)
(0.127538 -4.52977e-10 0)
(0.127538 -3.51542e-10 0)
(0.127538 -9.05322e-10 0)
(0.127538 -4.4578e-10 0)
(0.127538 -2.59452e-09 0)
(0.127538 -2.39711e-09 0)
(0.127538 -2.02144e-08 0)
(0.127538 -1.68472e-08 0)
(0.128875 1.97366e-08 0)
(0.128875 1.02177e-08 0)
(0.128875 1.2184e-09 0)
(0.128875 3.46136e-09 0)
(0.128875 3.47979e-09 0)
(0.128875 1.32636e-09 0)
(0.128875 3.15007e-09 0)
(0.128875 5.84139e-09 0)
(0.128875 5.38247e-09 0)
(0.128875 2.76873e-09 0)
(0.128875 -1.24114e-09 0)
(0.128875 -7.98757e-09 0)
(0.128875 -1.18092e-08 0)
(0.128875 -8.26222e-09 0)
(0.128875 -2.61043e-09 0)
(0.128875 4.83134e-10 0)
(0.128875 1.36386e-09 0)
(0.128875 1.38169e-09 0)
(0.128875 8.87107e-10 0)
(0.128875 7.40585e-10 0)
(0.128875 6.20853e-10 0)
(0.128875 4.82566e-10 0)
(0.128875 3.23343e-10 0)
(0.128875 1.35486e-10 0)
(0.128875 1.11364e-10 0)
(0.128875 2.15679e-10 0)
(0.128875 3.42274e-10 0)
(0.128875 1.98196e-10 0)
(0.128875 2.16316e-10 0)
(0.128875 2.00137e-10 0)
(0.128875 -8.18242e-11 0)
(0.128875 -3.3848e-11 0)
(0.128875 -2.82296e-10 0)
(0.128875 -1.86506e-10 0)
(0.128875 -6.40795e-10 0)
(0.128875 -5.98172e-10 0)
(0.128875 -2.18582e-09 0)
(0.128875 -4.06165e-09 0)
(0.128875 -1.79855e-08 0)
(0.128875 -6.345e-09 0)
(0.12994 2.06171e-08 0)
(0.12994 7.56522e-09 0)
(0.12994 9.17133e-10 0)
(0.12994 2.98943e-09 0)
(0.12994 1.15538e-09 0)
(0.12994 -2.1493e-09 0)
(0.12994 -1.75001e-10 0)
(0.12994 3.88395e-09 0)
(0.12994 5.25102e-09 0)
(0.12994 3.86046e-09 0)
(0.12994 -2.27772e-11 0)
(0.12994 -7.52591e-09 0)
(0.12994 -1.24535e-08 0)
(0.12994 -9.7247e-09 0)
(0.12994 -4.17745e-09 0)
(0.12994 -6.79551e-10 0)
(0.12994 6.92305e-10 0)
(0.12994 1.10102e-09 0)
(0.12994 8.48412e-10 0)
(0.12994 8.63753e-10 0)
(0.12994 8.78834e-10 0)
(0.12994 7.27818e-10 0)
(0.12994 5.83751e-10 0)
(0.12994 3.45892e-10 0)
(0.12994 2.86223e-10 0)
(0.12994 3.73677e-10 0)
(0.12994 4.07746e-10 0)
(0.12994 2.6565e-10 0)
(0.12994 2.53327e-10 0)
(0.12994 2.6492e-10 0)
(0.12994 2.12485e-11 0)
(0.12994 6.98694e-11 0)
(0.12994 -9.02089e-12 0)
(0.12994 -9.41468e-11 0)
(0.12994 -3.86202e-10 0)
(0.12994 -6.33668e-10 0)
(0.12994 -1.65507e-09 0)
(0.12994 -4.79434e-09 0)
(0.12994 -1.30484e-08 0)
(0.12994 3.276e-09 0)
(0.130796 1.93496e-08 0)
(0.130796 5.31653e-09 0)
(0.130796 9.80593e-10 0)
(0.130796 2.29736e-09 0)
(0.130796 -1.26809e-09 0)
(0.130796 -5.26484e-09 0)
(0.130796 -2.9947e-09 0)
(0.130796 2.17502e-09 0)
(0.130796 5.11732e-09 0)
(0.130796 4.8741e-09 0)
(0.130796 1.13262e-09 0)
(0.130796 -6.81709e-09 0)
(0.130796 -1.24945e-08 0)
(0.130796 -1.06147e-08 0)
(0.130796 -5.49936e-09 0)
(0.130796 -1.83706e-09 0)
(0.130796 -4.0876e-11 0)
(0.130796 7.33861e-10 0)
(0.130796 7.91553e-10 0)
(0.130796 9.53253e-10 0)
(0.130796 1.00626e-09 0)
(0.130796 9.21522e-10 0)
(0.130796 7.66364e-10 0)
(0.130796 4.97321e-10 0)
(0.130796 4.13917e-10 0)
(0.130796 3.97825e-10 0)
(0.130796 4.26804e-10 0)
(0.130796 3.29358e-10 0)
(0.130796 3.01465e-10 0)
(0.130796 3.30827e-10 0)
(0.130796 1.61807e-10 0)
(0.130796 2.49127e-10 0)
(0.130796 1.73092e-10 0)
(0.130796 6.74237e-11 0)
(0.130796 -1.34509e-10 0)
(0.130796 -5.32946e-10 0)
(0.130796 -1.00264e-09 0)
(0.130796 -4.56126e-09 0)
(0.130796 -7.19475e-09 0)
(0.130796 1.0478e-08 0)
(0.131484 1.72433e-08 0)
(0.131484 3.72033e-09 0)
(0.131484 1.17441e-09 0)
(0.131484 1.53971e-09 0)
(0.131484 -3.35852e-09 0)
(0.131484 -7.66325e-09 0)
(0.131484 -5.15188e-09 0)
(0.131484 7.90165e-10 0)
(0.131484 4.91995e-09 0)
(0.131484 5.55733e-09 0)
(0.131484 1.98444e-09 0)
(0.131484 -6.0342e-09 0)
(0.131484 -1.20502e-08 0)
(0.131484 -1.09898e-08 0)
(0.131484 -6.49326e-09 0)
(0.131484 -2.84862e-09 0)
(0.131484 -7.62356e-10 0)
(0.131484 3.20268e-10 0)
(0.131484 6.72445e-10 0)
(0.131484 9.46195e-10 0)
(0.131484 1.0502e-09 0)
(0.131484 1.01414e-09 0)
(0.131484 8.75966e-10 0)
(0.131484 6.08791e-10 0)
(0.131484 4.48251e-10 0)
(0.131484 4.16808e-10 0)
(0.131484 4.51474e-10 0)
(0.131484 3.65042e-10 0)
(0.131484 3.6591e-10 0)
(0.131484 3.91057e-10 0)
(0.131484 3.00668e-10 0)
(0.131484 4.00547e-10 0)
(0.131484 3.94553e-10 0)
(0.131484 1.84429e-10 0)
(0.131484 3.80039e-11 0)
(0.131484 -2.94774e-10 0)
(0.131484 -2.80683e-10 0)
(0.131484 -3.54104e-09 0)
(0.131484 -1.82763e-09 0)
(0.131484 1.51109e-08 0)
(0.132029 1.50935e-08 0)
(0.132029 2.82394e-09 0)
(0.132029 1.33821e-09 0)
(0.132029 7.81794e-10 0)
(0.132029 -4.85199e-09 0)
(0.132029 -9.12918e-09 0)
(0.132029 -6.55564e-09 0)
(0.132029 -2.98502e-10 0)
(0.132029 4.53702e-09 0)
(0.132029 5.74196e-09 0)
(0.132029 2.406e-09 0)
(0.132029 -5.26677e-09 0)
(0.132029 -1.12553e-08 0)
(0.132029 -1.08691e-08 0)
(0.132029 -7.11352e-09 0)
(0.132029 -3.6737e-09 0)
(0.132029 -1.42704e-09 0)
(0.132029 -1.4029e-10 0)
(0.132029 4.64904e-10 0)
(0.132029 8.46424e-10 0)
(0.132029 1.01768e-09 0)
(0.132029 1.05154e-09 0)
(0.132029 9.10162e-10 0)
(0.132029 6.70435e-10 0)
(0.132029 4.9551e-10 0)
(0.132029 4.58187e-10 0)
(0.132029 4.73306e-10 0)
(0.132029 3.96726e-10 0)
(0.132029 4.22373e-10 0)
(0.132029 4.57327e-10 0)
(0.132029 4.5157e-10 0)
(0.132029 5.27554e-10 0)
(0.132029 4.59318e-10 0)
(0.132029 2.48377e-10 0)
(0.132029 2.74737e-10 0)
(0.132029 5.11984e-11 0)
(0.132029 3.99107e-10 0)
(0.132029 -2.06834e-09 0)
(0.132029 2.45739e-09 0)
(0.132029 1.73875e-08 0)
(0.132454 1.32912e-08 0)
(0.132454 2.47744e-09 0)
(0.132454 1.38866e-09 0)
(0.132454 1.22005e-10 0)
(0.132454 -5.64462e-09 0)
(0.132454 -9.65716e-09 0)
(0.132454 -7.22554e-09 0)
(0.132454 -1.13113e-09 0)
(0.132454 3.89387e-09 0)
(0.132454 5.41351e-09 0)
(0.132454 2.40661e-09 0)
(0.132454 -4.5989e-09 0)
(0.132454 -1.02089e-08 0)
(0.132454 -1.03793e-08 0)
(0.132454 -7.35742e-09 0)
(0.132454 -4.22149e-09 0)
(0.132454 -2.00025e-09 0)
(0.132454 -5.8911e-10 0)
(0.132454 1.91946e-10 0)
(0.132454 6.83686e-10 0)
(0.132454 9.3517e-10 0)
(0.132454 1.0052e-09 0)
(0.132454 9.28942e-10 0)
(0.132454 7.03056e-10 0)
(0.132454 5.35394e-10 0)
(0.132454 4.88728e-10 0)
(0.132454 4.7811e-10 0)
(0.132454 4.36635e-10 0)
(0.132454 4.79948e-10 0)
(0.132454 5.18852e-10 0)
(0.132454 5.15466e-10 0)
(0.132454 5.54757e-10 0)
(0.132454 5.08408e-10 0)
(0.132454 3.50976e-10 0)
(0.132454 4.71447e-10 0)
(0.132454 4.15299e-10 0)
(0.132454 1.05247e-09 0)
(0.132454 -4.96363e-10 0)
(0.132454 5.35996e-09 0)
(0.132454 1.7905e-08 0)
(0.132778 1.18732e-08 0)
(0.132778 2.50318e-09 0)
(0.132778 1.35046e-09 0)
(0.132778 -3.461e-10 0)
(0.132778 -5.77711e-09 0)
(0.132778 -9.37614e-09 0)
(0.132778 -7.26809e-09 0)
(0.132778 -1.73789e-09 0)
(0.132778 3.0457e-09 0)
(0.132778 4.63924e-09 0)
(0.132778 2.04039e-09 0)
(0.132778 -4.03982e-09 0)
(0.132778 -9.03499e-09 0)
(0.132778 -9.55237e-09 0)
(0.132778 -7.22709e-09 0)
(0.132778 -4.54536e-09 0)
(0.132778 -2.45005e-09 0)
(0.132778 -9.96654e-10 0)
(0.132778 -8.38599e-11 0)
(0.132778 4.89632e-10 0)
(0.132778 8.06683e-10 0)
(0.132778 9.31703e-10 0)
(0.132778 8.71217e-10 0)
(0.132778 6.93533e-10 0)
(0.132778 5.58708e-10 0)
(0.132778 4.93187e-10 0)
(0.132778 4.77215e-10 0)
(0.132778 4.73574e-10 0)
(0.132778 5.02839e-10 0)
(0.132778 5.23742e-10 0)
(0.132778 5.46262e-10 0)
(0.132778 5.71573e-10 0)
(0.132778 5.27185e-10 0)
(0.132778 4.24809e-10 0)
(0.132778 6.53222e-10 0)
(0.132778 7.57997e-10 0)
(0.132778 1.58389e-09 0)
(0.132778 9.52979e-10 0)
(0.132778 7.00621e-09 0)
(0.132778 1.71413e-08 0)
(0.133018 1.07395e-08 0)
(0.133018 2.75292e-09 0)
(0.133018 1.28993e-09 0)
(0.133018 -6.11367e-10 0)
(0.133018 -5.38081e-09 0)
(0.133018 -8.4849e-09 0)
(0.133018 -6.822e-09 0)
(0.133018 -2.14755e-09 0)
(0.133018 2.08225e-09 0)
(0.133018 3.59664e-09 0)
(0.133018 1.4519e-09 0)
(0.133018 -3.568e-09 0)
(0.133018 -7.79026e-09 0)
(0.133018 -8.52054e-09 0)
(0.133018 -6.84192e-09 0)
(0.133018 -4.62435e-09 0)
(0.133018 -2.72174e-09 0)
(0.133018 -1.30909e-09 0)
(0.133018 -3.45539e-10 0)
(0.133018 2.83082e-10 0)
(0.133018 6.3772e-10 0)
(0.133018 7.86286e-10 0)
(0.133018 7.79327e-10 0)
(0.133018 6.59953e-10 0)
(0.133018 5.30803e-10 0)
(0.133018 4.65797e-10 0)
(0.133018 4.64074e-10 0)
(0.133018 4.72902e-10 0)
(0.133018 4.9486e-10 0)
(0.133018 5.14445e-10 0)
(0.133018 5.36407e-10 0)
(0.133018 5.44457e-10 0)
(0.133018 5.29227e-10 0)
(0.133018 5.06036e-10 0)
(0.133018 8.00164e-10 0)
(0.133018 1.03979e-09 0)
(0.133018 1.97812e-09 0)
(0.133018 2.06436e-09 0)
(0.133018 7.58968e-09 0)
(0.133018 1.55799e-08 0)
(0.133189 9.71868e-09 0)
(0.133189 3.05406e-09 0)
(0.133189 1.25948e-09 0)
(0.133189 -6.53046e-10 0)
(0.133189 -4.63323e-09 0)
(0.133189 -7.23127e-09 0)
(0.133189 -6.04567e-09 0)
(0.133189 -2.3422e-09 0)
(0.133189 1.15869e-09 0)
(0.133189 2.47746e-09 0)
(0.133189 8.01141e-10 0)
(0.133189 -3.14657e-09 0)
(0.133189 -6.56979e-09 0)
(0.133189 -7.39068e-09 0)
(0.133189 -6.23804e-09 0)
(0.133189 -4.47357e-09 0)
(0.133189 -2.8281e-09 0)
(0.133189 -1.52244e-09 0)
(0.133189 -5.75328e-10 0)
(0.133189 6.14607e-11 0)
(0.133189 4.3977e-10 0)
(0.133189 6.24235e-10 0)
(0.133189 6.46012e-10 0)
(0.133189 5.67205e-10 0)
(0.133189 4.75282e-10 0)
(0.133189 4.25717e-10 0)
(0.133189 4.27763e-10 0)
(0.133189 4.39247e-10 0)
(0.133189 4.60998e-10 0)
(0.133189 4.73219e-10 0)
(0.133189 4.90428e-10 0)
(0.133189 5.05983e-10 0)
(0.133189 5.26192e-10 0)
(0.133189 5.65997e-10 0)
(0.133189 8.89415e-10 0)
(0.133189 1.21989e-09 0)
(0.133189 2.17664e-09 0)
(0.133189 2.77161e-09 0)
(0.133189 7.42022e-09 0)
(0.133189 1.35741e-08 0)
(0.133308 8.65534e-09 0)
(0.133308 3.27947e-09 0)
(0.133308 1.27632e-09 0)
(0.133308 -5.40347e-10 0)
(0.133308 -3.71076e-09 0)
(0.133308 -5.81053e-09 0)
(0.133308 -5.05881e-09 0)
(0.133308 -2.3064e-09 0)
(0.133308 4.09247e-10 0)
(0.133308 1.47806e-09 0)
(0.133308 2.28491e-10 0)
(0.133308 -2.75197e-09 0)
(0.133308 -5.42401e-09 0)
(0.133308 -6.2333e-09 0)
(0.133308 -5.49212e-09 0)
(0.133308 -4.14403e-09 0)
(0.133308 -2.78173e-09 0)
(0.133308 -1.63388e-09 0)
(0.133308 -7.55629e-10 0)
(0.133308 -1.44847e-10 0)
(0.133308 2.35525e-10 0)
(0.133308 4.31134e-10 0)
(0.133308 4.88138e-10 0)
(0.133308 4.5716e-10 0)
(0.133308 3.97467e-10 0)
(0.133308 3.6525e-10 0)
(0.133308 3.6661e-10 0)
(0.133308 3.808e-10 0)
(0.133308 3.99008e-10 0)
(0.133308 4.06349e-10 0)
(0.133308 4.27346e-10 0)
(0.133308 4.51258e-10 0)
(0.133308 4.96887e-10 0)
(0.133308 5.82515e-10 0)
(0.133308 9.0071e-10 0)
(0.133308 1.28377e-09 0)
(0.133308 2.20141e-09 0)
(0.133308 3.07007e-09 0)
(0.133308 6.74154e-09 0)
(0.133308 1.13801e-08 0)
(0.133386 7.46726e-09 0)
(0.133386 3.31501e-09 0)
(0.133386 1.30285e-09 0)
(0.133386 -3.18737e-10 0)
(0.133386 -2.7409e-09 0)
(0.133386 -4.37701e-09 0)
(0.133386 -3.96263e-09 0)
(0.133386 -2.03977e-09 0)
(0.133386 -6.23231e-11 0)
(0.133386 7.33819e-10 0)
(0.133386 -1.78282e-10 0)
(0.133386 -2.35183e-09 0)
(0.133386 -4.36521e-09 0)
(0.133386 -5.10105e-09 0)
(0.133386 -4.66642e-09 0)
(0.133386 -3.68416e-09 0)
(0.133386 -2.60699e-09 0)
(0.133386 -1.64547e-09 0)
(0.133386 -8.77931e-10 0)
(0.133386 -3.21326e-10 0)
(0.133386 4.12129e-11 0)
(0.133386 2.42838e-10 0)
(0.133386 3.2474e-10 0)
(0.133386 3.29117e-10 0)
(0.133386 3.03223e-10 0)
(0.133386 2.86423e-10 0)
(0.133386 2.89804e-10 0)
(0.133386 3.03234e-10 0)
(0.133386 3.1705e-10 0)
(0.133386 3.24573e-10 0)
(0.133386 3.43964e-10 0)
(0.133386 3.72649e-10 0)
(0.133386 4.33032e-10 0)
(0.133386 5.37581e-10 0)
(0.133386 8.33411e-10 0)
(0.133386 1.22484e-09 0)
(0.133386 2.0507e-09 0)
(0.133386 3.00448e-09 0)
(0.133386 5.75407e-09 0)
(0.133386 9.16503e-09 0)
(0.133435 6.12873e-09 0)
(0.133435 3.11263e-09 0)
(0.133435 1.30557e-09 0)
(0.133435 -5.00351e-11 0)
(0.133435 -1.81492e-09 0)
(0.133435 -3.02327e-09 0)
(0.133435 -2.82828e-09 0)
(0.133435 -1.56463e-09 0)
(0.133435 -2.2451e-10 0)
(0.133435 3.04197e-10 0)
(0.133435 -3.60362e-10 0)
(0.133435 -1.906e-09 0)
(0.133435 -3.38566e-09 0)
(0.133435 -4.02215e-09 0)
(0.133435 -3.80982e-09 0)
(0.133435 -3.13778e-09 0)
(0.133435 -2.33251e-09 0)
(0.133435 -1.57123e-09 0)
(0.133435 -9.34993e-10 0)
(0.133435 -4.53841e-10 0)
(0.133435 -1.26995e-10 0)
(0.133435 6.74291e-11 0)
(0.133435 1.63535e-10 0)
(0.133435 1.96291e-10 0)
(0.133435 1.97783e-10 0)
(0.133435 1.95734e-10 0)
(0.133435 2.01866e-10 0)
(0.133435 2.1262e-10 0)
(0.133435 2.2277e-10 0)
(0.133435 2.2662e-10 0)
(0.133435 2.41873e-10 0)
(0.133435 2.69212e-10 0)
(0.133435 3.28913e-10 0)
(0.133435 4.34118e-10 0)
(0.133435 6.86941e-10 0)
(0.133435 1.05066e-09 0)
(0.133435 1.74683e-09 0)
(0.133435 2.63381e-09 0)
(0.133435 4.59296e-09 0)
(0.133435 7.0245e-09 0)
(0.133465 4.67045e-09 0)
(0.133465 2.68259e-09 0)
(0.133465 1.25548e-09 0)
(0.133465 2.19249e-10 0)
(0.133465 -9.76446e-10 0)
(0.133465 -1.78907e-09 0)
(0.133465 -1.70231e-09 0)
(0.133465 -9.23463e-10 0)
(0.133465 -9.22132e-11 0)
(0.133465 1.99694e-10 0)
(0.133465 -3.02922e-10 0)
(0.133465 -1.39408e-09 0)
(0.133465 -2.46865e-09 0)
(0.133465 -3.00641e-09 0)
(0.133465 -2.95479e-09 0)
(0.133465 -2.54073e-09 0)
(0.133465 -1.98443e-09 0)
(0.133465 -1.42348e-09 0)
(0.133465 -9.31453e-10 0)
(0.133465 -5.42977e-10 0)
(0.133465 -2.65914e-10 0)
(0.133465 -8.81525e-11 0)
(0.133465 1.43875e-11 0)
(0.133465 6.58175e-11 0)
(0.133465 8.72717e-11 0)
(0.133465 9.73904e-11 0)
(0.133465 1.06116e-10 0)
(0.133465 1.13691e-10 0)
(0.133465 1.17408e-10 0)
(0.133465 1.16069e-10 0)
(0.133465 1.23497e-10 0)
(0.133465 1.43416e-10 0)
(0.133465 1.9008e-10 0)
(0.133465 2.76908e-10 0)
(0.133465 4.7419e-10 0)
(0.133465 7.72869e-10 0)
(0.133465 1.30437e-09 0)
(0.133465 2.02329e-09 0)
(0.133465 3.33641e-09 0)
(0.133465 4.99648e-09 0)
(0.133481 3.13748e-09 0)
(0.133481 2.07306e-09 0)
(0.133481 1.14289e-09 0)
(0.133481 4.6272e-10 0)
(0.133481 -2.34114e-10 0)
(0.133481 -6.75356e-10 0)
(0.133481 -6.04123e-10 0)
(0.133481 -1.57889e-10 0)
(0.133481 2.86418e-10 0)
(0.133481 3.7851e-10 0)
(0.133481 -3.07117e-11 0)
(0.133481 -8.09571e-10 0)
(0.133481 -1.59171e-09 0)
(0.133481 -2.04765e-09 0)
(0.133481 -2.11539e-09 0)
(0.133481 -1.91599e-09 0)
(0.133481 -1.58599e-09 0)
(0.133481 -1.22114e-09 0)
(0.133481 -8.79528e-10 0)
(0.133481 -5.93099e-10 0)
(0.133481 -3.74422e-10 0)
(0.133481 -2.20978e-10 0)
(0.133481 -1.20264e-10 0)
(0.133481 -5.80901e-11 0)
(0.133481 -2.25645e-11 0)
(0.133481 -3.28917e-12 0)
(0.133481 6.50301e-12 0)
(0.133481 9.02488e-12 0)
(0.133481 5.02629e-12 0)
(0.133481 -3.77396e-12 0)
(0.133481 -6.91925e-12 0)
(0.133481 -1.72855e-12 0)
(0.133481 2.2079e-11 0)
(0.133481 7.67313e-11 0)
(0.133481 2.02517e-10 0)
(0.133481 4.04401e-10 0)
(0.133481 7.47923e-10 0)
(0.133481 1.23635e-09 0)
(0.133481 2.01804e-09 0)
(0.133481 3.06866e-09 0)
(0.133488 1.55455e-09 0)
(0.133488 1.34547e-09 0)
(0.133488 9.76645e-10 0)
(0.133488 6.69317e-10 0)
(0.133488 4.25992e-10 0)
(0.133488 3.4776e-10 0)
(0.133488 4.7458e-10 0)
(0.133488 7.00156e-10 0)
(0.133488 8.49218e-10 0)
(0.133488 7.7229e-10 0)
(0.133488 4.12437e-10 0)
(0.133488 -1.54206e-10 0)
(0.133488 -7.30112e-10 0)
(0.133488 -1.12614e-09 0)
(0.133488 -1.29031e-09 0)
(0.133488 -1.27613e-09 0)
(0.133488 -1.15421e-09 0)
(0.133488 -9.79588e-10 0)
(0.133488 -7.90382e-10 0)
(0.133488 -6.11128e-10 0)
(0.133488 -4.56721e-10 0)
(0.133488 -3.33502e-10 0)
(0.133488 -2.40296e-10 0)
(0.133488 -1.72522e-10 0)
(0.133488 -1.27291e-10 0)
(0.133488 -1.01861e-10 0)
(0.133488 -9.31251e-11 0)
(0.133488 -9.76922e-11 0)
(0.133488 -1.1124e-10 0)
(0.133488 -1.29716e-10 0)
(0.133488 -1.4682e-10 0)
(0.133488 -1.6043e-10 0)
(0.133488 -1.66765e-10 0)
(0.133488 -1.56461e-10 0)
(0.133488 -1.13792e-10 0)
(0.133488 -3.07049e-11 0)
(0.133488 1.04975e-10 0)
(0.133488 3.22881e-10 0)
(0.133488 6.3528e-10 0)
(0.133488 1.17943e-09 0)
(0.133488 -5.4843e-11 0)
(0.133488 5.67363e-10 0)
(0.133488 7.66601e-10 0)
(0.133488 8.20388e-10 0)
(0.133488 1.01086e-09 0)
(0.133488 1.30763e-09 0)
(0.133488 1.53978e-09 0)
(0.133488 1.61047e-09 0)
(0.133488 1.51918e-09 0)
(0.133488 1.29686e-09 0)
(0.133488 9.66339e-10 0)
(0.133488 5.54356e-10 0)
(0.133488 1.29267e-10 0)
(0.133488 -2.2605e-10 0)
(0.133488 -4.76572e-10 0)
(0.133488 -6.30666e-10 0)
(0.133488 -7.04874e-10 0)
(0.133488 -7.15125e-10 0)
(0.133488 -6.7728e-10 0)
(0.133488 -6.06247e-10 0)
(0.133488 -5.18062e-10 0)
(0.133488 -4.27727e-10 0)
(0.133488 -3.4485e-10 0)
(0.133488 -2.74071e-10 0)
(0.133488 -2.21757e-10 0)
(0.133488 -1.92619e-10 0)
(0.133488 -1.87488e-10 0)
(0.133488 -2.01718e-10 0)
(0.133488 -2.2698e-10 0)
(0.133488 -2.57199e-10 0)
(0.133488 -2.89542e-10 0)
(0.133488 -3.24685e-10 0)
(0.133488 -3.66243e-10 0)
(0.133488 -4.05988e-10 0)
(0.133488 -4.51822e-10 0)
(0.133488 -4.97494e-10 0)
(0.133488 -5.82869e-10 0)
(0.133488 -6.56434e-10 0)
(0.133488 -8.11128e-10 0)
(0.133488 -7.36235e-10 0)
(0.133481 -1.63523e-09 0)
(0.133481 -1.70504e-10 0)
(0.133481 5.25005e-10 0)
(0.133481 8.85886e-10 0)
(0.133481 1.51427e-09 0)
(0.133481 2.21806e-09 0)
(0.133481 2.58147e-09 0)
(0.133481 2.5139e-09 0)
(0.133481 2.19871e-09 0)
(0.133481 1.84945e-09 0)
(0.133481 1.55801e-09 0)
(0.133481 1.28952e-09 0)
(0.133481 9.93574e-10 0)
(0.133481 6.67335e-10 0)
(0.133481 3.31267e-10 0)
(0.133481 1.36517e-11 0)
(0.133481 -2.52259e-10 0)
(0.133481 -4.43849e-10 0)
(0.133481 -5.5416e-10 0)
(0.133481 -5.88098e-10 0)
(0.133481 -5.63359e-10 0)
(0.133481 -5.04296e-10 0)
(0.133481 -4.3175e-10 0)
(0.133481 -3.58131e-10 0)
(0.133481 -2.99336e-10 0)
(0.133481 -2.68099e-10 0)
(0.133481 -2.6952e-10 0)
(0.133481 -2.97093e-10 0)
(0.133481 -3.36724e-10 0)
(0.133481 -3.7985e-10 0)
(0.133481 -4.28003e-10 0)
(0.133481 -4.86033e-10 0)
(0.133481 -5.64323e-10 0)
(0.133481 -6.53068e-10 0)
(0.133481 -7.85278e-10 0)
(0.133481 -9.53921e-10 0)
(0.133481 -1.26282e-09 0)
(0.133481 -1.62896e-09 0)
(0.133481 -2.30292e-09 0)
(0.133481 -2.71725e-09 0)
(0.133465 -3.20388e-09 0)
(0.133465 -8.37423e-10 0)
(0.133465 2.33339e-10 0)
(0.133465 8.36731e-10 0)
(0.133465 1.94299e-09 0)
(0.133465 3.10666e-09 0)
(0.133465 3.602e-09 0)
(0.133465 3.36487e-09 0)
(0.133465 2.80736e-09 0)
(0.133465 2.34999e-09 0)
(0.133465 2.14208e-09 0)
(0.133465 2.05121e-09 0)
(0.133465 1.89287e-09 0)
(0.133465 1.5905e-09 0)
(0.133465 1.15899e-09 0)
(0.133465 6.67818e-10 0)
(0.133465 2.03412e-10 0)
(0.133465 -1.71677e-10 0)
(0.133465 -4.28817e-10 0)
(0.133465 -5.63048e-10 0)
(0.133465 -5.95826e-10 0)
(0.133465 -5.64347e-10 0)
(0.133465 -5.00108e-10 0)
(0.133465 -4.21634e-10 0)
(0.133465 -3.55328e-10 0)
(0.133465 -3.2279e-10 0)
(0.133465 -3.34287e-10 0)
(0.133465 -3.79843e-10 0)
(0.133465 -4.36206e-10 0)
(0.133465 -4.92588e-10 0)
(0.133465 -5.56589e-10 0)
(0.133465 -6.3724e-10 0)
(0.133465 -7.49339e-10 0)
(0.133465 -8.78688e-10 0)
(0.133465 -1.08745e-09 0)
(0.133465 -1.35914e-09 0)
(0.133465 -1.88373e-09 0)
(0.133465 -2.52749e-09 0)
(0.133465 -3.83179e-09 0)
(0.133465 -4.83547e-09 0)
(0.133435 -4.80962e-09 0)
(0.133435 -1.58261e-09 0)
(0.133435 -1.73207e-10 0)
(0.133435 6.17637e-10 0)
(0.133435 2.28405e-09 0)
(0.133435 3.9821e-09 0)
(0.133435 4.58861e-09 0)
(0.133435 4.11413e-09 0)
(0.133435 3.27628e-09 0)
(0.133435 2.74384e-09 0)
(0.133435 2.70705e-09 0)
(0.133435 2.87033e-09 0)
(0.133435 2.87986e-09 0)
(0.133435 2.59599e-09 0)
(0.133435 2.04514e-09 0)
(0.133435 1.35352e-09 0)
(0.133435 6.71468e-10 0)
(0.133435 1.02929e-10 0)
(0.133435 -3.02902e-10 0)
(0.133435 -5.32192e-10 0)
(0.133435 -6.16254e-10 0)
(0.133435 -6.07466e-10 0)
(0.133435 -5.4961e-10 0)
(0.133435 -4.63655e-10 0)
(0.133435 -3.87018e-10 0)
(0.133435 -3.53346e-10 0)
(0.133435 -3.79438e-10 0)
(0.133435 -4.48242e-10 0)
(0.133435 -5.23568e-10 0)
(0.133435 -5.94269e-10 0)
(0.133435 -6.75546e-10 0)
(0.133435 -7.76639e-10 0)
(0.133435 -9.14224e-10 0)
(0.133435 -1.06971e-09 0)
(0.133435 -1.33944e-09 0)
(0.133435 -1.68342e-09 0)
(0.133435 -2.40805e-09 0)
(0.133435 -3.2917e-09 0)
(0.133435 -5.38816e-09 0)
(0.133435 -7.15909e-09 0)
(0.133386 -6.40551e-09 0)
(0.133386 -2.01132e-09 0)
(0.133386 -8.51781e-10 0)
(0.133386 1.69653e-10 0)
(0.133386 2.51305e-09 0)
(0.133386 4.82182e-09 0)
(0.133386 5.49398e-09 0)
(0.133386 4.6923e-09 0)
(0.133386 3.53566e-09 0)
(0.133386 2.99122e-09 0)
(0.133386 3.26304e-09 0)
(0.133386 3.79399e-09 0)
(0.133386 4.01119e-09 0)
(0.133386 3.73232e-09 0)
(0.133386 3.01977e-09 0)
(0.133386 2.08604e-09 0)
(0.133386 1.15776e-09 0)
(0.133386 3.81459e-10 0)
(0.133386 -1.75216e-10 0)
(0.133386 -4.94004e-10 0)
(0.133386 -6.2184e-10 0)
(0.133386 -6.32221e-10 0)
(0.133386 -5.80598e-10 0)
(0.133386 -4.83843e-10 0)
(0.133386 -3.92229e-10 0)
(0.133386 -3.56997e-10 0)
(0.133386 -4.03449e-10 0)
(0.133386 -5.01249e-10 0)
(0.133386 -5.96691e-10 0)
(0.133386 -6.84753e-10 0)
(0.133386 -7.8634e-10 0)
(0.133386 -9.00666e-10 0)
(0.133386 -1.05178e-09 0)
(0.133386 -1.21519e-09 0)
(0.133386 -1.52614e-09 0)
(0.133386 -1.90031e-09 0)
(0.133386 -2.79205e-09 0)
(0.133386 -3.85119e-09 0)
(0.133386 -6.92915e-09 0)
(0.133386 -9.67883e-09 0)
(0.133308 -8.07906e-09 0)
(0.133308 -2.58516e-09 0)
(0.133308 -1.51136e-09 0)
(0.133308 -5.36762e-10 0)
(0.133308 2.60082e-09 0)
(0.133308 5.5709e-09 0)
(0.133308 6.23925e-09 0)
(0.133308 5.01633e-09 0)
(0.133308 3.52286e-09 0)
(0.133308 3.07239e-09 0)
(0.133308 3.83956e-09 0)
(0.133308 4.87953e-09 0)
(0.133308 5.341e-09 0)
(0.133308 5.03184e-09 0)
(0.133308 4.0959e-09 0)
(0.133308 2.86654e-09 0)
(0.133308 1.65947e-09 0)
(0.133308 6.62532e-10 0)
(0.133308 -4.51836e-11 0)
(0.133308 -4.44581e-10 0)
(0.133308 -6.09282e-10 0)
(0.133308 -6.39959e-10 0)
(0.133308 -5.97583e-10 0)
(0.133308 -4.84551e-10 0)
(0.133308 -3.69725e-10 0)
(0.133308 -3.332e-10 0)
(0.133308 -4.09059e-10 0)
(0.133308 -5.39196e-10 0)
(0.133308 -6.52327e-10 0)
(0.133308 -7.60371e-10 0)
(0.133308 -8.79864e-10 0)
(0.133308 -1.00207e-09 0)
(0.133308 -1.15178e-09 0)
(0.133308 -1.30568e-09 0)
(0.133308 -1.63845e-09 0)
(0.133308 -1.98701e-09 0)
(0.133308 -3.00723e-09 0)
(0.133308 -4.13356e-09 0)
(0.133308 -8.36678e-09 0)
(0.133308 -1.23568e-08 0)
(0.133189 -9.76382e-09 0)
(0.133189 -3.25975e-09 0)
(0.133189 -2.46544e-09 0)
(0.133189 -1.53356e-09 0)
(0.133189 2.49237e-09 0)
(0.133189 6.14252e-09 0)
(0.133189 6.72151e-09 0)
(0.133189 5.00318e-09 0)
(0.133189 3.19816e-09 0)
(0.133189 2.99663e-09 0)
(0.133189 4.48347e-09 0)
(0.133189 6.18869e-09 0)
(0.133189 6.91212e-09 0)
(0.133189 6.49927e-09 0)
(0.133189 5.25153e-09 0)
(0.133189 3.673e-09 0)
(0.133189 2.1604e-09 0)
(0.133189 9.36081e-10 0)
(0.133189 8.70023e-11 0)
(0.133189 -3.81638e-10 0)
(0.133189 -5.82158e-10 0)
(0.133189 -6.35874e-10 0)
(0.133189 -6.10285e-10 0)
(0.133189 -4.73394e-10 0)
(0.133189 -3.21345e-10 0)
(0.133189 -2.91715e-10 0)
(0.133189 -4.06904e-10 0)
(0.133189 -5.65645e-10 0)
(0.133189 -6.84624e-10 0)
(0.133189 -8.08773e-10 0)
(0.133189 -9.45236e-10 0)
(0.133189 -1.06325e-09 0)
(0.133189 -1.2106e-09 0)
(0.133189 -1.35077e-09 0)
(0.133189 -1.67179e-09 0)
(0.133189 -1.93843e-09 0)
(0.133189 -3.02585e-09 0)
(0.133189 -4.06829e-09 0)
(0.133189 -9.54805e-09 0)
(0.133189 -1.5043e-08 0)
(0.133018 -1.14365e-08 0)
(0.133018 -4.0008e-09 0)
(0.133018 -3.90301e-09 0)
(0.133018 -2.77308e-09 0)
(0.133018 2.13593e-09 0)
(0.133018 6.42791e-09 0)
(0.133018 6.83244e-09 0)
(0.133018 4.58895e-09 0)
(0.133018 2.56529e-09 0)
(0.133018 2.81278e-09 0)
(0.133018 5.26264e-09 0)
(0.133018 7.77143e-09 0)
(0.133018 8.71847e-09 0)
(0.133018 8.08142e-09 0)
(0.133018 6.42901e-09 0)
(0.133018 4.45739e-09 0)
(0.133018 2.62274e-09 0)
(0.133018 1.18287e-09 0)
(0.133018 2.09175e-10 0)
(0.133018 -3.1731e-10 0)
(0.133018 -5.43914e-10 0)
(0.133018 -6.33788e-10 0)
(0.133018 -6.28564e-10 0)
(0.133018 -4.48442e-10 0)
(0.133018 -2.65093e-10 0)
(0.133018 -2.57053e-10 0)
(0.133018 -4.12403e-10 0)
(0.133018 -5.81147e-10 0)
(0.133018 -6.90655e-10 0)
(0.133018 -8.21578e-10 0)
(0.133018 -9.66323e-10 0)
(0.133018 -1.08538e-09 0)
(0.133018 -1.23248e-09 0)
(0.133018 -1.34366e-09 0)
(0.133018 -1.62339e-09 0)
(0.133018 -1.76469e-09 0)
(0.133018 -2.84411e-09 0)
(0.133018 -3.5889e-09 0)
(0.133018 -1.0238e-08 0)
(0.133018 -1.75152e-08 0)
(0.132778 -1.3252e-08 0)
(0.132778 -5.32664e-09 0)
(0.132778 -5.41972e-09 0)
(0.132778 -4.14542e-09 0)
(0.132778 1.54515e-09 0)
(0.132778 6.33401e-09 0)
(0.132778 6.4748e-09 0)
(0.132778 3.7528e-09 0)
(0.132778 1.69046e-09 0)
(0.132778 2.62108e-09 0)
(0.132778 6.22555e-09 0)
(0.132778 9.62526e-09 0)
(0.132778 1.06961e-08 0)
(0.132778 9.66146e-09 0)
(0.132778 7.52698e-09 0)
(0.132778 5.14737e-09 0)
(0.132778 3.0106e-09 0)
(0.132778 1.38173e-09 0)
(0.132778 3.03478e-10 0)
(0.132778 -2.62214e-10 0)
(0.132778 -5.365e-10 0)
(0.132778 -6.66623e-10 0)
(0.132778 -6.7283e-10 0)
(0.132778 -4.38856e-10 0)
(0.132778 -2.14707e-10 0)
(0.132778 -2.49422e-10 0)
(0.132778 -4.35499e-10 0)
(0.132778 -5.84517e-10 0)
(0.132778 -6.60698e-10 0)
(0.132778 -8.05412e-10 0)
(0.132778 -9.52502e-10 0)
(0.132778 -1.0626e-09 0)
(0.132778 -1.20156e-09 0)