/*--------------------------------*- C++ -*----------------------------------*\
  =========                 |
  \\      /  F ield         | OpenFOAM: The Open Source CFD Toolbox
   \\    /   O peration     | Website:  https://openfoam.org
    \\  /    A nd           | Version:  dev
     \\/     M anipulation  |

   OpenFOAM for Windows 20.09 (v1)
   Built by CFD Support, www.cfdsupport.com (based on Symscape).
\*---------------------------------------------------------------------------*/
FoamFile
{
    version     2.0;
    format      ascii;
    class       surfaceScalarField;
    location    "10";
    object      alphaPhi0.water;
}
// * * * * * * * * * * * * * * * * * * * * * * * * * * * * * * * * * * * * * //

dimensions      [0 3 -1 0 0 0 0];

internalField   nonuniform List<scalar> 
217
(
3.47309e-119
-1.09515e-124
3.42925e-119
-6.01658e-125
3.25965e-119
-1.62353e-124
7.93707e-125
2.69855e-119
6.65855e-122
-1.41501e-127
6.61284e-122
-9.40709e-128
6.20514e-122
-2.49398e-127
1.75796e-127
5.09119e-122
1.11455e-124
-1.68977e-130
1.10766e-124
-1.23311e-130
1.02415e-124
-3.15273e-130
2.2003e-130
8.24528e-125
1.59494e-127
-1.29284e-133
1.5783e-127
-1.33307e-133
1.43415e-127
-3.44676e-133
2.44134e-133
1.13428e-127
1.93473e-130
-8.35071e-137
1.8859e-130
-1.1608e-136
1.67054e-130
-3.01705e-136
2.21834e-136
1.32247e-130
1.94185e-133
-1.36225e-140
1.8458e-133
-7.9676e-140
1.57695e-133
-2.20467e-139
1.62415e-139
1.26637e-133
1.55321e-136
1.53801e-143
1.39253e-136
-4.41472e-143
1.22613e-136
-1.30448e-142
9.5041e-143
1.00053e-136
9.47979e-140
1.99287e-146
8.5238e-140
-1.92846e-146
7.82632e-140
-5.82553e-146
4.3009e-146
6.20155e-140
4.58673e-143
9.81195e-150
4.07333e-143
-6.27894e-150
3.72305e-143
-1.89893e-149
1.40602e-149
3.00755e-143
1.5974e-146
3.44058e-153
1.40791e-146
-1.49037e-153
1.31699e-146
-4.36877e-153
3.64706e-153
1.05108e-146
3.94349e-150
7.50875e-157
3.52274e-150
-2.45652e-157
3.34839e-150
-6.87635e-157
6.89587e-157
2.57443e-150
6.54845e-154
2.02662e-157
6.1674e-154
-1.74521e-160
6.05276e-154
-3.29805e-160
2.11521e-157
4.46036e-154
1.07635e-156
1.99177e-160
9.06596e-157
-4.20695e-164
6.74628e-157
-5.30067e-164
1.50738e-160
6.84085e-157
3.48803e-160
3.45163e-164
2.34683e-160
-1.74066e-168
1.37961e-160
-8.9261e-169
2.11962e-164
1.77184e-160
2.29611e-164
8.11435e-165
2.69046e-165
7.78119e-165
4.20794e-119
2.36542e-122
4.12446e-119
2.81469e-124
3.98546e-119
-9.25704e-125
-3.5646e-124
7.454e-122
3.66072e-125
7.2822e-122
4.15803e-127
7.03236e-122
-1.49184e-127
-5.33919e-127
1.19023e-124
5.09304e-128
1.14026e-124
5.392e-130
1.09557e-124
-1.9308e-130
-7.02081e-130
1.6431e-127
6.29162e-131
1.56349e-127
5.8091e-133
1.49687e-127
-2.28782e-133
-7.74478e-133
1.95113e-130
6.37852e-134
1.80924e-130
5.20606e-136
1.73125e-130
-2.03454e-136
-7.20569e-136
1.9038e-133
5.21027e-137
1.7478e-133
3.68399e-139
1.68752e-133
-1.55113e-139
-5.32393e-139
1.52132e-136
3.18845e-140
1.36482e-136
2.02341e-142
1.32398e-136
-8.23366e-143
-3.05867e-142
9.389e-140
1.44671e-143
8.45223e-140
8.25795e-146
8.25519e-140
-3.5021e-146
-1.31187e-145
4.454e-143
4.52438e-147
3.95422e-143
2.34973e-149
3.90857e-143
-9.64004e-150
-4.06861e-149
1.50347e-146
8.89754e-151
1.32511e-146
5.02372e-153
1.38194e-146
-1.87624e-153
-8.65408e-153
3.46417e-150
7.68113e-155
2.95002e-150
6.95059e-157
3.39915e-150
-2.15463e-157
-1.2442e-156
5.21818e-154
2.72409e-157
4.39794e-154
1.29387e-157
5.93705e-154
-1.27058e-160
-5.5971e-160
6.75311e-157
1.19042e-160
9.15755e-157
9.48765e-161
9.33094e-157
-1.11096e-164
-8.1646e-164
1.43268e-160
1.11913e-164
2.59753e-160
7.66109e-165
2.28588e-160
-7.64027e-170
-1.43735e-168
3.42092e-165
1.51148e-164
9.19529e-165
)
;

boundaryField
{
    topWall
    {
        type            calculated;
        value           uniform 0;
    }
    botWall
    {
        type            calculated;
        value           nonuniform List<scalar> 0();
    }
    inlet
    {
        type            cyclic;
        value           nonuniform List<scalar> 
15
(
-4.22103e-119
-7.57754e-122
-1.20512e-124
-1.66493e-127
-1.96701e-130
-1.94392e-133
-1.56027e-136
-9.86819e-140
-4.82538e-143
-1.73798e-146
-4.43567e-150
-7.82536e-154
-8.34901e-157
-1.69457e-160
-3.84424e-165
)
;
    }
    outlet
    {
        type            cyclic;
        value           nonuniform List<scalar> 
15
(
4.22103e-119
7.57754e-122
1.20512e-124
1.66493e-127
1.96701e-130
1.94392e-133
1.56027e-136
9.86819e-140
4.82538e-143
1.73798e-146
4.43567e-150
7.82536e-154
8.34901e-157
1.69457e-160
3.84424e-165
)
;
    }
    fixWall
    {
        type            empty;
        value           nonuniform List<scalar> 0();
    }
    procBoundary7to6
    {
        type            processor;
        value           nonuniform List<scalar> 8(6.24941e-122 3.37851e-122 9.58748e-122 -7.073e-122 -1.51018e-119 -1.79549e-121 5.50201e-122 2.06058e-121);
    }
}


// ************************************************************************* //
