/*--------------------------------*- C++ -*----------------------------------*\
  =========                 |
  \\      /  F ield         | OpenFOAM: The Open Source CFD Toolbox
   \\    /   O peration     | Website:  https://openfoam.org
    \\  /    A nd           | Version:  dev
     \\/     M anipulation  |

   OpenFOAM for Windows 20.09 (v1)
   Built by CFD Support, www.cfdsupport.com (based on Symscape).
\*---------------------------------------------------------------------------*/
FoamFile
{
    version     2.0;
    format      ascii;
    class       volSymmTensorField;
    location    "10";
    object      devReff;
}
// * * * * * * * * * * * * * * * * * * * * * * * * * * * * * * * * * * * * * //

dimensions      [0 2 -2 0 0 0 0];

internalField   nonuniform List<symmTensor> 
120
(
(5.51029e-07 0.00301662 -0 -4.81641e-07 -0 -6.93878e-08)
(4.91457e-08 0.00301706 -0 -6.57574e-08 -0 1.66118e-08)
(4.76375e-07 0.00301709 -0 -5.30689e-07 -0 5.43133e-08)
(-1.73146e-07 0.0030169 -0 1.81729e-07 -0 -8.58308e-09)
(2.94078e-07 0.00340137 -0 -3.2524e-07 -0 3.11618e-08)
(8.53337e-08 0.00340191 -0 -8.63252e-08 -0 9.91555e-10)
(6.04765e-07 0.00340243 -0 -5.82204e-07 -0 -2.25606e-08)
(-1.68037e-07 0.0034008 -0 1.79955e-07 -0 -1.19188e-08)
(5.8005e-07 0.00382273 -0 -5.03217e-07 -0 -7.68324e-08)
(5.43624e-08 0.00382434 -0 -4.13418e-08 -0 -1.30206e-08)
(4.13923e-07 0.00382324 -0 -4.4079e-07 -0 2.68671e-08)
(-1.74701e-07 0.00382046 -0 1.80989e-07 -0 -6.2885e-09)
(3.83779e-07 0.00428189 -0 -4.34012e-07 -0 5.0233e-08)
(1.20122e-07 0.00428236 -0 -1.39066e-07 -0 1.8944e-08)
(4.85889e-07 0.00428285 -0 -4.72186e-07 -0 -1.37025e-08)
(-1.80088e-07 0.00427983 -0 1.97806e-07 -0 -1.77177e-08)
(5.5105e-07 0.00478295 -0 -5.01913e-07 -0 -4.91369e-08)
(1.05539e-07 0.00478441 -0 -1.12006e-07 -0 6.46663e-09)
(3.34334e-07 0.0047835 -0 -3.64387e-07 -0 3.0053e-08)
(-1.93686e-07 0.00477929 -0 2.01536e-07 -0 -7.8491e-09)
(3.50608e-07 0.00532574 -0 -3.58449e-07 -0 7.84097e-09)
(1.20781e-07 0.00532431 -0 -1.22146e-07 -0 1.3654e-09)
(3.24952e-07 0.00532532 -0 -3.19742e-07 -0 -5.20972e-09)
(-2.10613e-07 0.00532238 -0 2.18082e-07 -0 -7.46927e-09)
(3.93956e-07 0.00591371 -0 -3.64145e-07 -0 -2.98105e-08)
(9.22667e-08 0.00591204 -0 -9.97974e-08 -0 7.53077e-09)
(2.56886e-07 0.00591213 -0 -2.72796e-07 -0 1.59097e-08)
(-2.16273e-07 0.00590943 -0 2.25789e-07 -0 -9.51611e-09)
(2.30413e-07 0.00654583 -0 -2.24535e-07 -0 -5.8781e-09)
(7.28915e-08 0.006543 -0 -7.89042e-08 -0 6.0127e-09)
(2.49439e-07 0.00654476 -0 -2.54772e-07 -0 5.33315e-09)
(-2.27089e-07 0.00654272 -0 2.3474e-07 -0 -7.65115e-09)
(1.76472e-07 0.00722611 -0 -1.55074e-07 -0 -2.1398e-08)
(5.45675e-08 0.00722372 -0 -6.01451e-08 -0 5.57758e-09)
(2.42755e-07 0.00722528 -0 -2.53014e-07 -0 1.02593e-08)
(-2.23604e-07 0.00722349 -0 2.33647e-07 -0 -1.00431e-08)
(5.18323e-08 0.00795519 -0 -4.16032e-08 -0 -1.02291e-08)
(4.50653e-08 0.00795327 -0 -5.10756e-08 -0 6.01028e-09)
(2.44994e-07 0.00795476 -0 -2.52952e-07 -0 7.95885e-09)
(-2.25033e-07 0.00795329 -0 2.32399e-07 -0 -7.36617e-09)
(-6.46272e-09 0.00873466 -0 2.44503e-08 -0 -1.79876e-08)
(3.99511e-08 0.00873388 -0 -4.53172e-08 -0 5.3661e-09)
(2.42484e-07 0.00873439 -0 -2.5133e-07 -0 8.84632e-09)
(-2.14876e-07 0.00873324 -0 2.25112e-07 -0 -1.02356e-08)
(-7.40635e-08 0.00956546 -0 8.69653e-08 -0 -1.29018e-08)
(3.6569e-08 0.00956587 -0 -4.30755e-08 -0 6.50649e-09)
(2.25206e-07 0.00956512 -0 -2.34301e-07 -0 9.09504e-09)
(-1.99665e-07 0.0095643 -0 2.07863e-07 -0 -8.19819e-09)
(-9.161e-08 0.0104482 -0 1.07142e-07 -0 -1.55316e-08)
(2.7101e-08 0.0104501 -0 -3.09584e-08 -0 3.85741e-09)
(1.88644e-07 0.0104477 -0 -1.95779e-07 -0 7.13533e-09)
(-1.66889e-07 0.0104473 -0 1.75808e-07 -0 -8.91892e-09)
(-9.25096e-08 0.0113834 -0 1.04127e-07 -0 -1.16178e-08)
(1.96721e-08 0.0113869 -0 -2.66941e-08 -0 7.02198e-09)
(1.33348e-07 0.011383 -0 -1.41387e-07 -0 8.03912e-09)
(-1.13574e-07 0.0113831 -0 1.19802e-07 -0 -6.22736e-09)
(-5.15104e-08 0.0123658 -0 6.46949e-08 -0 -1.31845e-08)
(1.05114e-08 0.0123709 -0 -1.39701e-08 -0 3.45866e-09)
(6.13397e-08 0.0123652 -0 -6.89868e-08 -0 7.64709e-09)
(-4.56645e-08 0.0123655 -0 5.38921e-08 -0 -8.22755e-09)
(-1.10349e-06 0.00301789 -0 1.10655e-06 -0 -3.0603e-09)
(-4.18767e-07 0.0030155 -0 3.84051e-07 -0 3.47163e-08)
(1.08192e-07 0.00301357 -0 -1.58432e-07 -0 5.02403e-08)
(5.70953e-07 0.00301426 -0 -5.56394e-07 -0 -1.45594e-08)
(-1.15021e-06 0.00340232 -0 1.14353e-06 -0 6.68042e-09)
(-3.879e-07 0.0034013 -0 4.00653e-07 -0 -1.27523e-08)
(2.47136e-07 0.0033998 -0 -2.27626e-07 -0 -1.95097e-08)
(4.6715e-07 0.00340081 -0 -4.87375e-07 -0 2.02258e-08)
(-1.08759e-06 0.00382306 -0 1.0879e-06 -0 -3.07055e-10)
(-5.09733e-07 0.00382232 -0 4.8023e-07 -0 2.95023e-08)
(4.58353e-08 0.00382103 -0 -4.83272e-08 -0 2.4919e-09)
(6.16533e-07 0.00382222 -0 -5.92802e-07 -0 -2.37311e-08)
(-1.09359e-06 0.00428234 -0 1.0896e-06 -0 3.99001e-09)
(-4.61187e-07 0.0042829 -0 4.77741e-07 -0 -1.65543e-08)
(2.0793e-07 0.00428232 -0 -1.51422e-07 -0 -5.6508e-08)
(5.58722e-07 0.00428405 -0 -6.1162e-07 -0 5.28973e-08)
(-1.00082e-06 0.00478229 -0 1.01417e-06 -0 -1.335e-08)
(-5.24975e-07 0.00478316 -0 5.08664e-07 -0 1.63107e-08)
(1.01833e-07 0.00478207 -0 -1.20668e-07 -0 1.8835e-08)
(6.18264e-07 0.00478413 -0 -6.08477e-07 -0 -9.78658e-09)
(-9.58863e-07 0.0053247 -0 9.47168e-07 -0 1.1695e-08)
(-4.56199e-07 0.00532656 -0 4.59254e-07 -0 -3.05424e-09)
(2.62464e-07 0.00532635 -0 -2.27297e-07 -0 -3.51662e-08)
(5.65339e-07 0.00532959 -0 -5.93804e-07 -0 2.84654e-08)
(-8.57392e-07 0.00591165 -0 8.64787e-07 -0 -7.39469e-09)
(-4.73016e-07 0.00591384 -0 4.58752e-07 -0 1.42637e-08)
(2.0072e-07 0.00591194 -0 -2.16184e-07 -0 1.54646e-08)
(6.10384e-07 0.00591523 -0 -6.11468e-07 -0 1.08326e-09)
(-8.15887e-07 0.00654457 -0 8.06718e-07 -0 9.16913e-09)
(-4.40823e-07 0.00654777 -0 4.37387e-07 -0 3.43642e-09)
(3.12716e-07 0.00654654 -0 -2.80772e-07 -0 -3.19438e-08)
(6.13584e-07 0.00654976 -0 -6.3035e-07 -0 1.67655e-08)
(-6.87248e-07 0.00722534 -0 6.91878e-07 -0 -4.6305e-09)
(-4.12989e-07 0.00723041 -0 4.03925e-07 -0 9.06408e-09)
(2.60383e-07 0.007228 -0 -2.68514e-07 -0 8.13088e-09)
(5.92233e-07 0.00722894 -0 -5.97843e-07 -0 5.60939e-09)
(-5.89659e-07 0.00795503 -0 5.83953e-07 -0 5.70646e-09)
(-3.50869e-07 0.00796038 -0 3.45792e-07 -0 5.07703e-09)
(2.72523e-07 0.00795891 -0 -2.48777e-07 -0 -2.37464e-08)
(5.50051e-07 0.00795885 -0 -5.65544e-07 -0 1.54926e-08)
(-4.50254e-07 0.00873519 -0 4.53414e-07 -0 -3.16074e-09)
(-2.85114e-07 0.00874095 -0 2.77131e-07 -0 7.98242e-09)
(2.03608e-07 0.00873958 -0 -2.05285e-07 -0 1.67708e-09)
(4.71223e-07 0.00873757 -0 -4.79295e-07 -0 8.07158e-09)
(-3.35353e-07 0.00956652 -0 3.31969e-07 -0 3.38408e-09)
(-2.03218e-07 0.00957141 -0 1.96903e-07 -0 6.31506e-09)
(1.64874e-07 0.00957133 -0 -1.4596e-07 -0 -1.89144e-08)
(3.85293e-07 0.00956849 -0 -3.9965e-07 -0 1.43565e-08)
(-2.10547e-07 0.0104502 -0 2.10589e-07 -0 -4.20241e-11)
(-1.23453e-07 0.0104542 -0 1.14166e-07 -0 9.28671e-09)
(1.00356e-07 0.0104547 -0 -9.56382e-08 -0 -4.71802e-09)
(2.76396e-07 0.0104506 -0 -2.85327e-07 -0 8.93017e-09)
(-1.09884e-07 0.0113866 -0 1.08768e-07 -0 1.11637e-09)
(-5.50927e-08 0.0113885 -0 5.13107e-08 -0 3.78193e-09)
(5.31153e-08 0.0113901 -0 -3.96466e-08 -0 -1.34686e-08)
(1.64732e-07 0.0113858 -0 -1.75893e-07 -0 1.11606e-08)
(-2.98481e-08 0.0123695 -0 3.00536e-08 -0 -2.05518e-10)
(-9.1623e-09 0.0123697 -0 3.53182e-09 -0 5.63047e-09)
(9.97325e-09 0.0123717 -0 -5.67067e-09 -0 -4.30259e-09)
(5.41049e-08 0.0123673 -0 -6.30328e-08 -0 8.92788e-09)
)
;

boundaryField
{
    topWall
    {
        type            calculated;
        value           nonuniform List<symmTensor> 8((-4.33973e-08 0.0128673 -0 4.84688e-08 -0 -5.07146e-09) (5.11934e-09 0.0128731 -0 -3.18591e-09 -0 -1.93343e-09) (4.64095e-08 0.0128664 -0 -3.91265e-08 -0 -7.28305e-09) (-3.71762e-08 0.0128666 -0 3.69154e-08 -0 2.60799e-10) (-1.50392e-08 0.0128709 -0 4.35861e-10 -0 1.46034e-08) (3.20533e-09 0.0128702 -0 -2.12034e-08 -0 1.79981e-08) (-5.27525e-09 0.0128727 -0 2.48263e-08 -0 -1.95511e-08) (4.60255e-08 0.0128685 -0 -4.6874e-08 -0 8.48491e-10));
    }
    botWall
    {
        type            calculated;
        value           nonuniform List<symmTensor> 0();
    }
    inlet
    {
        type            cyclic;
    }
    outlet
    {
        type            cyclic;
    }
    fixWall
    {
        type            empty;
    }
    procBoundary7to6
    {
        type            processor;
        value           nonuniform List<symmTensor> 8((2.01665e-07 0.00266648 -0 -2.33615e-07 -0 3.19495e-08) (5.29467e-08 0.00266673 -0 -3.6972e-08 -0 -1.59747e-08) (6.06425e-07 0.0026676 -0 -5.82399e-07 -0 -2.40263e-08) (-1.97087e-07 0.00266784 -0 2.12018e-07 -0 -1.49309e-08) (-1.10634e-06 0.00266785 -0 1.10614e-06 -0 2.01052e-10) (-2.46532e-07 0.00266521 -0 2.63535e-07 -0 -1.70037e-08) (2.94106e-07 0.00266268 -0 -2.81837e-07 -0 -1.22684e-08) (3.67275e-07 0.00266316 -0 -3.91788e-07 -0 2.45125e-08));
    }
}


// ************************************************************************* //
