/*--------------------------------*- C++ -*----------------------------------*\
  =========                 |
  \\      /  F ield         | OpenFOAM: The Open Source CFD Toolbox
   \\    /   O peration     | Website:  https://openfoam.org
    \\  /    A nd           | Version:  dev
     \\/     M anipulation  |

   OpenFOAM for Windows 20.09 (v1)
   Built by CFD Support, www.cfdsupport.com (based on Symscape).
\*---------------------------------------------------------------------------*/
FoamFile
{
    version     2.0;
    format      ascii;
    class       volScalarField;
    location    "10";
    object      epsilon;
}
// * * * * * * * * * * * * * * * * * * * * * * * * * * * * * * * * * * * * * //

dimensions      [0 2 -3 0 0 0 0];

internalField   nonuniform List<scalar> 
120
(
1.30329e-13
1.3358e-13
1.3532e-13
1.33772e-13
1.17782e-13
1.20626e-13
1.2215e-13
1.20796e-13
1.05587e-13
1.08067e-13
1.09389e-13
1.08209e-13
9.37801e-14
9.59313e-14
9.70678e-14
9.6047e-14
8.23922e-14
8.42458e-14
8.52119e-14
8.43363e-14
7.14511e-14
7.30331e-14
7.38445e-14
7.31026e-14
6.1006e-14
6.2332e-14
6.30042e-14
6.2387e-14
5.11604e-14
5.22367e-14
5.2786e-14
5.22894e-14
4.20031e-14
4.28506e-14
4.32917e-14
4.29042e-14
3.35486e-14
3.41983e-14
3.45436e-14
3.42492e-14
2.71466e-14
2.71503e-14
2.71507e-14
2.71483e-14
4.79979e-14
4.79993e-14
4.79995e-14
4.79984e-14
1.02015e-13
1.02015e-13
1.02015e-13
1.02015e-13
2.99656e-13
2.99656e-13
2.99656e-13
2.99656e-13
1.73748e-12
1.73748e-12
1.73748e-12
1.73748e-12
1.28165e-13
1.36383e-13
1.36888e-13
1.35772e-13
1.16077e-13
1.23126e-13
1.23589e-13
1.2265e-13
1.04264e-13
1.10274e-13
1.10695e-13
1.09899e-13
9.27702e-14
9.78612e-14
9.82391e-14
9.7557e-14
8.1635e-14
8.59108e-14
8.62463e-14
8.56613e-14
7.08932e-14
7.44506e-14
7.47423e-14
7.42421e-14
6.05945e-14
6.35186e-14
6.37656e-14
6.33483e-14
5.0843e-14
5.321e-14
5.3414e-14
5.30868e-14
4.17492e-14
4.36307e-14
4.37948e-14
4.35521e-14
3.3347e-14
3.48061e-14
3.49343e-14
3.47589e-14
2.71504e-14
2.71513e-14
2.71519e-14
2.71485e-14
4.79993e-14
4.79997e-14
4.80002e-14
4.7999e-14
1.02015e-13
1.02015e-13
1.02016e-13
1.02015e-13
2.99656e-13
2.99656e-13
2.99656e-13
2.99656e-13
1.73748e-12
1.73748e-12
1.73748e-12
1.73748e-12
)
;

boundaryField
{
    topWall
    {
        type            epsilonWallFunction;
        value           nonuniform List<scalar> 8(1.73748e-12 1.73748e-12 1.73748e-12 1.73748e-12 1.73748e-12 1.73748e-12 1.73748e-12 1.73748e-12);
    }
    botWall
    {
        type            epsilonWallFunction;
        value           nonuniform List<scalar> 0();
    }
    inlet
    {
        type            cyclic;
    }
    outlet
    {
        type            cyclic;
    }
    fixWall
    {
        type            empty;
    }
    procBoundary7to6
    {
        type            processor;
        value           nonuniform List<scalar> 8(1.43392e-13 1.47108e-13 1.49085e-13 1.4732e-13 1.40677e-13 1.5023e-13 1.50775e-13 1.49436e-13);
    }
}


// ************************************************************************* //
