/*--------------------------------*- C++ -*----------------------------------*\
  =========                 |
  \\      /  F ield         | OpenFOAM: The Open Source CFD Toolbox
   \\    /   O peration     | Website:  https://openfoam.org
    \\  /    A nd           | Version:  dev
     \\/     M anipulation  |

   OpenFOAM for Windows 20.09 (v1)
   Built by CFD Support, www.cfdsupport.com (based on Symscape).
\*---------------------------------------------------------------------------*/
FoamFile
{
    version     2.0;
    format      ascii;
    class       volVectorField;
    location    "10";
    object      gradp_rgh;
}
// * * * * * * * * * * * * * * * * * * * * * * * * * * * * * * * * * * * * * //

dimensions      [1 -2 -2 0 0 0 0];

internalField   nonuniform List<vector> 
120
(
(-1.25174 0.000237555 0)
(-1.25315 0.000695664 0)
(-1.25015 0.00036963 0)
(-1.2489 3.95724e-05 0)
(-1.25172 -6.88144e-05 0)
(-1.25315 0.000763171 0)
(-1.25016 0.000375455 0)
(-1.24891 0.000247778 0)
(-1.25171 -0.000318445 0)
(-1.25314 0.000669051 0)
(-1.25016 0.000302182 0)
(-1.24891 0.000345025 0)
(-1.2517 -0.000394297 0)
(-1.25314 0.000590958 0)
(-1.25016 0.000238362 0)
(-1.24892 0.000342242 0)
(-1.25168 -0.000310822 0)
(-1.25313 0.000573177 0)
(-1.25016 0.000206241 0)
(-1.24892 0.000294253 0)
(-1.25167 -0.000290881 0)
(-1.25313 0.000516544 0)
(-1.25017 0.000207981 0)
(-1.24892 0.00026418 0)
(-1.25166 -0.000245159 0)
(-1.25312 0.000451032 0)
(-1.25017 0.000182901 0)
(-1.24893 0.000237648 0)
(-1.25165 -0.000230324 0)
(-1.25312 0.000398115 0)
(-1.25017 0.000176817 0)
(-1.24893 0.000212755 0)
(-1.25164 -0.000201009 0)
(-1.25312 0.000344507 0)
(-1.25017 0.000158482 0)
(-1.24893 0.000187904 0)
(-1.25164 -0.000174906 0)
(-1.25311 0.000290603 0)
(-1.25017 0.000139644 0)
(-1.24893 0.0001646 0)
(-1.25163 -0.000137678 0)
(-1.25311 0.000236394 0)
(-1.25017 0.000113323 0)
(-1.24893 0.000141718 0)
(-1.25163 -0.000100938 0)
(-1.25311 0.000183071 0)
(-1.25017 8.3899e-05 0)
(-1.24893 0.000118888 0)
(-1.25162 -5.66503e-05 0)
(-1.25311 0.000127838 0)
(-1.25017 4.78861e-05 0)
(-1.24893 0.000101527 0)
(-1.25162 -1.5173e-05 0)
(-1.25311 7.84755e-05 0)
(-1.25017 1.44748e-05 0)
(-1.24894 8.54698e-05 0)
(-1.25162 3.0238e-06 0)
(-1.25311 2.93264e-05 0)
(-1.25017 6.87376e-07 0)
(-1.24893 3.89927e-05 0)
(-1.24936 -0.000528157 0)
(-1.24834 -0.00111963 0)
(-1.24876 -0.000281601 0)
(-1.24961 -0.000326934 0)
(-1.24937 -0.000337373 0)
(-1.24833 -0.000901285 0)
(-1.24875 0.000588909 0)
(-1.24961 -0.000676354 0)
(-1.24938 -0.000189499 0)
(-1.24832 -0.000722022 0)
(-1.24875 0.00104279 0)
(-1.24962 -0.000973323 0)
(-1.24939 -0.00011542 0)
(-1.24831 -0.000619026 0)
(-1.24876 0.00107908 0)
(-1.24963 -0.00104477 0)
(-1.24939 -0.000126457 0)
(-1.2483 -0.000596749 0)
(-1.24876 0.00097187 0)
(-1.24965 -0.000952833 0)
(-1.2494 -0.000139259 0)
(-1.24829 -0.000560141 0)
(-1.24876 0.000869468 0)
(-1.24966 -0.000856766 0)
(-1.24941 -0.000126932 0)
(-1.24829 -0.000513169 0)
(-1.24876 0.000759558 0)
(-1.24966 -0.000735564 0)
(-1.24941 -0.000105529 0)
(-1.24828 -0.000441049 0)
(-1.24877 0.000653533 0)
(-1.24967 -0.000648443 0)
(-1.24942 -7.30195e-05 0)
(-1.24827 -0.000376768 0)
(-1.24877 0.000534273 0)
(-1.24968 -0.00056466 0)
(-1.24942 -4.89378e-05 0)
(-1.24827 -0.000312737 0)
(-1.24877 0.000437973 0)
(-1.24969 -0.000485927 0)
(-1.24943 -2.72153e-05 0)
(-1.24826 -0.00025252 0)
(-1.24877 0.000336912 0)
(-1.24969 -0.000403104 0)
(-1.24943 -1.37678e-05 0)
(-1.24826 -0.000190969 0)
(-1.24877 0.000250369 0)
(-1.24969 -0.000324046 0)
(-1.24943 2.24543e-06 0)
(-1.24826 -0.00013133 0)
(-1.24877 0.000159679 0)
(-1.2497 -0.000247068 0)
(-1.24943 7.96587e-06 0)
(-1.24826 -8.55746e-05 0)
(-1.24877 9.29912e-05 0)
(-1.2497 -0.000176146 0)
(-1.24943 4.9271e-06 0)
(-1.24826 -3.51842e-05 0)
(-1.24877 2.79092e-05 0)
(-1.2497 -6.87862e-05 0)
)
;

boundaryField
{
    topWall
    {
        type            extrapolatedCalculated;
        value           nonuniform List<vector> 8((-1.25162 0 0) (-1.25311 0 0) (-1.25017 0 0) (-1.24893 0 0) (-1.24943 0 0) (-1.24826 0 0) (-1.24877 0 0) (-1.2497 0 0));
    }
    botWall
    {
        type            extrapolatedCalculated;
        value           nonuniform List<vector> 0();
    }
    inlet
    {
        type            cyclic;
    }
    outlet
    {
        type            cyclic;
    }
    fixWall
    {
        type            empty;
    }
    procBoundary7to6
    {
        type            processor;
        value           nonuniform List<vector> 8((-1.25174 0.000508304 0) (-1.25315 0.00053132 0) (-1.25014 0.00028199 0) (-1.24889 -0.000233924 0) (-1.24935 -0.000697824 0) (-1.24834 -0.00132754 0) (-1.24877 -0.00127314 0) (-1.24962 1.35243e-06 0));
    }
}


// ************************************************************************* //
