/*--------------------------------*- C++ -*----------------------------------*\
  =========                 |
  \\      /  F ield         | OpenFOAM: The Open Source CFD Toolbox
   \\    /   O peration     | Website:  https://openfoam.org
    \\  /    A nd           | Version:  dev
     \\/     M anipulation  |

   OpenFOAM for Windows 20.09 (v1)
   Built by CFD Support, www.cfdsupport.com (based on Symscape).
\*---------------------------------------------------------------------------*/
FoamFile
{
    version     2.0;
    format      ascii;
    class       volTensorField;
    location    "10";
    object      gradU;
}
// * * * * * * * * * * * * * * * * * * * * * * * * * * * * * * * * * * * * * //

dimensions      [0 0 -1 0 0 0 0];

internalField   nonuniform List<tensor> 
120
(
(-0.0016441 0.000134314 0 -15.9882 0.00109247 0 0 0 0)
(-8.62148e-05 -4.53366e-05 0 -15.9904 0.000218278 0 0 0 0)
(-0.00111846 9.10192e-05 0 -15.9907 0.00155026 0 0 0 0)
(0.000436091 0.000318922 0 -15.9899 -0.000504327 0 0 0 0)
(-0.000696727 0.000123797 0 -18.0274 0.000944464 0 0 0 0)
(-0.000223507 -3.65821e-05 0 -18.0301 0.000231389 0 0 0 0)
(-0.00166241 7.82257e-05 0 -18.0329 0.00148306 0 0 0 0)
(0.000413712 0.00027963 0 -18.0245 -0.000508466 0 0 0 0)
(-0.00174074 0.000115752 0 -20.2606 0.00112992 0 0 0 0)
(-0.000178565 -3.636e-05 0 -20.269 7.50514e-05 0 0 0 0)
(-0.0010257 7.86882e-05 0 -20.2633 0.00123929 0 0 0 0)
(0.000446293 0.000243994 0 -20.2487 -0.000496287 0 0 0 0)
(-0.000883898 9.99142e-05 0 -22.6941 0.00128325 0 0 0 0)
(-0.000268122 -3.47592e-05 0 -22.6965 0.000418726 0 0 0 0)
(-0.00132392 6.87034e-05 0 -22.6992 0.00121498 0 0 0 0)
(0.000430282 0.000210913 0 -22.6833 -0.000571138 0 0 0 0)
(-0.00159049 9.3381e-05 0 -25.3497 0.00119986 0 0 0 0)
(-0.000262542 -3.74978e-05 0 -25.3574 0.000313951 0 0 0 0)
(-0.000806345 6.21905e-05 0 -25.3526 0.00104527 0 0 0 0)
(0.000492469 0.000175796 0 -25.3304 -0.000554869 0 0 0 0)
(-0.000908332 7.87046e-05 0 -28.2265 0.000970667 0 0 0 0)
(-0.00031645 -3.73357e-05 0 -28.2188 0.000327305 0 0 0 0)
(-0.000874928 5.4223e-05 0 -28.2242 0.00083351 0 0 0 0)
(0.00053833 0.00014811 0 -28.2087 -0.000597711 0 0 0 0)
(-0.00112298 7.13525e-05 0 -31.3427 0.000885987 0 0 0 0)
(-0.00022455 -3.97838e-05 0 -31.3338 0.00028442 0 0 0 0)
(-0.000638588 4.67736e-05 0 -31.3344 0.000765069 0 0 0 0)
(0.000547907 0.000120588 0 -31.3201 -0.00062356 0 0 0 0)
(-0.000626172 5.63906e-05 0 -34.693 0.000579441 0 0 0 0)
(-0.000177229 -3.9351e-05 0 -34.6779 0.00022503 0 0 0 0)
(-0.000646879 3.90901e-05 0 -34.6873 0.000689278 0 0 0 0)
(0.00058151 9.68377e-05 0 -34.6765 -0.000642336 0 0 0 0)
(-0.000524355 4.6522e-05 0 -38.2984 0.000354241 0 0 0 0)
(-0.000129823 -3.79532e-05 0 -38.2857 0.000174165 0 0 0 0)
(-0.000616113 3.23175e-05 0 -38.294 0.000697674 0 0 0 0)
(0.000565936 7.38747e-05 0 -38.2846 -0.000645779 0 0 0 0)
(-0.000164463 3.26409e-05 0 -42.1625 8.31414e-05 0 0 0 0)
(-0.000103496 -3.36271e-05 0 -42.1523 0.000151278 0 0 0 0)
(-0.000628142 2.54243e-05 0 -42.1602 0.000691415 0 0 0 0)
(0.000576817 5.44474e-05 0 -42.1525 -0.000635378 0 0 0 0)
(-3.05408e-05 2.33809e-05 0 -46.2937 -0.00011246 0 0 0 0)
(-9.16503e-05 -2.78153e-05 0 -46.2895 0.000134311 0 0 0 0)
(-0.000619139 1.92065e-05 0 -46.2923 0.000689467 0 0 0 0)
(0.000542297 3.68119e-05 0 -46.2862 -0.00062367 0 0 0 0)
(0.000162078 1.3354e-05 0 -50.6969 -0.000264648 0 0 0 0)
(-7.96656e-05 -2.02617e-05 0 -50.6991 0.000131392 0 0 0 0)
(-0.000572693 1.27913e-05 0 -50.6951 0.000644999 0 0 0 0)
(0.000507386 2.27909e-05 0 -50.6908 -0.000572562 0 0 0 0)
(0.000201608 7.2855e-06 0 -55.3754 -0.000325084 0 0 0 0)
(-6.15955e-05 -1.26545e-05 0 -55.3853 9.2262e-05 0 0 0 0)
(-0.000480998 7.47396e-06 0 -55.3726 0.000537724 0 0 0 0)
(0.000418621 1.15494e-05 0 -55.3708 -0.000489527 0 0 0 0)
(0.000214363 1.89539e-06 0 -60.3323 -0.000306725 0 0 0 0)
(-3.35228e-05 -5.88156e-06 0 -60.3508 8.93475e-05 0 0 0 0)
(-0.000332068 3.09483e-06 0 -60.3297 0.000395979 0 0 0 0)
(0.000284469 4.52594e-06 0 -60.3304 -0.000333977 0 0 0 0)
(0.000101563 5.13106e-07 0 -65.5385 -0.00020638 0 0 0 0)
(-1.86899e-05 -9.42778e-07 0 -65.5655 4.61862e-05 0 0 0 0)
(-0.000142285 4.18557e-07 0 -65.5354 0.00020308 0 0 0 0)
(9.9208e-05 1.95172e-07 0 -65.5371 -0.000164617 0 0 0 0)
(0.00291614 4.00429e-05 0 -15.9948 -0.00294047 0 0 0 0)
(0.00120173 -0.000268426 0 -15.9819 -0.000925737 0 0 0 0)
(-0.000153571 -0.000265376 0 -15.9717 0.000552981 0 0 0 0)
(-0.00155161 -5.15959e-06 0 -15.9756 0.00143586 0 0 0 0)
(0.00306575 3.60167e-05 0 -18.0323 -0.00301264 0 0 0 0)
(0.000994143 -0.000238252 0 -18.0266 -0.00109552 0 0 0 0)
(-0.00070661 -0.00023804 0 -18.0187 0.000551508 0 0 0 0)
(-0.00118435 -4.79674e-06 0 -18.0243 0.00134514 0 0 0 0)
(0.0028813 3.02586e-05 0 -20.2623 -0.00288374 0 0 0 0)
(0.00142897 -0.000209023 0 -20.2581 -0.00119443 0 0 0 0)
(-0.00011486 -0.000224698 0 -20.2512 0.000134671 0 0 0 0)
(-0.0016967 1.38968e-06 0 -20.2578 0.00150804 0 0 0 0)
(0.00290858 2.4381e-05 0 -22.6964 -0.00287686 0 0 0 0)
(0.00117828 -0.000187945 0 -22.6992 -0.00130988 0 0 0 0)
(-0.000700762 -0.000192999 0 -22.6961 0.000251523 0 0 0 0)
(-0.00134044 1.17908e-05 0 -22.7055 0.00176097 0 0 0 0)
(0.00261678 1.79462e-05 0 -25.3461 -0.00272292 0 0 0 0)
(0.00143441 -0.000156884 0 -25.3506 -0.00130474 0 0 0 0)
(-0.000219944 -0.000173518 0 -25.3448 0.000369683 0 0 0 0)
(-0.00166433 1.85851e-05 0 -25.3559 0.00158653 0 0 0 0)
(0.00257198 1.18832e-05 0 -28.2209 -0.002479 0 0 0 0)
(0.00120083 -0.000136401 0 -28.2306 -0.00122512 0 0 0 0)
(-0.000788719 -0.000144811 0 -28.2295 0.000509148 0 0 0 0)
(-0.00142271 2.5627e-05 0 -28.2469 0.00164901 0 0 0 0)
(0.00225249 7.48942e-06 0 -31.3318 -0.00231128 0 0 0 0)
(0.00129129 -0.000107081 0 -31.3432 -0.00117789 0 0 0 0)
(-0.000490926 -0.000125615 0 -31.3332 0.00061387 0 0 0 0)
(-0.00161465 2.62771e-05 0 -31.3507 0.00162326 0 0 0 0)
(0.0021864 2.64427e-06 0 -34.6862 -0.0021135 0 0 0 0)
(0.00117729 -8.7649e-05 0 -34.7031 -0.00114997 0 0 0 0)
(-0.000913348 -9.81249e-05 0 -34.6966 0.000659395 0 0 0 0)
(-0.00158157 3.01622e-05 0 -34.7138 0.00171486 0 0 0 0)
(0.00180894 -9.71127e-07 0 -38.2943 -0.00184575 0 0 0 0)
(0.00111844 -6.08661e-05 0 -38.3211 -0.00104638 0 0 0 0)
(-0.000668468 -7.78684e-05 0 -38.3083 0.000733108 0 0 0 0)
(-0.00155455 2.49446e-05 0 -38.3134 0.00159915 0 0 0 0)
(0.00157772 -4.03243e-06 0 -42.1617 -0.00153235 0 0 0 0)
(0.000943258 -4.4668e-05 0 -42.1899 -0.000902895 0 0 0 0)
(-0.000785114 -5.40327e-05 0 -42.1822 0.000596331 0 0 0 0)
(-0.00141658 2.38478e-05 0 -42.1819 0.00153975 0 0 0 0)
(0.0011848 -5.42974e-06 0 -46.2965 -0.00120992 0 0 0 0)
(0.000776705 -2.5388e-05 0 -46.327 -0.000713245 0 0 0 0)
(-0.000535117 -3.71577e-05 0 -46.3198 0.00054845 0 0 0 0)
(-0.00122735 1.63914e-05 0 -46.3091 0.00129152 0 0 0 0)
(0.000897654 -5.52534e-06 0 -50.7026 -0.000870751 0 0 0 0)
(0.000555262 -1.53618e-05 0 -50.7284 -0.000505057 0 0 0 0)
(-0.000487039 -2.062e-05 0 -50.7281 0.00033667 0 0 0 0)
(-0.000982983 1.28326e-05 0 -50.713 0.00109712 0 0 0 0)
(0.000557837 -4.30467e-06 0 -55.386 -0.000558171 0 0 0 0)
(0.00035176 -5.26438e-06 0 -55.407 -0.00027793 0 0 0 0)
(-0.000278447 -1.04548e-05 0 -55.41 0.000240939 0 0 0 0)
(-0.000708785 6.36945e-06 0 -55.3884 0.00077978 0 0 0 0)
(0.000294152 -1.99873e-06 0 -60.3488 -0.000285277 0 0 0 0)
(0.000156018 -2.0433e-06 0 -60.3592 -0.000125951 0 0 0 0)
(-0.000176447 -2.99149e-06 0 -60.3676 6.93717e-05 0 0 0 0)
(-0.000406964 3.39893e-06 0 -60.3448 0.000495691 0 0 0 0)
(7.85528e-05 -8.37578e-07 0 -65.5584 -8.01867e-05 0 0 0 0)
(3.92008e-05 6.46434e-07 0 -65.5594 5.56142e-06 0 0 0 0)
(-3.7831e-05 -9.40853e-08 0 -65.5701 3.62541e-06 0 0 0 0)
(-0.000119719 1.01172e-07 0 -65.5466 0.000190696 0 0 0 0)
)
;

boundaryField
{
    topWall
    {
        type            extrapolatedCalculated;
        value           nonuniform List<tensor> 8((0.000101563 5.13106e-07 0 -68.1964 -0.000141882 0 0 0 0) (-1.86899e-05 -9.42778e-07 0 -68.2273 3.31907e-06 0 0 0 0) (-0.000142285 4.18557e-07 0 -68.1919 8.43851e-05 0 0 0 0) (9.9208e-05 1.95172e-07 0 -68.1932 -9.71347e-05 0 0 0 0) (7.85528e-05 -8.37578e-07 0 -68.2158 3.75439e-05 0 0 0 0) (3.92008e-05 6.46434e-07 0 -68.212 0.000103884 0 0 0 0) (-3.7831e-05 -9.40853e-08 0 -68.2252 -0.0001176 0 0 0 0) (-0.000119719 1.01172e-07 0 -68.2029 0.000126465 0 0 0 0));
    }
    botWall
    {
        type            extrapolatedCalculated;
        value           nonuniform List<tensor> 0();
    }
    inlet
    {
        type            cyclic;
    }
    outlet
    {
        type            cyclic;
    }
    fixWall
    {
        type            empty;
    }
    procBoundary7to6
    {
        type            processor;
        value           nonuniform List<tensor> 8((-0.000449747 0.00014409 0 -14.1325 0.000703745 0 0 0 0) (-0.000182642 -4.42118e-05 0 -14.1336 5.56429e-05 0 0 0 0) (-0.0016707 9.02691e-05 0 -14.1384 0.00147969 0 0 0 0) (0.000482714 0.000354476 0 -14.1399 -0.000601415 0 0 0 0) (0.00293233 4.30402e-05 0 -14.1396 -0.00293074 0 0 0 0) (0.000608249 -0.000296476 0 -14.1253 -0.000743428 0 0 0 0) (-0.000811891 -0.0002774 0 -14.1119 0.000714358 0 0 0 0) (-0.000908321 -1.37882e-05 0 -14.1147 0.0011032 0 0 0 0));
    }
}


// ************************************************************************* //
