/*--------------------------------*- C++ -*----------------------------------*\
  =========                 |
  \\      /  F ield         | OpenFOAM: The Open Source CFD Toolbox
   \\    /   O peration     | Website:  https://openfoam.org
    \\  /    A nd           | Version:  dev
     \\/     M anipulation  |

   OpenFOAM for Windows 20.09 (v1)
   Built by CFD Support, www.cfdsupport.com (based on Symscape).
\*---------------------------------------------------------------------------*/
FoamFile
{
    version     2.0;
    format      ascii;
    class       volVectorField;
    location    "10";
    object      gradp;
}
// * * * * * * * * * * * * * * * * * * * * * * * * * * * * * * * * * * * * * //

dimensions      [1 -2 -2 0 0 0 0];

internalField   nonuniform List<vector> 
120
(
(3.74826 -9.80976 0)
(-1.25315 -9.8093 0)
(-1.25015 -9.80963 0)
(-1.2489 -9.80996 0)
(3.74828 -9.81007 0)
(-1.25315 -9.80924 0)
(-1.25016 -9.80962 0)
(-1.24891 -9.80975 0)
(3.74829 -9.81032 0)
(-1.25314 -9.80933 0)
(-1.25016 -9.8097 0)
(-1.24891 -9.80965 0)
(3.7483 -9.81039 0)
(-1.25314 -9.80941 0)
(-1.25016 -9.80976 0)
(-1.24892 -9.80966 0)
(3.74832 -9.81031 0)
(-1.25313 -9.80943 0)
(-1.25016 -9.80979 0)
(-1.24892 -9.80971 0)
(3.74833 -9.81029 0)
(-1.25313 -9.80948 0)
(-1.25017 -9.80979 0)
(-1.24892 -9.80974 0)
(3.74834 -9.81025 0)
(-1.25312 -9.80955 0)
(-1.25017 -9.80982 0)
(-1.24893 -9.80976 0)
(3.74835 -9.81023 0)
(-1.25312 -9.8096 0)
(-1.25017 -9.80982 0)
(-1.24893 -9.80979 0)
(3.74836 -9.8102 0)
(-1.25312 -9.80966 0)
(-1.25017 -9.80984 0)
(-1.24893 -9.80981 0)
(3.74836 -9.81017 0)
(-1.25311 -9.80971 0)
(-1.25017 -9.80986 0)
(-1.24893 -9.80984 0)
(3.74837 -9.81014 0)
(-1.25311 -9.80976 0)
(-1.25017 -9.80989 0)
(-1.24893 -9.80986 0)
(3.74837 -9.8101 0)
(-1.25311 -9.80982 0)
(-1.25017 -9.80992 0)
(-1.24893 -9.80988 0)
(3.74838 -9.81006 0)
(-1.25311 -9.80987 0)
(-1.25017 -9.80995 0)
(-1.24893 -9.8099 0)
(3.74838 -9.81002 0)
(-1.25311 -9.80992 0)
(-1.25017 -9.80999 0)
(-1.24894 -9.80991 0)
(3.74838 -9.81 0)
(-1.25311 -9.80997 0)
(-1.25017 -9.81 0)
(-1.24893 -9.80996 0)
(-1.24936 -9.81053 0)
(-1.24834 -9.81112 0)
(-1.24876 -9.81028 0)
(3.75039 -9.81033 0)
(-1.24937 -9.81034 0)
(-1.24833 -9.8109 0)
(-1.24875 -9.80941 0)
(3.75039 -9.81068 0)
(-1.24938 -9.81019 0)
(-1.24832 -9.81072 0)
(-1.24875 -9.80896 0)
(3.75038 -9.81097 0)
(-1.24939 -9.81012 0)
(-1.24831 -9.81062 0)
(-1.24876 -9.80892 0)
(3.75037 -9.81104 0)
(-1.24939 -9.81013 0)
(-1.2483 -9.8106 0)
(-1.24876 -9.80903 0)
(3.75035 -9.81095 0)
(-1.2494 -9.81014 0)
(-1.24829 -9.81056 0)
(-1.24876 -9.80913 0)
(3.75034 -9.81086 0)
(-1.24941 -9.81013 0)
(-1.24829 -9.81051 0)
(-1.24876 -9.80924 0)
(3.75034 -9.81074 0)
(-1.24941 -9.81011 0)
(-1.24828 -9.81044 0)
(-1.24877 -9.80935 0)
(3.75033 -9.81065 0)
(-1.24942 -9.81007 0)
(-1.24827 -9.81038 0)
(-1.24877 -9.80947 0)
(3.75032 -9.81056 0)
(-1.24942 -9.81005 0)
(-1.24827 -9.81031 0)
(-1.24877 -9.80956 0)
(3.75031 -9.81049 0)
(-1.24943 -9.81003 0)
(-1.24826 -9.81025 0)
(-1.24877 -9.80966 0)
(3.75031 -9.8104 0)
(-1.24943 -9.81001 0)
(-1.24826 -9.81019 0)
(-1.24877 -9.80975 0)
(3.75031 -9.81032 0)
(-1.24943 -9.81 0)
(-1.24826 -9.81013 0)
(-1.24877 -9.80984 0)
(3.7503 -9.81025 0)
(-1.24943 -9.80999 0)
(-1.24826 -9.81009 0)
(-1.24877 -9.80991 0)
(3.7503 -9.81018 0)
(-1.24943 -9.81 0)
(-1.24826 -9.81004 0)
(-1.24877 -9.80997 0)
(3.7503 -9.81007 0)
)
;

boundaryField
{
    topWall
    {
        type            extrapolatedCalculated;
        value           nonuniform List<vector> 8((3.74838 -9.81 0) (-1.25311 -9.81 0) (-1.25017 -9.81 0) (-1.24893 -9.81 0) (-1.24943 -9.81 0) (-1.24826 -9.81 0) (-1.24877 -9.81 0) (3.7503 -9.81 0));
    }
    botWall
    {
        type            extrapolatedCalculated;
        value           nonuniform List<vector> 0();
    }
    inlet
    {
        type            cyclic;
    }
    outlet
    {
        type            cyclic;
    }
    fixWall
    {
        type            empty;
    }
    procBoundary7to6
    {
        type            processor;
        value           nonuniform List<vector> 8((3.74826 -9.80949 0) (-1.25315 -9.80947 0) (-1.25014 -9.80972 0) (-1.24889 -9.81023 0) (-1.24935 -9.8107 0) (-1.24834 -9.81133 0) (-1.24877 -9.81127 0) (3.75038 -9.81 0));
    }
}


// ************************************************************************* //
