/*--------------------------------*- C++ -*----------------------------------*\
  =========                 |
  \\      /  F ield         | OpenFOAM: The Open Source CFD Toolbox
   \\    /   O peration     | Website:  https://openfoam.org
    \\  /    A nd           | Version:  dev
     \\/     M anipulation  |

   OpenFOAM for Windows 20.09 (v1)
   Built by CFD Support, www.cfdsupport.com (based on Symscape).
\*---------------------------------------------------------------------------*/
FoamFile
{
    version     2.0;
    format      ascii;
    class       volScalarField;
    location    "10";
    object      k;
}
// * * * * * * * * * * * * * * * * * * * * * * * * * * * * * * * * * * * * * //

dimensions      [0 2 -2 0 0 0 0];

internalField   nonuniform List<scalar> 
120
(
1.25204e-14
1.28203e-14
1.29857e-14
1.284e-14
9.75492e-15
9.97966e-15
1.01043e-14
9.99567e-15
7.46531e-15
7.63135e-15
7.72366e-15
7.64395e-15
5.59245e-15
5.71289e-15
5.77987e-15
5.72255e-15
4.0831e-15
4.16848e-15
4.21591e-15
4.17567e-15
2.88893e-15
2.94773e-15
2.98034e-15
2.95292e-15
1.96573e-15
2.00479e-15
2.02639e-15
2.00837e-15
1.27266e-15
1.29746e-15
1.3111e-15
1.29978e-15
7.72022e-16
7.86829e-16
7.94919e-16
7.88221e-16
4.29009e-16
4.37113e-16
4.41519e-16
4.37874e-16
2.22045e-16
2.22045e-16
2.22045e-16
2.22045e-16
2.22045e-16
2.22045e-16
2.22045e-16
2.22045e-16
2.22045e-16
2.22045e-16
2.22045e-16
2.22045e-16
2.22045e-16
2.22045e-16
2.22045e-16
2.22045e-16
2.22045e-16
2.22045e-16
2.22045e-16
2.22045e-16
1.23011e-14
1.30893e-14
1.31405e-14
1.30363e-14
9.60381e-15
1.01854e-14
1.02253e-14
1.0152e-14
7.36316e-15
7.78564e-15
7.8161e-15
7.76502e-15
5.52482e-15
5.8261e-15
5.84881e-15
5.81363e-15
4.03933e-15
4.2494e-15
4.26586e-15
4.24203e-15
2.86135e-15
3.00381e-15
3.01534e-15
2.99956e-15
1.9489e-15
2.04219e-15
2.04993e-15
2.03978e-15
1.26283e-15
1.32122e-15
1.32616e-15
1.31985e-15
7.66602e-16
8.0099e-16
8.03942e-16
8.00207e-16
4.2623e-16
4.44835e-16
4.46452e-16
4.44405e-16
2.22045e-16
2.22045e-16
2.22045e-16
2.22045e-16
2.22045e-16
2.22045e-16
2.22045e-16
2.22045e-16
2.22045e-16
2.22045e-16
2.22045e-16
2.22045e-16
2.22045e-16
2.22045e-16
2.22045e-16
2.22045e-16
2.22045e-16
2.22045e-16
2.22045e-16
2.22045e-16
)
;

boundaryField
{
    topWall
    {
        type            kqRWallFunction;
        value           uniform 2.22045e-16;
    }
    botWall
    {
        type            kqRWallFunction;
        value           nonuniform List<scalar> 0();
    }
    inlet
    {
        type            cyclic;
    }
    outlet
    {
        type            cyclic;
    }
    fixWall
    {
        type            empty;
    }
    procBoundary7to6
    {
        type            processor;
        value           nonuniform List<scalar> 8(1.58281e-14 1.62235e-14 1.64398e-14 1.62473e-14 1.55151e-14 1.65695e-14 1.66341e-14 1.6487e-14);
    }
}


// ************************************************************************* //
