/*--------------------------------*- C++ -*----------------------------------*\
  =========                 |
  \\      /  F ield         | OpenFOAM: The Open Source CFD Toolbox
   \\    /   O peration     | Website:  https://openfoam.org
    \\  /    A nd           | Version:  dev
     \\/     M anipulation  |

   OpenFOAM for Windows 20.09 (v1)
   Built by CFD Support, www.cfdsupport.com (based on Symscape).
\*---------------------------------------------------------------------------*/
FoamFile
{
    version     2.0;
    format      ascii;
    class       volScalarField;
    location    "10";
    object      nut;
}
// * * * * * * * * * * * * * * * * * * * * * * * * * * * * * * * * * * * * * //

dimensions      [0 2 -1 0 0 0 0];

internalField   nonuniform List<scalar> 
120
(
1.08254e-16
1.10737e-16
1.12153e-16
1.1092e-16
7.2713e-17
7.43075e-17
7.52255e-17
7.44415e-17
4.75038e-17
4.85013e-17
4.90813e-17
4.85976e-17
3.00148e-17
3.06192e-17
3.09744e-17
3.06859e-17
1.82111e-17
1.8563e-17
1.87726e-17
1.86072e-17
1.05126e-17
1.07077e-17
1.08257e-17
1.07353e-17
5.70055e-18
5.80322e-18
5.86566e-18
5.81882e-18
2.84929e-18
2.90036e-18
2.93085e-18
2.90783e-18
1.27709e-18
1.30031e-18
1.31366e-18
1.30328e-18
4.93744e-19
5.02834e-19
5.07895e-19
5.03837e-19
1.63458e-19
1.63436e-19
1.63434e-19
1.63449e-19
9.24487e-20
9.2446e-20
9.24455e-20
9.24476e-20
4.3497e-20
4.34969e-20
4.34968e-20
4.3497e-20
1.48081e-20
1.48081e-20
1.48081e-20
1.48081e-20
2.5539e-21
2.5539e-21
2.5539e-21
2.5539e-21
1.06257e-16
1.13061e-16
1.13527e-16
1.12654e-16
7.15126e-17
7.58312e-17
7.61397e-17
7.56273e-17
4.67988e-17
4.94718e-17
4.96699e-17
4.93782e-17
2.96121e-17
3.12167e-17
3.13396e-17
3.11802e-17
1.79881e-17
1.89169e-17
1.89896e-17
1.89062e-17
1.03939e-17
1.09073e-17
1.09483e-17
1.09071e-17
5.64141e-18
5.90926e-18
5.93106e-18
5.91118e-18
2.82295e-18
2.95255e-18
2.96331e-18
2.9533e-18
1.26688e-18
1.32344e-18
1.32822e-18
1.32324e-18
4.90314e-19
5.11664e-19
5.13499e-19
5.11368e-19
1.63436e-19
1.6343e-19
1.63426e-19
1.63447e-19
9.2446e-20
9.24452e-20
9.24443e-20
9.24466e-20
4.34969e-20
4.34968e-20
4.34967e-20
4.34968e-20
1.48081e-20
1.48081e-20
1.48081e-20
1.48081e-20
2.5539e-21
2.5539e-21
2.5539e-21
2.5539e-21
)
;

boundaryField
{
    topWall
    {
        type            nutkWallFunction;
        Cmu             0.09;
        kappa           0.41;
        E               9.8;
        value           uniform 0;
    }
    botWall
    {
        type            nutkWallFunction;
        Cmu             0.09;
        kappa           0.41;
        E               9.8;
        value           nonuniform List<scalar> 0();
    }
    inlet
    {
        type            cyclic;
    }
    outlet
    {
        type            cyclic;
    }
    fixWall
    {
        type            empty;
    }
    procBoundary7to6
    {
        type            processor;
        value           nonuniform List<scalar> 8(1.57245e-16 1.61027e-16 1.63154e-16 1.61266e-16 1.54003e-16 1.64477e-16 1.65162e-16 1.63709e-16);
    }
}


// ************************************************************************* //
