/*--------------------------------*- C++ -*----------------------------------*\
  =========                 |
  \\      /  F ield         | OpenFOAM: The Open Source CFD Toolbox
   \\    /   O peration     | Website:  https://openfoam.org
    \\  /    A nd           | Version:  dev
     \\/     M anipulation  |

   OpenFOAM for Windows 20.09 (v1)
   Built by CFD Support, www.cfdsupport.com (based on Symscape).
\*---------------------------------------------------------------------------*/
FoamFile
{
    version     2.0;
    format      ascii;
    class       volScalarField;
    location    "10";
    object      omega;
}
// * * * * * * * * * * * * * * * * * * * * * * * * * * * * * * * * * * * * * //

dimensions      [0 0 -1 0 0 0 0];

internalField   nonuniform List<scalar> 
120
(
115.658
115.772
115.786
115.76
134.156
134.302
134.321
134.275
157.152
157.343
157.365
157.291
186.323
186.579
186.601
186.488
224.21
224.558
224.578
224.412
274.808
275.289
275.303
275.067
344.831
345.462
345.466
345.15
446.661
447.343
447.344
446.993
604.517
605.109
605.116
604.797
868.89
869.298
869.312
869.079
1358.42
1358.6
1358.62
1358.5
2401.81
2401.89
2401.9
2401.84
5104.82
5104.84
5104.85
5104.83
14994.8
14994.8
14994.8
14994.8
86943.4
86943.4
86943.4
86943.4
115.767
115.771
115.747
115.721
134.295
134.316
134.296
134.237
157.336
157.375
157.361
157.256
186.573
186.634
186.627
186.453
224.556
224.635
224.642
224.372
275.29
275.393
275.416
275.011
345.463
345.591
345.626
345.072
447.345
447.483
447.525
446.908
605.111
605.234
605.278
604.733
869.301
869.389
869.43
869.05
1358.6
1358.65
1358.68
1358.51
2401.89
2401.91
2401.93
2401.87
5104.84
5104.85
5104.86
5104.85
14994.8
14994.8
14994.8
14994.8
86943.4
86943.4
86943.4
86943.4
)
;

boundaryField
{
    topWall
    {
        beta1           0.075;
        blended         0;
        type            omegaWallFunction;
        value           nonuniform List<scalar> 8(86943.4 86943.4 86943.4 86943.4 86943.4 86943.4 86943.4 86943.4);
    }
    botWall
    {
        beta1           0.075;
        blended         0;
        type            omegaWallFunction;
        value           nonuniform List<scalar> 0();
    }
    inlet
    {
        type            cyclic;
    }
    outlet
    {
        type            cyclic;
    }
    fixWall
    {
        type            empty;
    }
    procBoundary7to6
    {
        type            processor;
        value           nonuniform List<scalar> 8(100.659 100.751 100.762 100.748 100.746 100.74 100.714 100.709);
    }
}


// ************************************************************************* //
