/*--------------------------------*- C++ -*----------------------------------*\
  =========                 |
  \\      /  F ield         | OpenFOAM: The Open Source CFD Toolbox
   \\    /   O peration     | Website:  https://openfoam.org
    \\  /    A nd           | Version:  dev
     \\/     M anipulation  |

   OpenFOAM for Windows 20.09 (v1)
   Built by CFD Support, www.cfdsupport.com (based on Symscape).
\*---------------------------------------------------------------------------*/
FoamFile
{
    version     2.0;
    format      ascii;
    class       volScalarField;
    location    "10";
    object      p;
}
// * * * * * * * * * * * * * * * * * * * * * * * * * * * * * * * * * * * * * //

dimensions      [1 -1 -2 0 0 0 0];

internalField   nonuniform List<scalar> 
120
(
-5.25134
-5.31405
-5.37666
-5.43907
-5.25952
-5.32223
-5.38483
-5.44724
-5.26769
-5.3304
-5.39301
-5.45542
-5.27587
-5.33858
-5.40118
-5.46359
-5.28405
-5.34675
-5.40936
-5.47177
-5.29222
-5.35493
-5.41753
-5.47994
-5.3004
-5.3631
-5.42571
-5.48812
-5.30857
-5.37128
-5.43388
-5.49629
-5.31675
-5.37945
-5.44206
-5.50447
-5.32492
-5.38763
-5.45023
-5.51264
-5.3331
-5.3958
-5.45841
-5.52082
-5.34127
-5.40398
-5.46658
-5.52899
-5.34945
-5.41215
-5.47476
-5.53717
-5.35762
-5.42032
-5.48293
-5.54534
-5.3658
-5.4285
-5.49111
-5.55352
-5.50155
-5.56401
-5.62638
-5.68888
-5.50973
-5.57218
-5.63456
-5.69706
-5.5179
-5.58036
-5.64273
-5.70523
-5.52608
-5.58853
-5.65091
-5.71341
-5.53425
-5.59671
-5.65908
-5.72158
-5.54243
-5.60488
-5.66725
-5.72976
-5.5506
-5.61306
-5.67543
-5.73794
-5.55878
-5.62123
-5.6836
-5.74611
-5.56695
-5.62941
-5.69178
-5.75429
-5.57513
-5.63758
-5.69995
-5.76246
-5.5833
-5.64576
-5.70813
-5.77064
-5.59148
-5.65394
-5.7163
-5.77881
-5.59965
-5.66211
-5.72448
-5.78699
-5.60783
-5.67029
-5.73265
-5.79516
-5.616
-5.67846
-5.74083
-5.80334
)
;

boundaryField
{
    topWall
    {
        type            calculated;
        value           nonuniform List<scalar> 8(-5.36988 -5.43259 -5.4952 -5.5576 -5.62009 -5.68255 -5.74491 -5.80743);
    }
    botWall
    {
        type            calculated;
        value           nonuniform List<scalar> 0();
    }
    inlet
    {
        type            cyclic;
    }
    outlet
    {
        type            cyclic;
    }
    fixWall
    {
        type            empty;
    }
    procBoundary7to6
    {
        type            processor;
        value           nonuniform List<scalar> 8(-5.24317 -5.30588 -5.36848 -5.43089 -5.49337 -5.55583 -5.61821 -5.68071);
    }
}


// ************************************************************************* //
