/*--------------------------------*- C++ -*----------------------------------*\
  =========                 |
  \\      /  F ield         | OpenFOAM: The Open Source CFD Toolbox
   \\    /   O peration     | Website:  https://openfoam.org
    \\  /    A nd           | Version:  dev
     \\/     M anipulation  |

   OpenFOAM for Windows 20.09 (v1)
   Built by CFD Support, www.cfdsupport.com (based on Symscape).
\*---------------------------------------------------------------------------*/
FoamFile
{
    version     2.0;
    format      ascii;
    class       volScalarField;
    location    "10";
    object      p_rgh;
}
// * * * * * * * * * * * * * * * * * * * * * * * * * * * * * * * * * * * * * //

dimensions      [1 -1 -2 0 0 0 0];

internalField   nonuniform List<scalar> 
120
(
-4.38888
-4.45159
-4.5142
-4.57661
-4.38888
-4.45159
-4.5142
-4.57661
-4.38888
-4.45159
-4.5142
-4.57661
-4.38888
-4.45159
-4.5142
-4.57661
-4.38888
-4.45159
-4.5142
-4.57661
-4.38888
-4.45159
-4.5142
-4.57661
-4.38888
-4.45159
-4.5142
-4.57661
-4.38888
-4.45159
-4.5142
-4.57661
-4.38888
-4.45159
-4.5142
-4.57661
-4.38888
-4.45159
-4.5142
-4.57661
-4.38888
-4.45159
-4.5142
-4.5766
-4.38888
-4.45159
-4.5142
-4.5766
-4.38888
-4.45159
-4.5142
-4.5766
-4.38888
-4.45159
-4.5142
-4.5766
-4.38888
-4.45159
-4.5142
-4.5766
-4.63909
-4.70154
-4.76392
-4.82642
-4.63909
-4.70154
-4.76392
-4.82642
-4.63909
-4.70154
-4.76392
-4.82642
-4.63909
-4.70154
-4.76392
-4.82642
-4.63909
-4.70155
-4.76392
-4.82642
-4.63909
-4.70155
-4.76392
-4.82642
-4.63909
-4.70155
-4.76392
-4.82642
-4.63909
-4.70155
-4.76392
-4.82642
-4.63909
-4.70155
-4.76392
-4.82642
-4.63909
-4.70155
-4.76392
-4.82642
-4.63909
-4.70155
-4.76392
-4.82642
-4.63909
-4.70155
-4.76391
-4.82642
-4.63909
-4.70155
-4.76391
-4.82643
-4.63909
-4.70155
-4.76391
-4.82643
-4.63909
-4.70155
-4.76391
-4.82643
)
;

boundaryField
{
    topWall
    {
        type            zeroGradient;
    }
    botWall
    {
        type            zeroGradient;
    }
    inlet
    {
        type            fixedJump;
        patchType       cyclic;
        jump            uniform -0.5;
        value           nonuniform List<scalar> 
15
(
-4.35765
-4.35765
-4.35765
-4.35765
-4.35765
-4.35765
-4.35765
-4.35765
-4.35765
-4.35765
-4.35765
-4.35765
-4.35765
-4.35765
-4.35765
)
;
    }
    outlet
    {
        type            fixedJump;
        patchType       cyclic;
        value           nonuniform List<scalar> 
15
(
-4.85765
-4.85765
-4.85765
-4.85765
-4.85765
-4.85765
-4.85765
-4.85765
-4.85765
-4.85765
-4.85765
-4.85765
-4.85765
-4.85765
-4.85765
)
;
    }
    fixWall
    {
        type            empty;
    }
    procBoundary7to6
    {
        type            processor;
        value           nonuniform List<scalar> 8(-4.38888 -4.45159 -4.5142 -4.57661 -4.63909 -4.70154 -4.76392 -4.82642);
    }
}


// ************************************************************************* //
