/*--------------------------------*- C++ -*----------------------------------*\
  =========                 |
  \\      /  F ield         | OpenFOAM: The Open Source CFD Toolbox
   \\    /   O peration     | Website:  https://openfoam.org
    \\  /    A nd           | Version:  dev
     \\/     M anipulation  |

   OpenFOAM for Windows 20.09 (v1)
   Built by CFD Support, www.cfdsupport.com (based on Symscape).
\*---------------------------------------------------------------------------*/
FoamFile
{
    version     2.0;
    format      ascii;
    class       surfaceScalarField;
    location    "10";
    object      phi;
}
// * * * * * * * * * * * * * * * * * * * * * * * * * * * * * * * * * * * * * //

dimensions      [0 3 -1 0 0 0 0];

internalField   nonuniform List<scalar> 
217
(
3.80394e-07
-2.50158e-10
3.80389e-07
-1.16837e-10
3.8034e-07
-4.70651e-10
3.07858e-10
3.8036e-07
3.68641e-07
-2.25935e-10
3.6863e-07
-1.05483e-10
3.68558e-07
-3.98697e-10
2.87845e-10
3.68578e-07
3.55354e-07
-1.58215e-10
3.55345e-07
-9.60448e-11
3.553e-07
-3.53257e-10
2.66442e-10
3.55321e-07
3.40496e-07
-1.26217e-10
3.40482e-07
-8.28639e-11
3.40424e-07
-2.95376e-10
2.45685e-10
3.40445e-07
3.23833e-07
-6.47958e-11
3.2382e-07
-6.99512e-11
3.23784e-07
-2.59022e-10
2.22325e-10
3.23807e-07
3.05282e-07
-3.1831e-11
3.05267e-07
-5.47887e-11
3.05228e-07
-2.19792e-10
1.97038e-10
3.05253e-07
2.84635e-07
1.00701e-11
2.84624e-07
-4.34869e-11
2.84594e-07
-1.90375e-10
1.71337e-10
2.8462e-07
2.61757e-07
3.12606e-11
2.61748e-07
-3.41687e-11
2.61718e-07
-1.6059e-10
1.44219e-10
2.61745e-07
2.36461e-07
4.81916e-11
2.36454e-07
-2.6836e-11
2.36425e-07
-1.32065e-10
1.17735e-10
2.36451e-07
2.08573e-07
5.01186e-11
2.08567e-07
-2.06093e-11
2.08538e-07
-1.0302e-10
9.07849e-11
2.08565e-07
1.77909e-07
4.64559e-11
1.77903e-07
-1.48838e-11
1.77875e-07
-7.43352e-11
6.52625e-11
1.779e-07
1.4428e-07
3.47628e-11
1.44274e-07
-9.66447e-12
1.44248e-07
-4.75732e-11
4.11863e-11
1.44272e-07
1.07495e-07
2.14182e-11
1.07491e-07
-5.20108e-12
1.07468e-07
-2.46303e-11
2.08075e-11
1.07488e-07
6.73624e-08
7.53981e-12
6.73591e-08
-1.91546e-12
6.73425e-08
-7.88126e-12
6.00825e-12
6.73572e-08
2.36864e-08
2.36844e-08
2.36766e-08
2.36826e-08
3.80482e-07
1.03263e-09
3.8053e-07
4.97068e-10
3.80526e-07
-2.45417e-10
-7.54645e-10
3.68705e-07
9.05207e-10
3.68745e-07
4.57537e-10
3.68718e-07
-2.18664e-10
-7.01973e-10
3.55441e-07
7.85477e-10
3.55498e-07
3.99987e-10
3.55496e-07
-2.16668e-10
-6.27903e-10
3.40566e-07
6.64625e-10
3.40613e-07
3.52944e-10
3.40587e-07
-1.9034e-10
-5.68589e-10
3.23916e-07
5.55932e-10
3.23974e-07
2.9529e-10
3.23967e-07
-1.84114e-10
-4.95727e-10
3.0536e-07
4.49113e-10
3.05408e-07
2.47402e-10
3.05378e-07
-1.54249e-10
-4.32871e-10
2.84714e-07
3.55596e-10
2.84765e-07
1.95783e-10
2.84748e-07
-1.36846e-10
-3.61986e-10
2.61836e-07
2.64825e-10
2.61883e-07
1.48954e-10
2.61848e-07
-1.01917e-10
-2.92432e-10
2.36527e-07
1.89766e-10
2.36571e-07
1.046e-10
2.36546e-07
-7.72314e-11
-2.23975e-10
2.08631e-07
1.24329e-10
2.08668e-07
6.75673e-11
2.08638e-07
-4.77366e-11
-1.61233e-10
1.77949e-07
7.52467e-11
1.77979e-07
3.74916e-11
1.7796e-07
-2.86888e-11
-1.06354e-10
1.44309e-07
3.81142e-11
1.4433e-07
1.66598e-11
1.44313e-07
-1.16769e-11
-6.16346e-11
1.07511e-07
1.51244e-11
1.07523e-07
4.31902e-12
1.07515e-07
-3.37121e-12
-2.83281e-11
6.73692e-08
3.10867e-12
6.73734e-08
1.445e-13
6.73693e-08
6.78184e-13
-7.58754e-12
2.36857e-08
2.36858e-08
2.36864e-08
)
;

boundaryField
{
    topWall
    {
        type            calculated;
        value           uniform 0;
    }
    botWall
    {
        type            calculated;
        value           nonuniform List<scalar> 0();
    }
    inlet
    {
        type            cyclic;
        value           nonuniform List<scalar> 
15
(
-3.80458e-07
-3.68665e-07
-3.55422e-07
-3.40528e-07
-3.23895e-07
-3.05315e-07
-2.84677e-07
-2.61778e-07
-2.36478e-07
-2.08575e-07
-1.77905e-07
-1.44268e-07
-1.07482e-07
-6.73486e-08
-2.36789e-08
)
;
    }
    outlet
    {
        type            cyclic;
        value           nonuniform List<scalar> 
15
(
3.80458e-07
3.68665e-07
3.55422e-07
3.40528e-07
3.23895e-07
3.05315e-07
2.84677e-07
2.61778e-07
2.36478e-07
2.08575e-07
1.77905e-07
1.44268e-07
1.07482e-07
6.73486e-08
2.36789e-08
)
;
    }
    fixWall
    {
        type            empty;
        value           nonuniform List<scalar> 0();
    }
    procBoundary7to6
    {
        type            processor;
        value           nonuniform List<scalar> 8(3.14936e-10 1.21278e-10 5.25236e-10 -3.32009e-10 -1.1561e-09 -5.43954e-10 2.5124e-10 8.21241e-10);
    }
}


// ************************************************************************* //
