/*--------------------------------*- C++ -*----------------------------------*\
  =========                 |
  \\      /  F ield         | OpenFOAM: The Open Source CFD Toolbox
   \\    /   O peration     | Website:  https://openfoam.org
    \\  /    A nd           | Version:  dev
     \\/     M anipulation  |

   OpenFOAM for Windows 20.09 (v1)
   Built by CFD Support, www.cfdsupport.com (based on Symscape).
\*---------------------------------------------------------------------------*/
FoamFile
{
    version     2.0;
    format      ascii;
    class       volSymmTensorField;
    location    "10";
    object      R;
}
// * * * * * * * * * * * * * * * * * * * * * * * * * * * * * * * * * * * * * //

dimensions      [0 2 -2 0 0 0 0];

internalField   nonuniform List<symmTensor> 
120
(
(8.34728e-15 1.73077e-15 -0 8.34669e-15 -0 8.34693e-15)
(8.54687e-15 1.77074e-15 -0 8.54681e-15 -0 8.54685e-15)
(8.65741e-15 1.79339e-15 -0 8.65681e-15 -0 8.65716e-15)
(8.55993e-15 1.77356e-15 -0 8.56014e-15 -0 8.56003e-15)
(6.50339e-15 1.31082e-15 -0 6.50316e-15 -0 6.50329e-15)
(6.65314e-15 1.33977e-15 -0 6.65307e-15 -0 6.65311e-15)
(6.73646e-15 1.35653e-15 -0 6.73599e-15 -0 6.73621e-15)
(6.66372e-15 1.34175e-15 -0 6.66385e-15 -0 6.66378e-15)
(4.97702e-15 9.62449e-16 -0 4.97675e-15 -0 4.97685e-15)
(5.08758e-15 9.83073e-16 -0 5.08756e-15 -0 5.08757e-15)
(5.14921e-15 9.94543e-16 -0 5.14899e-15 -0 5.14911e-15)
(5.09592e-15 9.84025e-16 -0 5.09601e-15 -0 5.09596e-15)
(3.72836e-15 6.81158e-16 -0 3.72823e-15 -0 3.72831e-15)
(3.80861e-15 6.94949e-16 -0 3.80857e-15 -0 3.80859e-15)
(3.85333e-15 7.03092e-16 -0 3.85317e-15 -0 3.85325e-15)
(3.81501e-15 6.96051e-16 -0 3.81507e-15 -0 3.81503e-15)
(2.72212e-15 4.61644e-16 -0 2.72202e-15 -0 2.72206e-15)
(2.779e-15 4.7071e-16 -0 2.77897e-15 -0 2.77899e-15)
(2.81064e-15 4.75934e-16 -0 2.81057e-15 -0 2.81061e-15)
(2.78376e-15 4.71324e-16 -0 2.7838e-15 -0 2.78378e-15)
(1.92597e-15 2.96732e-16 -0 1.92593e-15 -0 1.92596e-15)
(1.96516e-15 3.0216e-16 -0 1.96515e-15 -0 1.96515e-15)
(1.98691e-15 3.05546e-16 -0 1.98687e-15 -0 1.98689e-15)
(1.9686e-15 3.02827e-16 -0 1.96863e-15 -0 1.96861e-15)
(1.3105e-15 1.7867e-16 -0 1.31047e-15 -0 1.31048e-15)
(1.33653e-15 1.81837e-16 -0 1.33652e-15 -0 1.33653e-15)
(1.35093e-15 1.83797e-16 -0 1.35092e-15 -0 1.35092e-15)
(1.33891e-15 1.82246e-16 -0 1.33892e-15 -0 1.33891e-15)
(8.48446e-16 9.885e-17 -0 8.4844e-16 -0 8.48443e-16)
(8.64972e-16 1.00578e-16 -0 8.6497e-16 -0 8.64971e-16)
(8.74069e-16 1.01663e-16 -0 8.74061e-16 -0 8.74065e-16)
(8.66516e-16 1.00833e-16 -0 8.66523e-16 -0 8.6652e-16)
(5.14683e-16 4.89105e-17 -0 5.14681e-16 -0 5.14682e-16)
(5.24553e-16 4.97833e-17 -0 5.24552e-16 -0 5.24553e-16)
(5.29948e-16 5.03054e-17 -0 5.29945e-16 -0 5.29946e-16)
(5.25479e-16 4.98954e-17 -0 5.25482e-16 -0 5.2548e-16)
(2.86006e-16 2.08175e-17 -0 2.86006e-16 -0 2.86006e-16)
(2.91409e-16 2.11956e-17 -0 2.91409e-16 -0 2.91409e-16)
(2.94346e-16 2.14129e-17 -0 2.94345e-16 -0 2.94346e-16)
(2.91915e-16 2.1238e-17 -0 2.91917e-16 -0 2.91916e-16)
(1.4803e-16 7.5671e-18 -0 1.4803e-16 -0 1.4803e-16)
(1.4803e-16 7.56539e-18 -0 1.4803e-16 -0 1.4803e-16)
(1.4803e-16 7.56574e-18 -0 1.4803e-16 -0 1.4803e-16)
(1.4803e-16 7.56541e-18 -0 1.4803e-16 -0 1.4803e-16)
(1.4803e-16 4.68686e-18 -0 1.4803e-16 -0 1.4803e-16)
(1.4803e-16 4.68693e-18 -0 1.4803e-16 -0 1.4803e-16)
(1.4803e-16 4.68654e-18 -0 1.4803e-16 -0 1.4803e-16)
(1.4803e-16 4.68624e-18 -0 1.4803e-16 -0 1.4803e-16)
(1.4803e-16 2.40867e-18 -0 1.4803e-16 -0 1.4803e-16)
(1.4803e-16 2.40909e-18 -0 1.4803e-16 -0 1.4803e-16)
(1.4803e-16 2.40853e-18 -0 1.4803e-16 -0 1.4803e-16)
(1.4803e-16 2.40846e-18 -0 1.4803e-16 -0 1.4803e-16)
(1.4803e-16 8.93407e-19 -0 1.4803e-16 -0 1.4803e-16)
(1.4803e-16 8.93681e-19 -0 1.4803e-16 -0 1.4803e-16)
(1.4803e-16 8.93369e-19 -0 1.4803e-16 -0 1.4803e-16)
(1.4803e-16 8.93381e-19 -0 1.4803e-16 -0 1.4803e-16)
(1.4803e-16 1.67379e-19 -0 1.4803e-16 -0 1.4803e-16)
(1.4803e-16 1.67448e-19 -0 1.4803e-16 -0 1.4803e-16)
(1.4803e-16 1.67371e-19 -0 1.4803e-16 -0 1.4803e-16)
(1.4803e-16 1.67375e-19 -0 1.4803e-16 -0 1.4803e-16)
(8.20011e-15 1.69956e-15 -0 8.20135e-15 -0 8.20073e-15)
(8.72594e-15 1.80696e-15 -0 8.72642e-15 -0 8.72621e-15)
(8.76038e-15 1.81325e-15 -0 8.76022e-15 -0 8.76035e-15)
(8.69123e-15 1.7997e-15 -0 8.69056e-15 -0 8.69088e-15)
(6.4021e-15 1.28954e-15 -0 6.40297e-15 -0 6.40254e-15)
(6.79009e-15 1.367e-15 -0 6.79041e-15 -0 6.79024e-15)
(6.81694e-15 1.37196e-15 -0 6.81674e-15 -0 6.81683e-15)
(6.76818e-15 1.36313e-15 -0 6.7678e-15 -0 6.768e-15)
(4.9085e-15 9.48248e-16 -0 4.90904e-15 -0 4.90877e-15)
(5.19029e-15 1.00222e-15 -0 5.19055e-15 -0 5.19043e-15)
(5.21075e-15 1.00589e-15 -0 5.21072e-15 -0 5.21073e-15)
(5.17684e-15 1.00029e-15 -0 5.17652e-15 -0 5.17667e-15)
(3.68304e-15 6.72089e-16 -0 3.68338e-15 -0 3.68321e-15)
(3.88399e-15 7.086e-16 -0 3.88414e-15 -0 3.88406e-15)
(3.89924e-15 7.11293e-16 -0 3.89918e-15 -0 3.8992e-15)
(3.87584e-15 7.0796e-16 -0 3.87565e-15 -0 3.87576e-15)
(2.69279e-15 4.55929e-16 -0 2.69299e-15 -0 2.69289e-15)
(2.83288e-15 4.79558e-16 -0 2.83298e-15 -0 2.83294e-15)
(2.84392e-15 4.8129e-16 -0 2.84389e-15 -0 2.84391e-15)
(2.82808e-15 4.79384e-16 -0 2.82796e-15 -0 2.82802e-15)
(1.90751e-15 2.93326e-16 -0 1.90762e-15 -0 1.90757e-15)
(2.00251e-15 3.07923e-16 -0 2.00257e-15 -0 2.00254e-15)
(2.01024e-15 3.09067e-16 -0 2.01021e-15 -0 2.01022e-15)
(1.99974e-15 3.0809e-16 -0 1.99967e-15 -0 1.99971e-15)
(1.29924e-15 1.76755e-16 -0 1.29929e-15 -0 1.29927e-15)
(1.36144e-15 1.85216e-16 -0 1.36147e-15 -0 1.36146e-15)
(1.36662e-15 1.8584e-16 -0 1.36661e-15 -0 1.36662e-15)
(1.35987e-15 1.8532e-16 -0 1.35983e-15 -0 1.35985e-15)
(8.41876e-16 9.79173e-17 -0 8.419e-16 -0 8.41888e-16)
(8.80805e-16 1.02463e-16 -0 8.80818e-16 -0 8.80812e-16)
(8.84109e-16 1.02817e-16 -0 8.841e-16 -0 8.84104e-16)
(8.79912e-16 1.0252e-16 -0 8.79892e-16 -0 8.79902e-16)
(5.11064e-16 4.85142e-17 -0 5.11073e-16 -0 5.11068e-16)
(5.3399e-16 5.07157e-17 -0 5.33996e-16 -0 5.33993e-16)
(5.35963e-16 5.08819e-17 -0 5.35959e-16 -0 5.35961e-16)
(5.33476e-16 5.06978e-17 -0 5.33467e-16 -0 5.33471e-16)
(2.84152e-16 2.06725e-17 -0 2.84155e-16 -0 2.84154e-16)
(2.96555e-16 2.15871e-17 -0 2.96557e-16 -0 2.96556e-16)
(2.97635e-16 2.16605e-17 -0 2.97634e-16 -0 2.97635e-16)
(2.96271e-16 2.15705e-17 -0 2.96268e-16 -0 2.9627e-16)
(1.48029e-16 7.5665e-18 -0 1.4803e-16 -0 1.4803e-16)
(1.48029e-16 7.57124e-18 -0 1.4803e-16 -0 1.4803e-16)
(1.4803e-16 7.56988e-18 -0 1.4803e-16 -0 1.4803e-16)
(1.4803e-16 7.56909e-18 -0 1.48029e-16 -0 1.4803e-16)
(1.4803e-16 4.68725e-18 -0 1.4803e-16 -0 1.4803e-16)
(1.4803e-16 4.6896e-18 -0 1.4803e-16 -0 1.4803e-16)
(1.4803e-16 4.68952e-18 -0 1.4803e-16 -0 1.4803e-16)
(1.4803e-16 4.68825e-18 -0 1.4803e-16 -0 1.4803e-16)
(1.4803e-16 2.40912e-18 -0 1.4803e-16 -0 1.4803e-16)
(1.4803e-16 2.41003e-18 -0 1.4803e-16 -0 1.4803e-16)
(1.4803e-16 2.41015e-18 -0 1.4803e-16 -0 1.4803e-16)
(1.4803e-16 2.40922e-18 -0 1.4803e-16 -0 1.4803e-16)
(1.4803e-16 8.93653e-19 -0 1.4803e-16 -0 1.4803e-16)
(1.4803e-16 8.93806e-19 -0 1.4803e-16 -0 1.4803e-16)
(1.4803e-16 8.9393e-19 -0 1.4803e-16 -0 1.4803e-16)
(1.4803e-16 8.93591e-19 -0 1.4803e-16 -0 1.4803e-16)
(1.4803e-16 1.67429e-19 -0 1.4803e-16 -0 1.4803e-16)
(1.4803e-16 1.67432e-19 -0 1.4803e-16 -0 1.4803e-16)
(1.4803e-16 1.67459e-19 -0 1.4803e-16 -0 1.4803e-16)
(1.4803e-16 1.67399e-19 -0 1.4803e-16 -0 1.4803e-16)
)
;

boundaryField
{
    topWall
    {
        type            kqRWallFunction;
        value           uniform (1.4803e-16 0 -0 1.4803e-16 -0 1.4803e-16);
    }
    botWall
    {
        type            kqRWallFunction;
        value           nonuniform List<symmTensor> 0();
    }
    inlet
    {
        type            cyclic;
    }
    outlet
    {
        type            cyclic;
    }
    fixWall
    {
        type            empty;
    }
    procBoundary7to6
    {
        type            processor;
        value           nonuniform List<symmTensor> 8((1.05523e-14 2.22224e-15 -0 1.05519e-14 -0 1.05521e-14) (1.08157e-14 2.2759e-15 -0 1.08157e-14 -0 1.08157e-14) (1.09604e-14 2.30672e-15 -0 1.09593e-14 -0 1.09598e-14) (1.08314e-14 2.28022e-15 -0 1.08317e-14 -0 1.08315e-14) (1.03425e-14 2.17753e-15 -0 1.03443e-14 -0 1.03434e-14) (1.10461e-14 2.32333e-15 -0 1.10465e-14 -0 1.10463e-14) (1.10896e-14 2.3308e-15 -0 1.10891e-14 -0 1.10894e-14) (1.09917e-14 2.3107e-15 -0 1.0991e-14 -0 1.09914e-14));
    }
}


// ************************************************************************* //
