/*--------------------------------*- C++ -*----------------------------------*\
  =========                 |
  \\      /  F ield         | OpenFOAM: The Open Source CFD Toolbox
   \\    /   O peration     | Website:  https://openfoam.org
    \\  /    A nd           | Version:  dev
     \\/     M anipulation  |

   OpenFOAM for Windows 20.09 (v1)
   Built by CFD Support, www.cfdsupport.com (based on Symscape).
\*---------------------------------------------------------------------------*/
FoamFile
{
    version     2.0;
    format      ascii;
    class       volVectorField;
    location    "10";
    object      U;
}
// * * * * * * * * * * * * * * * * * * * * * * * * * * * * * * * * * * * * * //

dimensions      [0 1 -1 0 0 0 0];

internalField   nonuniform List<vector> 
120
(
(0.45647 -5.42353e-06 0)
(0.45647 -2.6255e-06 0)
(0.456461 -9.95719e-06 0)
(0.456359 6.47642e-06 0)
(0.44235 -4.93592e-06 0)
(0.442382 -1.86586e-06 0)
(0.442328 -8.59412e-06 0)
(0.442216 5.95671e-06 0)
(0.426424 -3.84943e-06 0)
(0.42642 -2.23985e-06 0)
(0.426406 -7.48543e-06 0)
(0.426318 5.62898e-06 0)
(0.408582 -3.05272e-06 0)
(0.408601 -1.74078e-06 0)
(0.408556 -6.52864e-06 0)
(0.408468 5.12956e-06 0)
(0.388601 -1.71068e-06 0)
(0.388593 -1.54197e-06 0)
(0.388574 -5.46046e-06 0)
(0.388512 4.67708e-06 0)
(0.366333 -1.05296e-06 0)
(0.366338 -1.21752e-06 0)
(0.366301 -4.78653e-06 0)
(0.366251 4.20478e-06 0)
(0.341556 -9.28998e-08 0)
(0.341561 -9.96461e-07 0)
(0.341534 -4.07128e-06 0)
(0.341498 3.68089e-06 0)
(0.314095 4.23688e-07 0)
(0.314115 -7.4349e-07 0)
(0.314077 -3.51141e-06 0)
(0.314051 3.16552e-06 0)
(0.283735 8.72836e-07 0)
(0.283765 -6.21412e-07 0)
(0.283722 -2.92248e-06 0)
(0.283703 2.61033e-06 0)
(0.250264 1.01409e-06 0)
(0.250306 -4.53215e-07 0)
(0.250254 -2.34862e-06 0)
(0.250243 2.08922e-06 0)
(0.213464 1.0114e-06 0)
(0.213511 -3.69283e-07 0)
(0.213455 -1.77012e-06 0)
(0.213449 1.55137e-06 0)
(0.173108 8.26656e-07 0)
(0.173157 -2.29364e-07 0)
(0.1731 -1.19951e-06 0)
(0.173099 1.04977e-06 0)
(0.128969 5.70325e-07 0)
(0.129013 -1.50295e-07 0)
(0.128963 -6.95126e-07 0)
(0.128965 5.97101e-07 0)
(0.0808157 2.8485e-07 0)
(0.0808478 -7.5594e-08 0)
(0.0808123 -3.03306e-07 0)
(0.0808146 2.33889e-07 0)
(0.0284152 5.91173e-08 0)
(0.028428 -1.38295e-09 0)
(0.0284133 -3.51605e-08 0)
(0.0284138 4.04728e-08 0)
(0.456505 2.1935e-05 0)
(0.45665 1.04807e-05 0)
(0.456625 -4.90758e-06 0)
(0.456635 -1.60569e-05 0)
(0.442369 1.93689e-05 0)
(0.442523 9.55838e-06 0)
(0.442468 -4.45624e-06 0)
(0.442452 -1.42456e-05 0)
(0.426451 1.69139e-05 0)
(0.426606 8.65483e-06 0)
(0.426594 -3.9884e-06 0)
(0.426594 -1.3815e-05 0)
(0.408599 1.45627e-05 0)
(0.408759 7.56766e-06 0)
(0.408716 -4.23179e-06 0)
(0.408689 -1.17322e-05 0)
(0.388624 1.21192e-05 0)
(0.388774 6.4717e-06 0)
(0.388767 -3.56919e-06 0)
(0.388752 -1.08801e-05 0)
(0.366355 1.00245e-05 0)
(0.366508 5.3931e-06 0)
(0.366475 -3.61565e-06 0)
(0.366429 -9.08798e-06 0)
(0.341589 7.9875e-06 0)
(0.341723 4.42984e-06 0)
(0.341718 -2.72061e-06 0)
(0.341674 -8.13171e-06 0)
(0.314135 6.17236e-06 0)
(0.314269 3.42994e-06 0)
(0.314253 -2.59254e-06 0)
(0.314178 -6.38255e-06 0)
(0.283778 4.46499e-06 0)
(0.283884 2.51322e-06 0)
(0.28389 -1.62162e-06 0)
(0.283817 -5.27362e-06 0)
(0.250312 3.09611e-06 0)
(0.250401 1.68597e-06 0)
(0.250406 -1.37069e-06 0)
(0.250322 -3.7173e-06 0)
(0.213509 1.91107e-06 0)
(0.213568 1.0084e-06 0)
(0.213587 -6.27735e-07 0)
(0.213514 -2.70737e-06 0)
(0.173151 1.07957e-06 0)
(0.173189 4.97233e-07 0)
(0.173206 -4.56607e-07 0)
(0.17314 -1.56477e-06 0)
(0.129005 4.59818e-07 0)
(0.12902 1.66634e-07 0)
(0.12904 -6.66195e-08 0)
(0.128992 -8.78845e-07 0)
(0.0808408 1.49288e-07 0)
(0.080844 3.4016e-08 0)
(0.0808564 -5.50424e-08 0)
(0.0808264 -2.65133e-07 0)
(0.0284232 -1.56433e-08 0)
(0.0284217 -4.3285e-08 0)
(0.0284272 4.90001e-08 0)
(0.0284179 -5.26936e-08 0)
)
;

boundaryField
{
    topWall
    {
        type            noSlip;
    }
    botWall
    {
        type            noSlip;
    }
    inlet
    {
        type            cyclic;
    }
    outlet
    {
        type            cyclic;
    }
    fixWall
    {
        type            empty;
    }
    procBoundary7to6
    {
        type            processor;
        value           nonuniform List<vector> 8((0.468997 -6.7567e-06 0) (0.469033 -2.22966e-06 0) (0.468979 -1.11779e-05 0) (0.468866 6.79725e-06 0) (0.469027 2.42697e-05 0) (0.469159 1.11013e-05 0) (0.469088 -5.37788e-06 0) (0.469078 -1.66387e-05 0));
    }
}


// ************************************************************************* //
