/*--------------------------------*- C++ -*----------------------------------*\
  =========                 |
  \\      /  F ield         | OpenFOAM: The Open Source CFD Toolbox
   \\    /   O peration     | Website:  https://openfoam.org
    \\  /    A nd           | Version:  dev
     \\/     M anipulation  |

   OpenFOAM for Windows 20.09 (v1)
   Built by CFD Support, www.cfdsupport.com (based on Symscape).
\*---------------------------------------------------------------------------*/
FoamFile
{
    version     2.0;
    format      ascii;
    class       volVectorField;
    location    "10";
    object      UMean;
}
// * * * * * * * * * * * * * * * * * * * * * * * * * * * * * * * * * * * * * //

dimensions      [0 1 -1 0 0 0 0];

internalField   nonuniform List<vector> 
120
(
(0.265635 5.62912e-06 0)
(0.265736 2.25627e-06 0)
(0.265731 -8.25352e-06 0)
(0.265605 -4.92362e-07 0)
(0.260113 5.62444e-06 0)
(0.2602 1.71109e-06 0)
(0.26019 -7.07814e-06 0)
(0.26008 -4.76754e-07 0)
(0.253575 5.44556e-06 0)
(0.253654 1.18752e-06 0)
(0.253645 -6.28751e-06 0)
(0.253547 -5.2923e-07 0)
(0.245882 5.46932e-06 0)
(0.245948 7.1485e-07 0)
(0.245935 -5.35327e-06 0)
(0.245855 -4.6195e-07 0)
(0.236839 5.40632e-06 0)
(0.2369 3.82667e-07 0)
(0.236884 -4.69145e-06 0)
(0.236818 -3.43502e-07 0)
(0.226261 5.08534e-06 0)
(0.22632 1.24597e-07 0)
(0.226296 -3.97534e-06 0)
(0.226246 -3.10771e-07 0)
(0.213927 4.70878e-06 0)
(0.213988 4.66656e-09 0)
(0.213955 -3.43938e-06 0)
(0.213918 -2.15791e-07 0)
(0.199606 4.1213e-06 0)
(0.199669 -1.4503e-07 0)
(0.199628 -2.7892e-06 0)
(0.1996 -1.51051e-07 0)
(0.183045 3.47111e-06 0)
(0.183108 -1.93873e-07 0)
(0.183063 -2.29544e-06 0)
(0.183043 -1.01626e-07 0)
(0.163971 2.7626e-06 0)
(0.16403 -2.55464e-07 0)
(0.163985 -1.71122e-06 0)
(0.163971 -5.02192e-08 0)
(0.142095 2.07393e-06 0)
(0.14215 -2.4409e-07 0)
(0.142105 -1.27923e-06 0)
(0.142096 -3.39177e-08 0)
(0.117113 1.40682e-06 0)
(0.11716 -2.2397e-07 0)
(0.11712 -8.09538e-07 0)
(0.117113 -1.51511e-08 0)
(0.0887057 8.35751e-07 0)
(0.0887441 -1.75385e-07 0)
(0.0887105 -4.75954e-07 0)
(0.0887061 -8.11836e-09 0)
(0.0565464 3.60602e-07 0)
(0.0565721 -1.19433e-07 0)
(0.0565486 -1.94913e-07 0)
(0.0565456 5.80736e-09 0)
(0.0202987 6.61307e-08 0)
(0.0203081 -2.96392e-08 0)
(0.0202978 -2.28751e-08 0)
(0.0202964 2.9464e-09 0)
(0.265723 7.51096e-06 0)
(0.265771 4.82998e-06 0)
(0.265768 -2.55572e-06 0)
(0.265754 -9.04794e-06 0)
(0.260188 6.18268e-06 0)
(0.260241 4.61147e-06 0)
(0.260226 -2.3375e-06 0)
(0.260206 -7.64471e-06 0)
(0.253634 4.72451e-06 0)
(0.253684 4.07999e-06 0)
(0.253689 -2.22367e-06 0)
(0.25367 -7.03601e-06 0)
(0.24593 3.86772e-06 0)
(0.245983 3.76078e-06 0)
(0.245975 -2.02814e-06 0)
(0.245948 -5.78245e-06 0)
(0.23687 2.82089e-06 0)
(0.236918 3.26895e-06 0)
(0.236931 -1.82054e-06 0)
(0.2369 -5.07393e-06 0)
(0.226286 2.09969e-06 0)
(0.226335 2.83951e-06 0)
(0.226338 -1.66965e-06 0)
(0.22629 -4.17568e-06 0)
(0.213942 1.40761e-06 0)
(0.21398 2.33992e-06 0)
(0.214 -1.31942e-06 0)
(0.213948 -3.54581e-06 0)
(0.19962 9.68743e-07 0)
(0.199657 1.93246e-06 0)
(0.199672 -1.07177e-06 0)
(0.199608 -2.78844e-06 0)
(0.183053 5.30828e-07 0)
(0.183079 1.46083e-06 0)
(0.183105 -6.94179e-07 0)
(0.183043 -2.25066e-06 0)
(0.163978 3.04767e-07 0)
(0.164 1.10298e-06 0)
(0.164022 -4.6386e-07 0)
(0.163961 -1.62741e-06 0)
(0.142099 8.9695e-08 0)
(0.142111 7.40029e-07 0)
(0.142138 -1.96141e-07 0)
(0.142086 -1.19365e-06 0)
(0.117115 2.36552e-08 0)
(0.117122 4.78512e-07 0)
(0.117145 -7.95536e-08 0)
(0.117101 -7.47592e-07 0)
(0.0887059 -2.34527e-08 0)
(0.0887067 2.54104e-07 0)
(0.0887295 2.74233e-08 0)
(0.088697 -4.53617e-07 0)
(0.0565451 3.00162e-09 0)
(0.0565449 9.91382e-08 0)
(0.056561 1.80927e-08 0)
(0.0565397 -1.61212e-07 0)
(0.0202963 -7.1829e-09 0)
(0.0202961 2.00333e-08 0)
(0.0203032 2.56456e-08 0)
(0.0202957 -5.91629e-08 0)
)
;

boundaryField
{
    topWall
    {
        type            calculated;
        value           uniform (0 0 0);
    }
    botWall
    {
        type            calculated;
        value           nonuniform List<vector> 0();
    }
    inlet
    {
        type            cyclic;
    }
    outlet
    {
        type            cyclic;
    }
    fixWall
    {
        type            empty;
    }
    procBoundary7to6
    {
        type            processor;
        value           nonuniform List<vector> 8((0.270302 5.59501e-06 0) (0.270409 2.96475e-06 0) (0.270402 -9.39768e-06 0) (0.270268 -5.73035e-07 0) (0.270405 9.00147e-06 0) (0.270455 5.14843e-06 0) (0.270429 -2.74177e-06 0) (0.270414 -1.01456e-05 0));
    }
}


// ************************************************************************* //
