/*--------------------------------*- C++ -*----------------------------------*\
  =========                 |
  \\      /  F ield         | OpenFOAM: The Open Source CFD Toolbox
   \\    /   O peration     | Website:  https://openfoam.org
    \\  /    A nd           | Version:  dev
     \\/     M anipulation  |

   OpenFOAM for Windows 20.09 (v1)
   Built by CFD Support, www.cfdsupport.com (based on Symscape).
\*---------------------------------------------------------------------------*/
FoamFile
{
    version     2.0;
    format      ascii;
    class       volSymmTensorField;
    location    "10";
    object      UPrime2Mean;
}
// * * * * * * * * * * * * * * * * * * * * * * * * * * * * * * * * * * * * * //

dimensions      [0 2 -2 0 0 0 0];

internalField   nonuniform List<symmTensor> 
120
(
(0.0089003 -3.51686e-07 0 2.16742e-11 0 0)
(0.00890212 1.04171e-07 0 3.20921e-11 0 0)
(0.00890235 -3.57005e-07 0 4.43508e-11 0 0)
(0.00889444 6.41949e-08 0 2.12687e-11 0 0)
(0.00816068 -3.34523e-07 0 2.08673e-11 0 0)
(0.00816477 1.07782e-07 0 2.71714e-11 0 0)
(0.00816281 -3.06193e-07 0 3.84525e-11 0 0)
(0.00815409 6.66203e-08 0 1.72968e-11 0 0)
(0.00738292 -2.69703e-07 0 1.75544e-11 0 0)
(0.00738455 7.59451e-08 0 2.2911e-11 0 0)
(0.00738437 -2.45598e-07 0 3.16773e-11 0 0)
(0.00737715 6.15523e-08 0 1.67522e-11 0 0)
(0.00657682 -2.44964e-07 0 1.61676e-11 0 0)
(0.00657953 7.13657e-08 0 1.73591e-11 0 0)
(0.00657812 -2.112e-07 0 2.76756e-11 0 0)
(0.00657113 5.41663e-08 0 1.39297e-11 0 0)
(0.00575351 -1.83498e-07 0 1.32035e-11 0 0)
(0.00575451 5.85408e-08 0 1.38924e-11 0 0)
(0.00575423 -1.59289e-07 0 2.18636e-11 0 0)
(0.00574855 4.56084e-08 0 1.21167e-11 0 0)
(0.00492638 -1.47269e-07 0 1.06603e-11 0 0)
(0.00492752 5.38433e-08 0 1.1252e-11 0 0)
(0.00492689 -1.3095e-07 0 1.79161e-11 0 0)
(0.0049221 3.81294e-08 0 9.77305e-12 0 0)
(0.00411047 -9.74995e-08 0 8.01346e-12 0 0)
(0.00411119 4.28079e-08 0 8.43146e-12 0 0)
(0.00411106 -9.54299e-08 0 1.3359e-11 0 0)
(0.00410714 2.84596e-08 0 7.59682e-12 0 0)
(0.00332264 -6.56886e-08 0 5.43706e-12 0 0)
(0.00332361 3.63761e-08 0 6.18918e-12 0 0)
(0.00332346 -7.50408e-08 0 1.01298e-11 0 0)
(0.00332059 1.95959e-08 0 5.35862e-12 0 0)
(0.00258081 -3.55294e-08 0 3.48867e-12 0 0)
(0.00258196 2.67266e-08 0 4.10198e-12 0 0)
(0.0025815 -5.23741e-08 0 6.77698e-12 0 0)
(0.00257933 1.23258e-08 0 3.55568e-12 0 0)
(0.00190256 -1.86922e-08 0 1.94026e-12 0 0)
(0.00190391 1.9952e-08 0 2.57759e-12 0 0)
(0.00190333 -3.69416e-08 0 4.31806e-12 0 0)
(0.00190186 6.58607e-09 0 2.08372e-12 0 0)
(0.00130553 -7.30329e-09 0 9.75529e-13 0 0)
(0.00130687 1.24491e-08 0 1.42009e-12 0 0)
(0.00130622 -2.21203e-08 0 2.2664e-12 0 0)
(0.00130516 2.96609e-09 0 1.106e-12 0 0)
(0.000805752 -2.28609e-09 0 3.94335e-13 0 0)
(0.000806836 7.07173e-09 0 6.87555e-13 0 0)
(0.000806285 -1.20985e-08 0 1.03293e-12 0 0)
(0.000805659 8.79989e-10 0 4.86359e-13 0 0)
(0.000417438 -2.67514e-10 0 1.22048e-13 0 0)
(0.000418145 3.11475e-09 0 2.5036e-13 0 0)
(0.000417759 -4.81472e-09 0 3.29728e-13 0 0)
(0.000417424 -1.00112e-10 0 1.66702e-13 0 0)
(0.00015189 1.71503e-10 0 2.50079e-14 0 0)
(0.000152204 8.5077e-10 0 4.52657e-14 0 0)
(0.000152039 -1.32599e-09 0 6.8964e-14 0 0)
(0.00015191 -3.79672e-10 0 4.11623e-14 0 0)
(1.70125e-05 1.76751e-11 0 9.67414e-16 0 0)
(1.70572e-05 7.49449e-11 0 3.25885e-15 0 0)
(1.7035e-05 -3.76271e-11 0 1.3197e-15 0 0)
(1.70128e-05 -1.39069e-11 0 6.83928e-16 0 0)
(0.00890206 6.16008e-07 0 5.01496e-11 0 0)
(0.00891043 3.54858e-07 0 3.32322e-11 0 0)
(0.00890982 1.18311e-07 0 1.36649e-11 0 0)
(0.00891052 -5.40268e-07 0 4.77014e-11 0 0)
(0.00816214 5.21526e-07 0 4.01035e-11 0 0)
(0.00817207 3.09531e-07 0 2.86688e-11 0 0)
(0.00816967 1.16772e-07 0 1.28927e-11 0 0)
(0.00816738 -4.60401e-07 0 3.77976e-11 0 0)
(0.00738484 4.32321e-07 0 3.15061e-11 0 0)
(0.00739375 2.64568e-07 0 2.45471e-11 0 0)
(0.0073939 1.30162e-07 0 1.32997e-11 0 0)
(0.00739385 -4.21393e-07 0 3.33567e-11 0 0)
(0.00657826 3.33785e-07 0 2.2939e-11 0 0)
(0.00658754 2.08075e-07 0 1.97271e-11 0 0)
(0.00658649 1.0353e-07 0 1.23069e-11 0 0)
(0.00658449 -3.32803e-07 0 2.42011e-11 0 0)
(0.00575548 2.55287e-07 0 1.73674e-11 0 0)
(0.00576243 1.64253e-07 0 1.57757e-11 0 0)
(0.00576307 1.10704e-07 0 1.23599e-11 0 0)
(0.00576373 -2.80342e-07 0 1.97747e-11 0 0)
(0.00492829 1.82716e-07 0 1.2444e-11 0 0)
(0.0049347 1.23201e-07 0 1.17804e-11 0 0)
(0.00493448 8.55296e-08 0 1.06898e-11 0 0)
(0.00493416 -2.1395e-07 0 1.34531e-11 0 0)
(0.00411261 1.2439e-07 0 8.95254e-12 0 0)
(0.004117 9.26024e-08 0 8.82588e-12 0 0)
(0.0041179 8.34562e-08 0 9.51772e-12 0 0)
(0.00411884 -1.71705e-07 0 1.02652e-11 0 0)
(0.00332479 7.75975e-08 0 6.13835e-12 0 0)
(0.0033285 6.35184e-08 0 5.81754e-12 0 0)
(0.00332913 5.84939e-08 0 7.12965e-12 0 0)
(0.00332896 -1.19808e-07 0 6.30223e-12 0 0)
(0.00258267 4.35453e-08 0 4.00332e-12 0 0)
(0.00258472 4.26165e-08 0 3.89362e-12 0 0)
(0.00258608 5.22881e-08 0 5.40483e-12 0 0)
(0.00258631 -8.62914e-08 0 4.23055e-12 0 0)
(0.00190419 2.14088e-08 0 2.37033e-12 0 0)
(0.00190548 2.52403e-08 0 2.24051e-12 0 0)
(0.00190669 3.28228e-08 0 3.30751e-12 0 0)
(0.00190638 -5.23779e-08 0 2.24427e-12 0 0)
(0.00130672 7.84331e-09 0 1.26423e-12 0 0)
(0.00130714 1.38167e-08 0 1.2623e-12 0 0)
(0.00130848 2.49143e-08 0 2.01547e-12 0 0)
(0.00130834 -3.14568e-08 0 1.22309e-12 0 0)
(0.00080658 1.81417e-09 0 5.46831e-13 0 0)
(0.000806682 5.99741e-09 0 5.52646e-13 0 0)
(0.000807678 1.23967e-08 0 8.92966e-13 0 0)
(0.000807428 -1.43173e-08 0 4.75863e-13 0 0)
(0.000417898 -7.26036e-10 0 1.96283e-13 0 0)
(0.000417782 1.81661e-09 0 1.98191e-13 0 0)
(0.000418469 6.63615e-09 0 3.56639e-13 0 0)
(0.000418368 -5.42382e-09 0 1.604e-13 0 0)
(0.000152055 -6.23525e-10 0 3.73938e-14 0 0)
(0.000151952 3.37977e-10 0 4.25304e-14 0 0)
(0.00015224 1.72947e-09 0 8.15349e-14 0 0)
(0.00015221 -8.64688e-10 0 3.97287e-14 0 0)
(1.70184e-05 -9.24466e-11 0 2.771e-15 0 0)
(1.69935e-05 -6.9101e-11 0 1.30568e-15 0 0)
(1.70375e-05 1.53666e-10 0 2.88941e-15 0 0)
(1.70458e-05 -1.39779e-11 0 1.09321e-15 0 0)
)
;

boundaryField
{
    topWall
    {
        type            calculated;
        value           uniform (0 0 0 0 0 0);
    }
    botWall
    {
        type            calculated;
        value           nonuniform List<symmTensor> 0();
    }
    inlet
    {
        type            cyclic;
    }
    outlet
    {
        type            cyclic;
    }
    fixWall
    {
        type            empty;
    }
    procBoundary7to6
    {
        type            processor;
        value           nonuniform List<symmTensor> 8((0.00959569 -4.0871e-07 0 2.59806e-11 0 0) (0.00959996 1.34172e-07 0 3.88486e-11 0 0) (0.00959798 -4.11317e-07 0 5.17099e-11 0 0) (0.00958922 6.18267e-08 0 2.3584e-11 0 0) (0.00959651 6.99413e-07 0 5.98909e-11 0 0) (0.00960439 3.88028e-07 0 3.58485e-11 0 0) (0.00960098 1.07197e-07 0 1.28391e-11 0 0) (0.00960004 -5.67803e-07 0 5.02593e-11 0 0));
    }
}


// ************************************************************************* //
