/*--------------------------------*- C++ -*----------------------------------*\
  =========                 |
  \\      /  F ield         | OpenFOAM: The Open Source CFD Toolbox
   \\    /   O peration     | Website:  https://openfoam.org
    \\  /    A nd           | Version:  dev
     \\/     M anipulation  |

   OpenFOAM for Windows 20.09 (v1)
   Built by CFD Support, www.cfdsupport.com (based on Symscape).
\*---------------------------------------------------------------------------*/
FoamFile
{
    version     2.0;
    format      ascii;
    class       surfaceScalarField;
    location    "8";
    object      alphaPhi0.water;
}
// * * * * * * * * * * * * * * * * * * * * * * * * * * * * * * * * * * * * * //

dimensions      [0 3 -1 0 0 0 0];

internalField   nonuniform List<scalar> 
217
(
3.10001e-08
9.64536e-12
3.09815e-08
5.03677e-11
3.0936e-08
2.18106e-10
2.96657e-10
3.09218e-08
3.15922e-08
-7.54578e-12
3.1568e-08
7.46509e-11
3.15226e-08
2.63515e-10
3.12751e-10
3.15064e-08
3.20991e-08
-2.60744e-11
3.20726e-08
1.01125e-10
3.20231e-08
3.12975e-10
3.26216e-10
3.20097e-08
3.25308e-08
-4.49844e-11
3.25027e-08
1.29267e-10
3.24514e-08
3.64268e-10
3.36476e-10
3.24411e-08
3.28984e-08
-6.44501e-11
3.28688e-08
1.58861e-10
3.28157e-08
4.17431e-10
3.42935e-10
3.28092e-08
3.32096e-08
-8.37245e-11
3.3179e-08
1.89458e-10
3.31255e-08
4.71005e-10
3.45457e-10
3.31229e-08
3.34733e-08
-1.0325e-10
3.34419e-08
2.2086e-10
3.33881e-08
5.24786e-10
3.43831e-10
3.33897e-08
3.36958e-08
-1.22462e-10
3.36639e-08
2.52736e-10
3.36111e-08
5.77693e-10
3.38195e-10
3.36167e-08
3.38843e-08
-1.41975e-10
3.38518e-08
2.85148e-10
3.38004e-08
6.29215e-10
3.28241e-10
3.38103e-08
3.40431e-08
-1.60976e-10
3.40114e-08
3.16877e-10
3.39618e-08
6.78831e-10
3.13986e-10
3.3976e-08
3.41787e-08
-1.80031e-10
3.41476e-08
3.48013e-10
3.41007e-08
7.25697e-10
2.95239e-10
3.41195e-08
3.42949e-08
-1.98614e-10
3.42646e-08
3.78267e-10
3.42217e-08
7.6871e-10
2.7189e-10
3.4245e-08
3.43965e-08
-2.17222e-10
3.43674e-08
4.07308e-10
3.43291e-08
8.07016e-10
2.43421e-10
3.43576e-08
3.44866e-08
-2.34926e-10
3.44591e-08
4.34829e-10
3.44267e-08
8.39455e-10
2.09681e-10
3.44604e-08
3.45715e-08
3.45432e-08
3.45215e-08
3.45569e-08
3.09415e-08
-6.57591e-11
3.10006e-08
-4.29454e-10
3.09837e-08
1.9758e-10
-2.79745e-10
3.15344e-08
-9.37521e-11
3.15931e-08
-4.88126e-10
3.15753e-08
2.15358e-10
-2.79473e-10
3.20431e-08
-1.27139e-10
3.21033e-08
-5.48367e-10
3.20827e-08
2.35978e-10
-2.77346e-10
3.24783e-08
-1.64283e-10
3.25391e-08
-6.09184e-10
3.25162e-08
2.58849e-10
-2.73044e-10
3.28502e-08
-2.05345e-10
3.29104e-08
-6.69387e-10
3.2885e-08
2.84318e-10
-2.6699e-10
3.31666e-08
-2.49014e-10
3.32256e-08
-7.28383e-10
3.31981e-08
3.1178e-10
-2.59192e-10
3.34356e-08
-2.94866e-10
3.34925e-08
-7.85317e-10
3.3463e-08
3.41347e-10
-2.49983e-10
3.36638e-08
-3.42e-10
3.37183e-08
-8.39763e-10
3.36869e-08
3.72749e-10
-2.39717e-10
3.3858e-08
-3.89672e-10
3.39091e-08
-8.9086e-10
3.38758e-08
4.06031e-10
-2.28675e-10
3.40234e-08
-4.37034e-10
3.40706e-08
-9.38044e-10
3.40357e-08
4.40889e-10
-2.1706e-10
3.41658e-08
-4.83347e-10
3.42081e-08
-9.80384e-10
3.41716e-08
4.77479e-10
-2.05186e-10
3.42893e-08
-5.27652e-10
3.4326e-08
-1.0171e-09
3.42881e-08
5.15383e-10
-1.93401e-10
3.4399e-08
-5.69015e-10
3.4429e-08
-1.04718e-09
3.43893e-08
5.55108e-10
-1.81959e-10
3.44979e-08
-6.065e-10
3.45205e-08
-1.06984e-09
3.44795e-08
5.96161e-10
-1.71407e-10
3.45927e-08
3.46045e-08
3.45613e-08
)
;

boundaryField
{
    topWall
    {
        type            calculated;
        value           nonuniform List<scalar> 0();
    }
    botWall
    {
        type            calculated;
        value           nonuniform List<scalar> 0();
    }
    inlet
    {
        type            cyclic;
        value           nonuniform List<scalar> 
15
(
-3.45515e-08
-3.44689e-08
-3.43779e-08
-3.42763e-08
-3.41597e-08
-3.40241e-08
-3.38648e-08
-3.36766e-08
-3.34538e-08
-3.31903e-08
-3.28789e-08
-3.25119e-08
-3.20805e-08
-3.15751e-08
-3.09838e-08
)
;
    }
    outlet
    {
        type            cyclic;
        value           nonuniform List<scalar> 
15
(
3.45515e-08
3.44689e-08
3.43779e-08
3.42763e-08
3.41597e-08
3.40241e-08
3.38648e-08
3.36766e-08
3.34538e-08
3.31903e-08
3.28789e-08
3.25119e-08
3.20805e-08
3.15751e-08
3.09838e-08
)
;
    }
    fixWall
    {
        type            empty;
        value           nonuniform List<scalar> 0();
    }
    procBoundary1to0
    {
        type            processor;
        value           nonuniform List<scalar> 8(-2.63578e-11 -3.12712e-11 -1.73016e-10 -2.83477e-10 4.57257e-11 3.70097e-10 -1.80801e-10 2.79282e-10);
    }
    procBoundary1to2
    {
        type            processor;
        value           nonuniform List<scalar> 8(-2.54802e-10 4.63998e-10 8.60614e-10 1.75058e-10 -6.42611e-10 -1.08141e-09 6.40496e-10 -1.61606e-10);
    }
}


// ************************************************************************* //
