/*--------------------------------*- C++ -*----------------------------------*\
  =========                 |
  \\      /  F ield         | OpenFOAM: The Open Source CFD Toolbox
   \\    /   O peration     | Website:  https://openfoam.org
    \\  /    A nd           | Version:  dev
     \\/     M anipulation  |

   OpenFOAM for Windows 20.09 (v1)
   Built by CFD Support, www.cfdsupport.com (based on Symscape).
\*---------------------------------------------------------------------------*/
FoamFile
{
    version     2.0;
    format      ascii;
    class       volSymmTensorField;
    location    "8";
    object      devReff;
}
// * * * * * * * * * * * * * * * * * * * * * * * * * * * * * * * * * * * * * //

dimensions      [0 2 -2 0 0 0 0];

internalField   nonuniform List<symmTensor> 
120
(
(-1.51125e-07 -0.00017741 -0 1.20222e-07 -0 3.09032e-08)
(1.80993e-07 -0.000178818 -0 -1.52623e-07 -0 -2.83696e-08)
(3.81188e-07 -0.000176817 -0 -4.0541e-07 -0 2.42222e-08)
(1.55124e-07 -0.000175866 -0 -1.32233e-07 -0 -2.28906e-08)
(-1.75266e-07 -0.000153115 -0 1.52483e-07 -0 2.2783e-08)
(2.05681e-07 -0.00015372 -0 -1.81235e-07 -0 -2.4446e-08)
(4.34278e-07 -0.000151988 -0 -4.63912e-07 -0 2.96346e-08)
(1.4673e-07 -0.00015146 -0 -1.2502e-07 -0 -2.17105e-08)
(-1.80017e-07 -0.0001312 -0 1.55091e-07 -0 2.49258e-08)
(2.14148e-07 -0.000131677 -0 -1.8141e-07 -0 -3.27375e-08)
(4.63676e-07 -0.00013021 -0 -4.95902e-07 -0 3.22264e-08)
(1.26282e-07 -0.00013002 -0 -1.01455e-07 -0 -2.48272e-08)
(-1.94422e-07 -0.000112011 -0 1.74891e-07 -0 1.95312e-08)
(2.32898e-07 -0.00011242 -0 -2.02754e-07 -0 -3.01448e-08)
(4.7981e-07 -0.00011117 -0 -5.00844e-07 -0 2.10339e-08)
(1.04102e-07 -0.000111228 -0 -8.35935e-08 -0 -2.05083e-08)
(-1.9056e-07 -9.53199e-05 -0 1.65757e-07 -0 2.48031e-08)
(2.47569e-07 -9.56654e-05 -0 -2.20321e-07 -0 -2.72483e-08)
(4.99692e-07 -9.46585e-05 -0 -5.29466e-07 -0 2.97745e-08)
(7.29934e-08 -9.49835e-05 -0 -5.16826e-08 -0 -2.13109e-08)
(-1.96911e-07 -8.09131e-05 -0 1.7454e-07 -0 2.23711e-08)
(2.5644e-07 -8.12245e-05 -0 -2.27944e-07 -0 -2.84954e-08)
(5.05237e-07 -8.0413e-05 -0 -5.30486e-07 -0 2.52494e-08)
(3.81248e-08 -8.09154e-05 -0 -1.66972e-08 -0 -2.14275e-08)
(-1.96076e-07 -6.85687e-05 -0 1.74282e-07 -0 2.17941e-08)
(2.63973e-07 -6.88318e-05 -0 -2.36653e-07 -0 -2.732e-08)
(5.05678e-07 -6.82312e-05 -0 -5.32862e-07 -0 2.71843e-08)
(2.55209e-09 -6.89467e-05 -0 1.87843e-08 -0 -2.13364e-08)
(-1.95493e-07 -5.80773e-05 -0 1.71571e-07 -0 2.39217e-08)
(2.68277e-07 -5.82992e-05 -0 -2.40616e-07 -0 -2.76612e-08)
(4.99544e-07 -5.78943e-05 -0 -5.24895e-07 -0 2.53512e-08)
(-3.56176e-08 -5.87815e-05 -0 5.6861e-08 -0 -2.12435e-08)
(-1.94832e-07 -4.92213e-05 -0 1.73016e-07 -0 2.18162e-08)
(2.69657e-07 -4.94228e-05 -0 -2.42218e-07 -0 -2.74391e-08)
(4.88026e-07 -4.92444e-05 -0 -5.1582e-07 -0 2.77937e-08)
(-7.39439e-08 -5.03191e-05 -0 9.49711e-08 -0 -2.10272e-08)
(-1.94729e-07 -4.18748e-05 -0 1.72394e-07 -0 2.2335e-08)
(2.64999e-07 -4.20485e-05 -0 -2.35191e-07 -0 -2.98078e-08)
(4.65429e-07 -4.20908e-05 -0 -4.88966e-07 -0 2.35361e-08)
(-1.13112e-07 -4.33463e-05 -0 1.32934e-07 -0 -1.9822e-08)
(-1.9011e-07 -3.58932e-05 -0 1.66835e-07 -0 2.32755e-08)
(2.63836e-07 -3.60312e-05 -0 -2.38194e-07 -0 -2.56417e-08)
(4.47977e-07 -3.62837e-05 -0 -4.81617e-07 -0 3.36392e-08)
(-1.6013e-07 -3.77925e-05 -0 1.86074e-07 -0 -2.59445e-08)
(-1.89709e-07 -3.12081e-05 -0 1.65606e-07 -0 2.4103e-08)
(2.5495e-07 -3.12413e-05 -0 -2.28596e-07 -0 -2.63545e-08)
(3.99734e-07 -3.16897e-05 -0 -4.19139e-07 -0 1.94045e-08)
(-2.02207e-07 -3.34499e-05 -0 2.25537e-07 -0 -2.33299e-08)
(-1.84263e-07 -2.76291e-05 -0 1.61562e-07 -0 2.27019e-08)
(2.42978e-07 -2.76e-05 -0 -2.13097e-07 -0 -2.98812e-08)
(3.66166e-07 -2.82612e-05 -0 -3.94686e-07 -0 2.85197e-08)
(-2.50076e-07 -3.0315e-05 -0 2.74057e-07 -0 -2.39814e-08)
(-1.80762e-07 -2.52193e-05 -0 1.54618e-07 -0 2.61433e-08)
(2.35062e-07 -2.50378e-05 -0 -2.10514e-07 -0 -2.45478e-08)
(3.14836e-07 -2.5896e-05 -0 -3.43077e-07 -0 2.82413e-08)
(-2.99153e-07 -2.81941e-05 -0 3.20555e-07 -0 -2.14015e-08)
(-1.79286e-07 -2.311e-05 -0 1.62377e-07 -0 1.69088e-08)
(2.19833e-07 -2.35226e-05 -0 -1.90087e-07 -0 -2.97458e-08)
(2.42382e-07 -2.45586e-05 -0 -2.55763e-07 -0 1.33815e-08)
(-3.39773e-07 -2.72649e-05 -0 3.46812e-07 -0 -7.03898e-09)
(-2.03657e-07 -0.000176811 -0 1.7737e-07 -0 2.6287e-08)
(-4.38052e-07 -0.000178586 -0 4.52648e-07 -0 -1.45965e-08)
(6.15318e-08 -0.000180017 -0 -6.80577e-08 -0 6.52591e-09)
(1.24665e-08 -0.000177777 -0 1.11451e-08 -0 -2.36116e-08)
(-2.58767e-07 -0.000152766 -0 2.38042e-07 -0 2.07255e-08)
(-4.78538e-07 -0.00015406 -0 5.00846e-07 -0 -2.23079e-08)
(9.04691e-08 -0.000154374 -0 -1.0804e-07 -0 1.75706e-08)
(4.87334e-08 -0.000153015 -0 -3.9804e-08 -0 -8.92938e-09)
(-2.9903e-07 -0.000131494 -0 2.8205e-07 -0 1.69802e-08)
(-4.91983e-07 -0.000132381 -0 5.07679e-07 -0 -1.56959e-08)
(9.98722e-08 -0.000132316 -0 -1.1024e-07 -0 1.03682e-08)
(6.26085e-08 -0.000131177 -0 -4.69239e-08 -0 -1.56846e-08)
(-3.36413e-07 -0.000112841 -0 3.15426e-07 -0 2.09873e-08)
(-4.94818e-07 -0.000113359 -0 5.06918e-07 -0 -1.21002e-08)
(1.23086e-07 -0.000113014 -0 -1.33593e-07 -0 1.05074e-08)
(7.76146e-08 -0.000112083 -0 -6.01644e-08 -0 -1.74503e-08)
(-3.69213e-07 -9.65754e-05 -0 3.52316e-07 -0 1.68969e-08)
(-4.97422e-07 -9.67125e-05 -0 5.13856e-07 -0 -1.64344e-08)
(1.48378e-07 -9.62225e-05 -0 -1.65201e-07 -0 1.68224e-08)
(9.9553e-08 -9.54752e-05 -0 -8.72398e-08 -0 -1.23131e-08)
(-3.9428e-07 -8.24891e-05 -0 3.74668e-07 -0 1.96125e-08)
(-4.84447e-07 -8.23115e-05 -0 4.9918e-07 -0 -1.47329e-08)
(1.62552e-07 -8.16942e-05 -0 -1.71917e-07 -0 9.36494e-09)
(1.07487e-07 -8.11155e-05 -0 -8.97471e-08 -0 -1.77398e-08)
(-4.1243e-07 -7.04117e-05 -0 3.93546e-07 -0 1.88834e-08)
(-4.69096e-07 -6.99051e-05 -0 4.85098e-07 -0 -1.60023e-08)
(1.83274e-07 -6.92147e-05 -0 -1.95858e-07 -0 1.25841e-08)
(1.23177e-07 -6.87889e-05 -0 -1.08442e-07 -0 -1.47354e-08)
(-4.26237e-07 -6.01604e-05 -0 4.08177e-07 -0 1.80605e-08)
(-4.43776e-07 -5.93527e-05 -0 4.59281e-07 -0 -1.55048e-08)
(2.00556e-07 -5.85659e-05 -0 -2.11593e-07 -0 1.10369e-08)
(1.31199e-07 -5.82931e-05 -0 -1.1569e-07 -0 -1.55087e-08)
(-4.28927e-07 -5.15737e-05 -0 4.09253e-07 -0 1.96734e-08)
(-4.13679e-07 -5.04457e-05 -0 4.29105e-07 -0 -1.54255e-08)
(2.18484e-07 -4.95884e-05 -0 -2.31953e-07 -0 1.34684e-08)
(1.38597e-07 -4.94454e-05 -0 -1.2312e-07 -0 -1.54771e-08)
(-4.25403e-07 -4.44908e-05 -0 4.04263e-07 -0 2.11397e-08)
(-3.73022e-07 -4.30362e-05 -0 3.85761e-07 -0 -1.27391e-08)
(2.36188e-07 -4.20901e-05 -0 -2.50662e-07 -0 1.44743e-08)
(1.43115e-07 -4.20946e-05 -0 -1.27464e-07 -0 -1.56509e-08)
(-4.21976e-07 -3.88141e-05 -0 4.07879e-07 -0 1.40976e-08)
(-3.36226e-07 -3.70059e-05 -0 3.56157e-07 -0 -1.99309e-08)
(2.38353e-07 -3.59564e-05 -0 -2.41584e-07 -0 3.23144e-09)
(1.41744e-07 -3.6072e-05 -0 -1.22484e-07 -0 -1.92596e-08)
(-3.9823e-07 -3.4411e-05 -0 3.78541e-07 -0 1.9689e-08)
(-2.78261e-07 -3.22438e-05 -0 2.9352e-07 -0 -1.52588e-08)
(2.68072e-07 -3.10735e-05 -0 -2.84742e-07 -0 1.66704e-08)
(1.56613e-07 -3.13734e-05 -0 -1.52651e-07 -0 -3.96234e-09)
(-3.73833e-07 -3.11935e-05 -0 3.54416e-07 -0 1.9417e-08)
(-2.15665e-07 -2.87143e-05 -0 2.28399e-07 -0 -1.27342e-08)
(2.70815e-07 -2.73874e-05 -0 -2.79061e-07 -0 8.24644e-09)
(1.38315e-07 -2.77419e-05 -0 -1.20464e-07 -0 -1.78512e-08)
(-3.50543e-07 -2.90638e-05 -0 3.39331e-07 -0 1.12127e-08)
(-1.5543e-07 -2.64059e-05 -0 1.76893e-07 -0 -2.14632e-08)
(2.88246e-07 -2.48679e-05 -0 -2.94426e-07 -0 6.18003e-09)
(1.32679e-07 -2.52922e-05 -0 -1.1325e-07 -0 -1.94299e-08)
(-3.05247e-07 -2.82168e-05 -0 2.79853e-07 -0 2.5394e-08)
(-6.54923e-08 -2.51373e-05 -0 7.01086e-08 -0 -4.61638e-09)
(3.3126e-07 -2.33379e-05 -0 -3.64685e-07 -0 3.34248e-08)
(1.36363e-07 -2.31856e-05 -0 -1.28693e-07 -0 -7.66935e-09)
)
;

boundaryField
{
    topWall
    {
        type            calculated;
        value           nonuniform List<symmTensor> 0();
    }
    botWall
    {
        type            calculated;
        value           nonuniform List<symmTensor> 0();
    }
    inlet
    {
        type            cyclic;
    }
    outlet
    {
        type            cyclic;
    }
    fixWall
    {
        type            empty;
    }
    procBoundary1to0
    {
        type            processor;
        value           nonuniform List<symmTensor> 8((-1.33929e-07 -0.000205048 -0 1.04037e-07 -0 2.98913e-08) (1.8236e-07 -0.000206854 -0 -1.54329e-07 -0 -2.80308e-08) (3.46379e-07 -0.000204744 -0 -3.85793e-07 -0 3.94146e-08) (1.46495e-07 -0.000203731 -0 -1.239e-07 -0 -2.25941e-08) (-1.70634e-07 -0.000204601 -0 1.51943e-07 -0 1.86906e-08) (-3.68199e-07 -0.000206455 -0 3.86465e-07 -0 -1.82659e-08) (6.49025e-08 -0.000208409 -0 -8.36249e-08 -0 1.87223e-08) (-4.72686e-08 -0.000205737 -0 6.49911e-08 -0 -1.77225e-08));
    }
    procBoundary1to2
    {
        type            processor;
        value           nonuniform List<symmTensor> 8((-2.01838e-07 -2.24238e-05 -0 1.87973e-07 -0 1.38655e-08) (1.8243e-07 -2.322e-05 -0 -1.54334e-07 -0 -2.80962e-08) (1.98062e-07 -2.4393e-05 -0 -2.3784e-07 -0 3.97784e-08) (-4.2221e-07 -2.71166e-05 -0 4.43782e-07 -0 -2.15718e-08) (-2.73519e-07 -2.81516e-05 -0 2.59378e-07 -0 1.41412e-08) (1.65837e-08 -2.48982e-05 -0 -2.2964e-09 -0 -1.42873e-08) (3.44289e-07 -2.27923e-05 -0 -3.43497e-07 -0 -7.92012e-10) (1.2474e-07 -2.24369e-05 -0 -9.02394e-08 -0 -3.4501e-08));
    }
}


// ************************************************************************* //
