/*--------------------------------*- C++ -*----------------------------------*\
  =========                 |
  \\      /  F ield         | OpenFOAM: The Open Source CFD Toolbox
   \\    /   O peration     | Website:  https://openfoam.org
    \\  /    A nd           | Version:  dev
     \\/     M anipulation  |

   OpenFOAM for Windows 20.09 (v1)
   Built by CFD Support, www.cfdsupport.com (based on Symscape).
\*---------------------------------------------------------------------------*/
FoamFile
{
    version     2.0;
    format      ascii;
    class       volScalarField;
    location    "8";
    object      epsilon;
}
// * * * * * * * * * * * * * * * * * * * * * * * * * * * * * * * * * * * * * //

dimensions      [0 2 -3 0 0 0 0];

internalField   nonuniform List<scalar> 
120
(
1.82437e-15
1.82443e-15
1.82443e-15
1.8245e-15
1.60112e-15
1.60117e-15
1.60118e-15
1.60124e-15
1.41692e-15
1.41697e-15
1.41698e-15
1.41703e-15
1.26329e-15
1.26334e-15
1.26335e-15
1.2634e-15
1.13395e-15
1.134e-15
1.134e-15
1.13405e-15
1.02415e-15
1.0242e-15
1.02421e-15
1.02425e-15
9.30291e-16
9.30335e-16
9.30339e-16
9.30375e-16
8.49547e-16
8.49585e-16
8.49589e-16
8.49621e-16
7.99042e-16
7.98483e-16
7.98064e-16
7.98995e-16
8.02919e-16
8.02255e-16
8.01777e-16
8.02866e-16
8.15936e-16
8.15169e-16
8.14635e-16
8.15879e-16
8.37076e-16
8.36204e-16
8.35618e-16
8.37018e-16
8.65721e-16
8.64742e-16
8.64104e-16
8.65666e-16
9.01567e-16
9.00476e-16
8.99787e-16
9.01516e-16
9.4457e-16
9.43358e-16
9.42618e-16
9.44525e-16
1.82443e-15
1.82427e-15
1.82436e-15
1.82436e-15
1.60118e-15
1.60102e-15
1.60111e-15
1.60111e-15
1.41698e-15
1.41682e-15
1.41691e-15
1.41691e-15
1.26334e-15
1.26319e-15
1.26328e-15
1.26328e-15
1.134e-15
1.13385e-15
1.13393e-15
1.13394e-15
1.0242e-15
1.02406e-15
1.02414e-15
1.02415e-15
9.30336e-16
9.30195e-16
9.30271e-16
9.30284e-16
8.49587e-16
8.49451e-16
8.49523e-16
8.49539e-16
8.00087e-16
8.00084e-16
7.99347e-16
7.99108e-16
8.04141e-16
8.04138e-16
8.03276e-16
8.02994e-16
8.1733e-16
8.17322e-16
8.16341e-16
8.1602e-16
8.38641e-16
8.38624e-16
8.37527e-16
8.37171e-16
8.67458e-16
8.67428e-16
8.66216e-16
8.65829e-16
9.0348e-16
9.03434e-16
9.02105e-16
9.01691e-16
9.46664e-16
9.46598e-16
9.45148e-16
9.44711e-16
)
;

boundaryField
{
    topWall
    {
        type            epsilonWallFunction;
        value           nonuniform List<scalar> 0();
    }
    botWall
    {
        type            epsilonWallFunction;
        value           nonuniform List<scalar> 0();
    }
    inlet
    {
        type            cyclic;
    }
    outlet
    {
        type            cyclic;
    }
    fixWall
    {
        type            empty;
    }
    procBoundary1to0
    {
        type            processor;
        value           nonuniform List<scalar> 8(2.09833e-15 2.09838e-15 2.09839e-15 2.09846e-15 2.09839e-15 2.09823e-15 2.09833e-15 2.09832e-15);
    }
    procBoundary1to2
    {
        type            processor;
        value           nonuniform List<scalar> 8(9.9403e-16 9.92699e-16 9.91909e-16 9.93996e-16 9.9631e-16 9.96223e-16 9.94656e-16 9.94192e-16);
    }
}


// ************************************************************************* //
