/*--------------------------------*- C++ -*----------------------------------*\
  =========                 |
  \\      /  F ield         | OpenFOAM: The Open Source CFD Toolbox
   \\    /   O peration     | Website:  https://openfoam.org
    \\  /    A nd           | Version:  dev
     \\/     M anipulation  |

   OpenFOAM for Windows 20.09 (v1)
   Built by CFD Support, www.cfdsupport.com (based on Symscape).
\*---------------------------------------------------------------------------*/
FoamFile
{
    version     2.0;
    format      ascii;
    class       volVectorField;
    location    "8";
    object      gradp_rgh;
}
// * * * * * * * * * * * * * * * * * * * * * * * * * * * * * * * * * * * * * //

dimensions      [1 -2 -2 0 0 0 0];

internalField   nonuniform List<vector> 
120
(
(-1.2508 0.0369646 0)
(-1.24193 -0.181572 0)
(-1.25595 -0.470997 0)
(-1.25617 -0.462552 0)
(-1.25118 -0.118769 0)
(-1.25641 -0.556026 0)
(-1.25537 -0.995681 0)
(-1.24279 -0.521977 0)
(-1.25112 0.00290253 0)
(-1.25654 0.00388383 0)
(-1.25538 -0.00134407 0)
(-1.24292 0.00169631 0)
(-1.25091 -0.00588478 0)
(-1.25649 0.00384771 0)
(-1.2554 -0.00174644 0)
(-1.24301 0.00141296 0)
(-1.25087 -0.0033768 0)
(-1.25647 0.00363795 0)
(-1.25542 -0.0020701 0)
(-1.24302 0.00106044 0)
(-1.25083 -0.00280766 0)
(-1.25646 0.00367892 0)
(-1.25545 -0.00195048 0)
(-1.24303 0.000963071 0)
(-1.25082 0.000777733 0)
(-1.25646 0.00384883 0)
(-1.25547 -0.0017699 0)
(-1.24302 0.00644604 0)
(-1.25073 0.00131282 0)
(-1.25651 0.00528716 0)
(-1.2554 0.00145143 0)
(-1.24304 0.0043574 0)
(-1.25067 -0.00494851 0)
(-1.25645 5.85607e-05 0)
(-1.25548 -0.00256497 0)
(-1.24318 -0.00142796 0)
(-1.25072 -0.00514872 0)
(-1.25647 -0.00122373 0)
(-1.25543 -0.00543008 0)
(-1.24312 0.000611911 0)
(-1.25069 -0.00185364 0)
(-1.25646 0.00430386 0)
(-1.25545 -0.000871137 0)
(-1.24312 0.000720372 0)
(-1.25065 -0.00169379 0)
(-1.25645 0.00458679 0)
(-1.25549 -0.000973736 0)
(-1.24313 0.000165039 0)
(-1.25061 -0.00122667 0)
(-1.25645 0.00476258 0)
(-1.25553 -0.00105262 0)
(-1.24314 0.000589327 0)
(-1.25057 0.980698 0)
(-1.25645 1.23541 0)
(-1.25556 0.946902 0)
(-1.24315 1.13028 0)
(-1.23231 0.357202 0)
(-1.25701 0.337852 0)
(-1.25728 0.651152 0)
(-1.24893 0.681437 0)
(-1.25057 -0.0691635 0)
(-1.2397 -0.261853 0)
(-1.24268 0.0877336 0)
(-1.2622 -0.450381 0)
(-1.242 -0.200414 0)
(-1.24036 -0.0107545 0)
(-1.25145 -0.239593 0)
(-1.26043 -0.536554 0)
(-1.24205 -0.014644 0)
(-1.24035 -0.00467142 0)
(-1.25144 -0.0155232 0)
(-1.26019 -0.0127756 0)
(-1.2421 -0.00780331 0)
(-1.24037 -0.00493059 0)
(-1.25159 -0.00734057 0)
(-1.26013 -0.0114137 0)
(-1.24216 -0.00275684 0)
(-1.24034 -0.00478159 0)
(-1.25155 0.00128635 0)
(-1.26016 -0.000633988 0)
(-1.2422 -0.00215292 0)
(-1.24031 -0.00151667 0)
(-1.25152 0.00417981 0)
(-1.2602 0.00108192 0)
(-1.2422 -0.00241047 0)
(-1.24024 -0.0047213 0)
(-1.25151 -0.000454509 0)
(-1.26028 -0.00238619 0)
(-1.24239 -0.00794904 0)
(-1.24027 -0.00735554 0)
(-1.25148 -0.00263265 0)
(-1.26018 -0.0037896 0)
(-1.24239 -0.00730414 0)
(-1.24015 -0.00350858 0)
(-1.25145 0.00243303 0)
(-1.26022 -0.000455589 0)
(-1.24242 -0.00181701 0)
(-1.24011 -0.00311101 0)
(-1.25143 0.00270919 0)
(-1.26031 -0.00047257 0)
(-1.24245 -0.00183977 0)
(-1.24007 -0.00308476 0)
(-1.25141 0.00349547 0)
(-1.26035 -0.000246689 0)
(-1.24249 -0.00248479 0)
(-1.24002 -0.003672 0)
(-1.25138 -0.00360544 0)
(-1.2604 -0.000209731 0)
(-1.24252 -0.00239466 0)
(-1.24009 -0.00390239 0)
(-1.25135 0.00153328 0)
(-1.26031 0.000308697 0)
(-1.24256 0.599564 0)
(-1.23996 0.000764545 0)
(-1.25131 0.224252 0)
(-1.26044 0.137727 0)
(-1.26134 0.496882 0)
(-1.24635 0.319073 0)
(-1.24907 -0.130627 0)
(-1.24771 0.149682 0)
)
;

boundaryField
{
    topWall
    {
        type            extrapolatedCalculated;
        value           nonuniform List<vector> 0();
    }
    botWall
    {
        type            extrapolatedCalculated;
        value           nonuniform List<vector> 0();
    }
    inlet
    {
        type            cyclic;
    }
    outlet
    {
        type            cyclic;
    }
    fixWall
    {
        type            empty;
    }
    procBoundary1to0
    {
        type            processor;
        value           nonuniform List<vector> 8((-1.25566 0.240885 0) (-1.24795 0.377807 0) (-1.25068 0.529898 0) (-1.24949 0.0809415 0) (-1.24534 0.122243 0) (-1.24297 0.468595 0) (-1.24831 0.379766 0) (-1.25959 0.0799587 0));
    }
    procBoundary1to2
    {
        type            processor;
        value           nonuniform List<vector> 8((-1.24744 -0.634006 0) (-1.25155 -0.90202 0) (-1.24983 -0.313595 0) (-1.24573 -0.463424 0) (-1.2486 -0.122674 0) (-1.25042 -0.189201 0) (-1.25413 -0.479166 0) (-1.25231 -0.117908 0));
    }
}


// ************************************************************************* //
