/*--------------------------------*- C++ -*----------------------------------*\
  =========                 |
  \\      /  F ield         | OpenFOAM: The Open Source CFD Toolbox
   \\    /   O peration     | Website:  https://openfoam.org
    \\  /    A nd           | Version:  dev
     \\/     M anipulation  |

   OpenFOAM for Windows 20.09 (v1)
   Built by CFD Support, www.cfdsupport.com (based on Symscape).
\*---------------------------------------------------------------------------*/
FoamFile
{
    version     2.0;
    format      ascii;
    class       volVectorField;
    location    "8";
    object      gradp;
}
// * * * * * * * * * * * * * * * * * * * * * * * * * * * * * * * * * * * * * //

dimensions      [1 -2 -2 0 0 0 0];

internalField   nonuniform List<vector> 
120
(
(3.74896 -98.0623 0)
(-1.24218 -98.2793 0)
(-1.25595 -98.5651 0)
(-1.25591 -98.5565 0)
(3.74882 -98.2206 0)
(-1.25642 -98.6484 0)
(-1.25537 -99.0822 0)
(-1.24279 -98.6146 0)
(3.74888 -98.0972 0)
(-1.25654 -98.096 0)
(-1.25538 -98.1012 0)
(-1.24292 -98.0981 0)
(3.74909 -98.1057 0)
(-1.25649 -98.0959 0)
(-1.2554 -98.1017 0)
(-1.24301 -98.0983 0)
(3.74913 -98.103 0)
(-1.25647 -98.0959 0)
(-1.25542 -98.1018 0)
(-1.24302 -98.0985 0)
(3.74916 -98.1025 0)
(-1.25646 -98.0959 0)
(-1.25545 -98.1016 0)
(-1.24302 -98.0986 0)
(3.74918 -98.0989 0)
(-1.25646 -98.0957 0)
(-1.25547 -98.1013 0)
(-1.24302 -98.0932 0)
(3.74928 -98.0985 0)
(-1.2565 -98.0944 0)
(-1.25541 -98.0982 0)
(-1.24303 -98.0955 0)
(3.74934 -98.105 0)
(-1.25645 -98.0999 0)
(-1.25549 -98.1025 0)
(-1.24318 -98.1016 0)
(3.74929 -98.1054 0)
(-1.25646 -98.1015 0)
(-1.25543 -98.1057 0)
(-1.24312 -98.0998 0)
(3.74932 -98.1022 0)
(-1.25646 -98.0963 0)
(-1.25546 -98.1014 0)
(-1.24312 -98.1 0)
(3.74936 -98.102 0)
(-1.25645 -98.0961 0)
(-1.25549 -98.1015 0)
(-1.24314 -98.1004 0)
(3.74939 -98.1019 0)
(-1.25645 -98.0961 0)
(-1.25553 -98.1019 0)
(-1.24315 -98.1004 0)
(3.74942 -97.1446 0)
(-1.25645 -96.8962 0)
(-1.25556 -97.1777 0)
(-1.24316 -96.9991 0)
(3.76722 -97.7522 0)
(-1.257 -97.7709 0)
(-1.25725 -97.4659 0)
(-1.24879 -97.4363 0)
(-1.25055 -98.17 0)
(-1.23969 -98.3529 0)
(-1.24245 -98.0111 0)
(3.73778 -98.5562 0)
(-1.242 -98.3029 0)
(-1.24036 -98.1044 0)
(-1.25145 -98.3427 0)
(3.73957 -98.6439 0)
(-1.24205 -98.1144 0)
(-1.24035 -98.1044 0)
(-1.25144 -98.1152 0)
(3.73981 -98.1126 0)
(-1.2421 -98.1075 0)
(-1.24037 -98.1045 0)
(-1.25159 -98.107 0)
(3.73987 -98.111 0)
(-1.24215 -98.1023 0)
(-1.24034 -98.1043 0)
(-1.25155 -98.0983 0)
(3.73983 -98.1002 0)
(-1.2422 -98.1017 0)
(-1.24031 -98.1012 0)
(-1.25152 -98.0955 0)
(3.73979 -98.0987 0)
(-1.2422 -98.1021 0)
(-1.24024 -98.1047 0)
(-1.25151 -98.1004 0)
(3.73972 -98.1023 0)
(-1.24239 -98.108 0)
(-1.24028 -98.1076 0)
(-1.25148 -98.1029 0)
(3.73982 -98.104 0)
(-1.2424 -98.1076 0)
(-1.24016 -98.1039 0)
(-1.25145 -98.0979 0)
(3.73979 -98.1007 0)
(-1.24243 -98.1023 0)
(-1.24012 -98.1036 0)
(-1.25142 -98.0977 0)
(3.7397 -98.1007 0)
(-1.24246 -98.1025 0)
(-1.24008 -98.1036 0)
(-1.2514 -98.0969 0)
(3.73966 -98.1006 0)
(-1.24249 -98.1028 0)
(-1.24002 -98.1038 0)
(-1.25137 -98.1036 0)
(3.73961 -98.1003 0)
(-1.24252 -98.1031 0)
(-1.24009 -98.1041 0)
(-1.25134 -98.0985 0)
(3.73969 -98.0998 0)
(-1.24255 -97.5165 0)
(-1.23995 -98.1041 0)
(-1.2513 -97.8702 0)
(3.73955 -97.9659 0)
(-1.26094 -97.6163 0)
(-1.24599 -97.7939 0)
(-1.24904 -98.2344 0)
(3.75178 -97.9472 0)
)
;

boundaryField
{
    topWall
    {
        type            extrapolatedCalculated;
        value           nonuniform List<vector> 0();
    }
    botWall
    {
        type            extrapolatedCalculated;
        value           nonuniform List<vector> 0();
    }
    inlet
    {
        type            cyclic;
    }
    outlet
    {
        type            cyclic;
    }
    fixWall
    {
        type            empty;
    }
    procBoundary1to0
    {
        type            processor;
        value           nonuniform List<vector> 8((3.7442 -97.8577 0) (-1.24804 -97.7298 0) (-1.25075 -97.5833 0) (-1.24938 -98.0266 0) (-1.24539 -97.9757 0) (-1.24301 -97.6377 0) (-1.24806 -97.7167 0) (3.74042 -98.0127 0));
    }
    procBoundary1to2
    {
        type            processor;
        value           nonuniform List<vector> 8((3.75236 -98.7093 0) (-1.25168 -98.9715 0) (-1.24999 -98.3902 0) (-1.24566 -98.535 0) (-1.24851 -98.2072 0) (-1.25025 -98.2845 0) (-1.25386 -98.5851 0) (3.74759 -98.2148 0));
    }
}


// ************************************************************************* //
