/*--------------------------------*- C++ -*----------------------------------*\
  =========                 |
  \\      /  F ield         | OpenFOAM: The Open Source CFD Toolbox
   \\    /   O peration     | Website:  https://openfoam.org
    \\  /    A nd           | Version:  dev
     \\/     M anipulation  |

   OpenFOAM for Windows 20.09 (v1)
   Built by CFD Support, www.cfdsupport.com (based on Symscape).
\*---------------------------------------------------------------------------*/
FoamFile
{
    version     2.0;
    format      ascii;
    class       volTensorField;
    location    "8";
    object      gradU;
}
// * * * * * * * * * * * * * * * * * * * * * * * * * * * * * * * * * * * * * //

dimensions      [0 0 -1 0 0 0 0];

internalField   nonuniform List<tensor> 
120
(
(0.000482375 5.00742e-05 0 0.940225 -0.000236694 0 0 0 0)
(-0.000554811 5.78325e-05 0 0.947679 0.000329273 0 0 0 0)
(-0.000945959 4.39377e-05 0 0.937087 0.00113853 0 0 0 0)
(-0.000471738 -5.83581e-05 0 0.932148 0.000289758 0 0 0 0)
(0.000524829 5.36541e-05 0 0.811457 -0.000343704 0 0 0 0)
(-0.000609836 6.90362e-05 0 0.81465 0.00041549 0 0 0 0)
(-0.0010723 4.35262e-05 0 0.805491 0.0013079 0 0 0 0)
(-0.000446368 -7.09752e-05 0 0.802807 0.000273769 0 0 0 0)
(0.000543099 5.56354e-05 0 0.695304 -0.000344939 0 0 0 0)
(-0.000654246 8.53593e-05 0 0.697801 0.000393983 0 0 0 0)
(-0.00114334 4.15757e-05 0 0.69007 0.00139954 0 0 0 0)
(-0.000400439 -8.97546e-05 0 0.689194 0.000203063 0 0 0 0)
(0.000566977 5.88407e-05 0 0.593601 -0.000411704 0 0 0 0)
(-0.000697065 9.81108e-05 0 0.59573 0.000457413 0 0 0 0)
(-0.00121576 4.03442e-05 0 0.58916 0.00138298 0 0 0 0)
(-0.000330216 -0.000106008 0 0.589614 0.000167176 0 0 0 0)
(0.000570713 6.13724e-05 0 0.505134 -0.000373528 0 0 0 0)
(-0.000728265 0.000115271 0 0.506911 0.000511641 0 0 0 0)
(-0.00124528 3.67384e-05 0 0.501653 0.00148199 0 0 0 0)
(-0.000249906 -0.000125809 0 0.503538 8.0485e-05 0 0 0 0)
(0.000581098 6.40588e-05 0 0.428775 -0.000403248 0 0 0 0)
(-0.000755078 0.000129036 0 0.430361 0.000528539 0 0 0 0)
(-0.00127197 3.31583e-05 0 0.426156 0.0014727 0 0 0 0)
(-0.000157814 -0.000145522 0 0.428997 -1.25353e-05 0 0 0 0)
(0.000577357 6.70011e-05 0 0.363347 -0.000404094 0 0 0 0)
(-0.000771926 0.000146536 0 0.364662 0.000554732 0 0 0 0)
(-0.00126801 2.77205e-05 0 0.361598 0.00148412 0 0 0 0)
(-6.33045e-05 -0.000166035 0 0.365583 -0.00010632 0 0 0 0)
(0.000581448 6.91657e-05 0 0.307741 -0.000391271 0 0 0 0)
(-0.000784236 0.000160506 0 0.308825 0.000564329 0 0 0 0)
(-0.00125661 2.21408e-05 0 0.306818 0.00145815 0 0 0 0)
(3.80913e-05 -0.000186805 0 0.311729 -0.000206977 0 0 0 0)
(0.000574118 7.19819e-05 0 0.260801 -0.000400679 0 0 0 0)
(-0.000787306 0.00017736 0 0.261763 0.000569164 0 0 0 0)
(-0.00121962 1.48654e-05 0 0.260981 0.00144058 0 0 0 0)
(0.000140229 -0.000207568 0 0.266899 -0.000307395 0 0 0 0)
(0.00057522 7.38975e-05 0 0.221863 -0.000397657 0 0 0 0)
(-0.000781238 0.000191194 0 0.222666 0.000544266 0 0 0 0)
(-0.00117102 7.53143e-06 0 0.223074 0.00135813 0 0 0 0)
(0.000247218 -0.000228021 0 0.229963 -0.000404803 0 0 0 0)
(0.000565473 7.61145e-05 0 0.190158 -0.000380432 0 0 0 0)
(-0.000767116 0.000206623 0 0.190759 0.000563265 0 0 0 0)
(-0.001098 -9.52384e-07 0 0.192305 0.00136543 0 0 0 0)
(0.000355592 -0.000247125 0 0.200547 -0.00056185 0 0 0 0)
(0.000566601 7.87262e-05 0 0.165324 -0.000374982 0 0 0 0)
(-0.000745457 0.000220292 0 0.165359 0.000535939 0 0 0 0)
(-0.00100787 -1.12205e-05 0 0.167967 0.00116214 0 0 0 0)
(0.000474025 -0.00026817 0 0.177553 -0.000659497 0 0 0 0)
(0.000548458 7.84798e-05 0 0.146356 -0.000367978 0 0 0 0)
(-0.000723076 0.000232242 0 0.146048 0.000485521 0 0 0 0)
(-0.000894764 -2.08763e-05 0 0.149805 0.0011215 0 0 0 0)
(0.00059915 -0.000282343 0 0.160952 -0.000789802 0 0 0 0)
(0.000548298 8.22862e-05 0 0.13358 -0.000340459 0 0 0 0)
(-0.000687965 0.000245116 0 0.132455 0.00049281 0 0 0 0)
(-0.000759476 -3.24759e-05 0 0.137281 0.000983994 0 0 0 0)
(0.000736043 -0.000301658 0 0.14973 -0.000906185 0 0 0 0)
(0.000519915 8.25496e-05 0 0.1224 -0.00038549 0 0 0 0)
(-0.000661383 0.000254316 0 0.124416 0.000424904 0 0 0 0)
(-0.00060685 -4.41929e-05 0 0.130205 0.000713233 0 0 0 0)
(0.000881746 -0.000313235 0 0.144817 -0.000937706 0 0 0 0)
(0.00060935 -9.42864e-05 0 0.93719 -0.000400369 0 0 0 0)
(0.00112216 2.11381e-05 0 0.946485 -0.0012382 0 0 0 0)
(-0.000145766 2.74467e-07 0 0.954091 0.000197647 0 0 0 0)
(-9.56071e-05 -2.06126e-05 0 0.942237 -9.21054e-05 0 0 0 0)
(0.000740656 -0.000108324 0 0.809769 -0.000575888 0 0 0 0)
(0.00120901 2.65272e-05 0 0.816491 -0.00138636 0 0 0 0)
(-0.000193181 1.11436e-05 0 0.818169 0.000332867 0 0 0 0)
(-0.000152806 -2.45881e-05 0 0.811006 8.18179e-05 0 0 0 0)
(0.000837428 -0.000121955 0 0.697039 -0.000702435 0 0 0 0)
(0.00126216 3.6284e-05 0 0.701582 -0.00138694 0 0 0 0)
(-0.000237185 2.47441e-05 0 0.701251 0.000319613 0 0 0 0)
(-0.000207477 -3.18887e-05 0 0.695272 8.27844e-05 0 0 0 0)
(0.000947111 -0.000134824 0 0.598192 -0.000780262 0 0 0 0)
(0.0012792 4.35613e-05 0 0.600759 -0.0013754 0 0 0 0)
(-0.000298332 3.56391e-05 0 0.598939 0.000381866 0 0 0 0)
(-0.000251922 -3.5664e-05 0 0.594073 0.000113192 0 0 0 0)
(0.00102319 -0.000147665 0 0.511997 -0.00088886 0 0 0 0)
(0.00127462 5.56529e-05 0 0.512521 -0.00140527 0 0 0 0)
(-0.000348624 4.95539e-05 0 0.50993 0.000482362 0 0 0 0)
(-0.000296445 -4.51149e-05 0 0.506064 0.000198556 0 0 0 0)
(0.00109682 -0.000159587 0 0.437352 -0.000940896 0 0 0 0)
(0.00124474 6.6415e-05 0 0.436185 -0.00136187 0 0 0 0)
(-0.000405947 6.23695e-05 0 0.432917 0.000480398 0 0 0 0)
(-0.000331851 -4.99288e-05 0 0.429962 0.000190819 0 0 0 0)
(0.00114298 -0.000170154 0 0.373352 -0.000992857 0 0 0 0)
(0.0012007 7.93411e-05 0 0.370418 -0.00132792 0 0 0 0)
(-0.000452329 7.54321e-05 0 0.366763 0.000552373 0 0 0 0)
(-0.000365468 -5.98423e-05 0 0.364641 0.000248321 0 0 0 0)
(0.00117739 -0.000179947 0 0.31903 -0.00103381 0 0 0 0)
(0.00113492 9.21689e-05 0 0.314477 -0.00125818 0 0 0 0)
(-0.000502227 8.86402e-05 0 0.31031 0.00058997 0 0 0 0)
(-0.000388776 -6.58699e-05 0 0.309019 0.000265481 0 0 0 0)
(0.00118879 -0.000187674 0 0.273528 -0.00103239 0 0 0 0)
(0.00105537 0.000106404 0 0.267256 -0.001178 0 0 0 0)
(-0.000543292 0.000100826 0 0.262718 0.000650366 0 0 0 0)
(-0.000408296 -7.61963e-05 0 0.262137 0.000285253 0 0 0 0)
(0.00118334 -0.000194457 0 0.235996 -0.00101528 0 0 0 0)
(0.00095475 0.000120215 0 0.227972 -0.00105603 0 0 0 0)
(-0.00058754 0.000113028 0 0.222964 0.000702611 0 0 0 0)
(-0.000420729 -8.33874e-05 0 0.223185 0.000296305 0 0 0 0)
(0.0011556 -0.000198527 0 0.205913 -0.00104352 0 0 0 0)
(0.000838183 0.000135036 0 0.195996 -0.000996634 0 0 0 0)
(-0.000623072 0.000123365 0 0.190445 0.000648762 0 0 0 0)
(-0.000426659 -9.45341e-05 0 0.191276 0.000273545 0 0 0 0)
(0.00110749 -0.000201703 0 0.18258 -0.000950959 0 0 0 0)
(0.000696957 0.000148419 0 0.170744 -0.000818264 0 0 0 0)
(-0.000666214 0.000134197 0 0.164555 0.000798743 0 0 0 0)
(-0.000425524 -0.000100541 0 0.16638 0.000394024 0 0 0 0)
(0.00104211 -0.000201174 0 0.165527 -0.000887747 0 0 0 0)
(0.000537766 0.000164197 0 0.152022 -0.000639003 0 0 0 0)
(-0.000695806 0.00014357 0 0.14501 0.000761365 0 0 0 0)
(-0.00041384 -0.000114096 0 0.147146 0.000271923 0 0 0 0)
(0.000958654 -0.00019919 0 0.154237 -0.000869513 0 0 0 0)
(0.000355012 0.000175905 0 0.139775 -0.000525644 0 0 0 0)
(-0.000747475 0.00014938 0 0.131651 0.000796607 0 0 0 0)
(-0.00040309 -0.000119363 0 0.134168 0.000248622 0 0 0 0)
(0.000876198 -0.000194831 0 0.149744 -0.000674315 0 0 0 0)
(0.000161321 0.000191966 0 0.133036 -0.000198021 0 0 0 0)
(-0.000789263 0.000156475 0 0.123534 0.00105499 0 0 0 0)
(-0.000381685 -0.000133047 0 0.123016 0.000320713 0 0 0 0)
)
;

boundaryField
{
    topWall
    {
        type            extrapolatedCalculated;
        value           nonuniform List<tensor> 0();
    }
    botWall
    {
        type            extrapolatedCalculated;
        value           nonuniform List<tensor> 0();
    }
    inlet
    {
        type            cyclic;
    }
    outlet
    {
        type            cyclic;
    }
    fixWall
    {
        type            empty;
    }
    procBoundary1to0
    {
        type            processor;
        value           nonuniform List<tensor> 8((0.000434122 4.66311e-05 0 1.08671 -0.000196487 0 0 0 0) (-0.000557535 4.61158e-05 0 1.09628 0.00033469 0 0 0 0) (-0.000813454 4.41848e-05 0 1.0851 0.0011268 0 0 0 0) (-0.000448085 -4.5327e-05 0 1.07982 0.000268462 0 0 0 0) (0.000501709 -8.2858e-05 0 1.08447 -0.000353119 0 0 0 0) (0.000927323 1.65603e-05 0 1.09419 -0.00107254 0 0 0 0) (-0.000122377 -7.95795e-06 0 1.10458 0.00027122 0 0 0 0) (7.82971e-05 -1.73491e-05 0 1.09042 -0.000219191 0 0 0 0));
    }
    procBoundary1to2
    {
        type            processor;
        value           nonuniform List<tensor> 8((0.000571615 8.40227e-05 0 0.118762 -0.000461384 0 0 0 0) (-0.000557895 0.000263428 0 0.122802 0.00033453 0 0 0 0) (-0.000419451 -5.5186e-05 0 0.129338 0.00073569 0 0 0 0) (0.00106169 -0.000324784 0 0.144043 -0.00123319 0 0 0 0) (0.000762299 -0.000186862 0 0.14939 -0.000649877 0 0 0 0) (-8.1808e-05 0.000204726 0 0.131756 -3.17758e-05 0 0 0 0) (-0.000914464 0.000158025 0 0.120641 0.000908167 0 0 0 0) (-0.00042199 -0.000143371 0 0.119059 0.000147707 0 0 0 0));
    }
}


// ************************************************************************* //
