/*--------------------------------*- C++ -*----------------------------------*\
  =========                 |
  \\      /  F ield         | OpenFOAM: The Open Source CFD Toolbox
   \\    /   O peration     | Website:  https://openfoam.org
    \\  /    A nd           | Version:  dev
     \\/     M anipulation  |

   OpenFOAM for Windows 20.09 (v1)
   Built by CFD Support, www.cfdsupport.com (based on Symscape).
\*---------------------------------------------------------------------------*/
FoamFile
{
    version     2.0;
    format      ascii;
    class       volScalarField;
    location    "8";
    object      k;
}
// * * * * * * * * * * * * * * * * * * * * * * * * * * * * * * * * * * * * * //

dimensions      [0 2 -2 0 0 0 0];

internalField   nonuniform List<scalar> 
120
(
2.22045e-16
2.22045e-16
2.22045e-16
2.22045e-16
2.22045e-16
2.22045e-16
2.22045e-16
2.22045e-16
2.22045e-16
2.22045e-16
2.22045e-16
2.22045e-16
2.22045e-16
2.22045e-16
2.22045e-16
2.22045e-16
2.22045e-16
2.22045e-16
2.22045e-16
2.22045e-16
2.22045e-16
2.22045e-16
2.22045e-16
2.22045e-16
2.22045e-16
2.22045e-16
2.22045e-16
2.22045e-16
2.22045e-16
2.22045e-16
2.22045e-16
2.22045e-16
2.27548e-16
2.2738e-16
2.27259e-16
2.27516e-16
2.47943e-16
2.4773e-16
2.47581e-16
2.47908e-16
2.71972e-16
2.7171e-16
2.71532e-16
2.71936e-16
2.99848e-16
2.99533e-16
2.99323e-16
2.99813e-16
3.31829e-16
3.31455e-16
3.31211e-16
3.31796e-16
3.68217e-16
3.6778e-16
3.67501e-16
3.68191e-16
4.09362e-16
4.08855e-16
4.08539e-16
4.09346e-16
2.22045e-16
2.22045e-16
2.22045e-16
2.22045e-16
2.22045e-16
2.22045e-16
2.22045e-16
2.22045e-16
2.22045e-16
2.22045e-16
2.22045e-16
2.22045e-16
2.22045e-16
2.22045e-16
2.22045e-16
2.22045e-16
2.22045e-16
2.22045e-16
2.22045e-16
2.22045e-16
2.22045e-16
2.22045e-16
2.22045e-16
2.22045e-16
2.22045e-16
2.22045e-16
2.22045e-16
2.22045e-16
2.22045e-16
2.22045e-16
2.22045e-16
2.22045e-16
2.27835e-16
2.27872e-16
2.27643e-16
2.27569e-16
2.48311e-16
2.48352e-16
2.48064e-16
2.4797e-16
2.72428e-16
2.72472e-16
2.72123e-16
2.72006e-16
3.00402e-16
3.00448e-16
3.00031e-16
2.99891e-16
3.3249e-16
3.32536e-16
3.32047e-16
3.31882e-16
3.68997e-16
3.69041e-16
3.68473e-16
3.68283e-16
4.10275e-16
4.10314e-16
4.09662e-16
4.09446e-16
)
;

boundaryField
{
    topWall
    {
        type            kqRWallFunction;
        value           nonuniform List<scalar> 0();
    }
    botWall
    {
        type            kqRWallFunction;
        value           nonuniform List<scalar> 0();
    }
    inlet
    {
        type            cyclic;
    }
    outlet
    {
        type            cyclic;
    }
    fixWall
    {
        type            empty;
    }
    procBoundary1to0
    {
        type            processor;
        value           uniform 2.22045e-16;
    }
    procBoundary1to2
    {
        type            processor;
        value           nonuniform List<scalar> 8(4.55668e-16 4.55085e-16 4.5473e-16 4.55666e-16 4.56726e-16 4.56759e-16 4.56016e-16 4.55773e-16);
    }
}


// ************************************************************************* //
