/*--------------------------------*- C++ -*----------------------------------*\
  =========                 |
  \\      /  F ield         | OpenFOAM: The Open Source CFD Toolbox
   \\    /   O peration     | Website:  https://openfoam.org
    \\  /    A nd           | Version:  dev
     \\/     M anipulation  |

   OpenFOAM for Windows 20.09 (v1)
   Built by CFD Support, www.cfdsupport.com (based on Symscape).
\*---------------------------------------------------------------------------*/
FoamFile
{
    version     2.0;
    format      ascii;
    class       volScalarField;
    location    "8";
    object      nut;
}
// * * * * * * * * * * * * * * * * * * * * * * * * * * * * * * * * * * * * * //

dimensions      [0 2 -1 0 0 0 0];

internalField   nonuniform List<scalar> 
120
(
2.43226e-18
2.43218e-18
2.43218e-18
2.43209e-18
2.7714e-18
2.77131e-18
2.7713e-18
2.77119e-18
3.13169e-18
3.13156e-18
3.13155e-18
3.13143e-18
3.51253e-18
3.51238e-18
3.51237e-18
3.51223e-18
3.91319e-18
3.91301e-18
3.91299e-18
3.91284e-18
4.33269e-18
4.33248e-18
4.33246e-18
4.3323e-18
4.76984e-18
4.76962e-18
4.7696e-18
4.76942e-18
5.22319e-18
5.22295e-18
5.22293e-18
5.22273e-18
5.83201e-18
5.82747e-18
5.82436e-18
5.83072e-18
6.89088e-18
6.88473e-18
6.88056e-18
6.8894e-18
8.15899e-18
8.15094e-18
8.14555e-18
8.15739e-18
9.66677e-18
9.6565e-18
9.64971e-18
9.66514e-18
1.1447e-17
1.14342e-17
1.14258e-17
1.14455e-17
1.35348e-17
1.3519e-17
1.35089e-17
1.35336e-17
1.5967e-17
1.5948e-17
1.59358e-17
1.59665e-17
2.43218e-18
2.4324e-18
2.43227e-18
2.43228e-18
2.7713e-18
2.77158e-18
2.77142e-18
2.77142e-18
3.13156e-18
3.13191e-18
3.13171e-18
3.13171e-18
3.51238e-18
3.51281e-18
3.51256e-18
3.51256e-18
3.913e-18
3.91353e-18
3.91323e-18
3.91321e-18
4.33248e-18
4.3331e-18
4.33276e-18
4.33272e-18
4.76961e-18
4.77034e-18
4.76995e-18
4.76988e-18
5.22294e-18
5.22377e-18
5.22333e-18
5.22323e-18
5.83912e-18
5.84103e-18
5.83466e-18
5.83263e-18
6.90082e-18
6.90313e-18
6.89456e-18
6.89172e-18
8.17239e-18
8.17512e-18
8.16396e-18
8.16016e-18
9.68437e-18
9.68752e-18
9.67332e-18
9.66838e-18
1.14697e-17
1.14732e-17
1.14555e-17
1.14492e-17
1.35634e-17
1.35674e-17
1.35456e-17
1.35378e-17
1.60028e-17
1.6007e-17
1.59806e-17
1.59712e-17
)
;

boundaryField
{
    topWall
    {
        type            nutkWallFunction;
        Cmu             0.09;
        kappa           0.41;
        E               9.8;
        value           nonuniform List<scalar> 0();
    }
    botWall
    {
        type            nutkWallFunction;
        Cmu             0.09;
        kappa           0.41;
        E               9.8;
        value           nonuniform List<scalar> 0();
    }
    inlet
    {
        type            cyclic;
    }
    outlet
    {
        type            cyclic;
    }
    fixWall
    {
        type            empty;
    }
    procBoundary1to0
    {
        type            processor;
        value           nonuniform List<scalar> 8(2.1147e-18 2.11465e-18 2.11464e-18 2.11457e-18 2.11464e-18 2.1148e-18 2.1147e-18 2.11472e-18);
    }
    procBoundary1to2
    {
        type            processor;
        value           nonuniform List<scalar> 8(1.87992e-17 1.87763e-17 1.8762e-17 1.87997e-17 1.88434e-17 1.88478e-17 1.88161e-17 1.88048e-17);
    }
}


// ************************************************************************* //
