/*--------------------------------*- C++ -*----------------------------------*\
  =========                 |
  \\      /  F ield         | OpenFOAM: The Open Source CFD Toolbox
   \\    /   O peration     | Website:  https://openfoam.org
    \\  /    A nd           | Version:  dev
     \\/     M anipulation  |

   OpenFOAM for Windows 20.09 (v1)
   Built by CFD Support, www.cfdsupport.com (based on Symscape).
\*---------------------------------------------------------------------------*/
FoamFile
{
    version     2.0;
    format      ascii;
    class       volScalarField;
    location    "8";
    object      omega;
}
// * * * * * * * * * * * * * * * * * * * * * * * * * * * * * * * * * * * * * //

dimensions      [0 0 -1 0 0 0 0];

internalField   nonuniform List<scalar> 
120
(
91.2915
91.2943
91.2944
91.2978
80.1199
80.1227
80.123
80.126
70.9025
70.9053
70.9056
70.9083
63.2149
63.2177
63.2179
63.2203
56.7427
56.7452
56.7455
56.7477
51.2487
51.2511
51.2513
51.2533
46.5518
46.554
46.5542
46.5559
42.5113
42.5132
42.5134
42.515
39.017
39.0186
39.0188
39.0202
35.9814
35.9825
35.9827
35.984
33.3341
33.3349
33.335
33.3362
31.0185
31.0188
31.0188
31.02
28.9882
28.9881
28.988
28.9892
27.2052
27.2046
27.2044
27.2056
25.638
25.6368
25.6365
25.6378
91.2946
91.2863
91.2912
91.2909
80.123
80.1148
80.1196
80.1193
70.9055
70.8975
70.9021
70.902
63.2178
63.2099
63.2144
63.2145
56.7453
56.7377
56.742
56.7423
51.2512
51.2438
51.2479
51.2483
46.554
46.5469
46.5508
46.5514
42.5133
42.5065
42.5101
42.5109
39.0188
39.0123
39.0156
39.0166
35.9828
35.9767
35.9797
35.9808
33.3352
33.3295
33.3322
33.3334
31.0192
31.0139
31.0163
31.0177
28.9886
28.9836
28.9858
28.9872
27.2053
27.2007
27.2025
27.204
25.6377
25.6334
25.6349
25.6366
)
;

boundaryField
{
    topWall
    {
        beta1           0.075;
        blended         0;
        type            omegaWallFunction;
        value           nonuniform List<scalar> 0();
    }
    botWall
    {
        beta1           0.075;
        blended         0;
        type            omegaWallFunction;
        value           nonuniform List<scalar> 0();
    }
    inlet
    {
        type            cyclic;
    }
    outlet
    {
        type            cyclic;
    }
    fixWall
    {
        type            empty;
    }
    procBoundary1to0
    {
        type            processor;
        value           nonuniform List<scalar> 8(105.001 105.003 105.003 105.007 105.004 104.995 105 105);
    }
    procBoundary1to2
    {
        type            processor;
        value           nonuniform List<scalar> 8(24.2386 24.2372 24.2368 24.2379 24.2379 24.2341 24.2354 24.237);
    }
}


// ************************************************************************* //
