/*--------------------------------*- C++ -*----------------------------------*\
  =========                 |
  \\      /  F ield         | OpenFOAM: The Open Source CFD Toolbox
   \\    /   O peration     | Website:  https://openfoam.org
    \\  /    A nd           | Version:  dev
     \\/     M anipulation  |

   OpenFOAM for Windows 20.09 (v1)
   Built by CFD Support, www.cfdsupport.com (based on Symscape).
\*---------------------------------------------------------------------------*/
FoamFile
{
    version     2.0;
    format      ascii;
    class       volScalarField;
    location    "8";
    object      p;
}
// * * * * * * * * * * * * * * * * * * * * * * * * * * * * * * * * * * * * * //

dimensions      [1 -1 -2 0 0 0 0];

internalField   nonuniform List<scalar> 
120
(
-1.24651
-1.30706
-1.37073
-1.43266
-1.32847
-1.38973
-1.45411
-1.51527
-1.41021
-1.47148
-1.53586
-1.59702
-1.49196
-1.55323
-1.61761
-1.67877
-1.57372
-1.63497
-1.69936
-1.76051
-1.65547
-1.71672
-1.78112
-1.84226
-1.73722
-1.79846
-1.86287
-1.92401
-1.81897
-1.88021
-1.94462
-2.00575
-1.90072
-1.96196
-2.02636
-2.0875
-1.98248
-2.04371
-2.10812
-2.16925
-2.06423
-2.12546
-2.18987
-2.251
-2.14598
-2.2072
-2.27163
-2.33275
-2.22773
-2.28895
-2.35338
-2.4145
-2.30948
-2.3707
-2.43513
-2.49625
-2.38964
-2.45045
-2.51534
-2.57617
-1.49632
-1.55771
-1.62028
-1.68196
-1.57839
-1.63947
-1.70243
-1.76461
-1.66015
-1.72122
-1.78419
-1.84637
-1.74191
-1.80298
-1.86595
-1.92813
-1.82367
-1.88473
-1.9477
-2.00988
-1.90542
-1.96648
-2.02945
-2.09163
-1.98717
-2.04823
-2.11119
-2.17338
-2.06892
-2.12999
-2.19295
-2.25514
-2.15068
-2.21174
-2.2747
-2.33689
-2.23243
-2.2935
-2.35645
-2.41864
-2.31419
-2.37525
-2.43819
-2.50039
-2.39594
-2.457
-2.51994
-2.58214
-2.47769
-2.53876
-2.6017
-2.66389
-2.55944
-2.62051
-2.68344
-2.74564
-2.64022
-2.70226
-2.76482
-2.82717
)
;

boundaryField
{
    topWall
    {
        type            calculated;
        value           nonuniform List<scalar> 0();
    }
    botWall
    {
        type            calculated;
        value           nonuniform List<scalar> 0();
    }
    inlet
    {
        type            cyclic;
    }
    outlet
    {
        type            cyclic;
    }
    fixWall
    {
        type            empty;
    }
    procBoundary1to0
    {
        type            processor;
        value           nonuniform List<scalar> 8(-1.16503 -1.22593 -1.28984 -1.35101 -1.41477 -1.47555 -1.53907 -1.60035);
    }
    procBoundary1to2
    {
        type            processor;
        value           nonuniform List<scalar> 8(-2.4724 -2.53365 -2.59757 -2.65865 -2.72214 -2.7835 -2.84716 -2.90889);
    }
}


// ************************************************************************* //
