/*--------------------------------*- C++ -*----------------------------------*\
  =========                 |
  \\      /  F ield         | OpenFOAM: The Open Source CFD Toolbox
   \\    /   O peration     | Website:  https://openfoam.org
    \\  /    A nd           | Version:  dev
     \\/     M anipulation  |

   OpenFOAM for Windows 20.09 (v1)
   Built by CFD Support, www.cfdsupport.com (based on Symscape).
\*---------------------------------------------------------------------------*/
FoamFile
{
    version     2.0;
    format      ascii;
    class       volScalarField;
    location    "8";
    object      p_rgh;
}
// * * * * * * * * * * * * * * * * * * * * * * * * * * * * * * * * * * * * * //

dimensions      [1 -1 -2 0 0 0 0];

internalField   nonuniform List<scalar> 
120
(
0.0206146
-0.0399274
-0.103578
-0.165522
0.0204052
-0.0408572
-0.105236
-0.166394
0.0204167
-0.0408541
-0.105237
-0.166392
0.02041
-0.0408507
-0.105239
-0.166391
0.0204069
-0.0408477
-0.10524
-0.16639
0.0204044
-0.0408446
-0.105242
-0.166389
0.0204022
-0.0408415
-0.105244
-0.166388
0.0204057
-0.0408382
-0.105245
-0.166379
0.0204044
-0.0408327
-0.105241
-0.166381
0.0203974
-0.0408381
-0.105249
-0.166381
0.0203958
-0.0408348
-0.10525
-0.16638
0.0203944
-0.0408309
-0.105251
-0.16638
0.020393
-0.0408271
-0.105252
-0.16638
0.0203923
-0.040823
-0.105252
-0.166379
0.0220275
-0.0387681
-0.103674
-0.164496
-0.229195
-0.29058
-0.353165
-0.414848
-0.229516
-0.290594
-0.353552
-0.415739
-0.229529
-0.290597
-0.353564
-0.415742
-0.22954
-0.290601
-0.353577
-0.41576
-0.229542
-0.290606
-0.353577
-0.415761
-0.229545
-0.290609
-0.353575
-0.415761
-0.229546
-0.290608
-0.35357
-0.415759
-0.229549
-0.290617
-0.353576
-0.415765
-0.229559
-0.29062
-0.353574
-0.415765
-0.229561
-0.290623
-0.353572
-0.415766
-0.229562
-0.290626
-0.35357
-0.415766
-0.229564
-0.290628
-0.353566
-0.415766
-0.229566
-0.290632
-0.353576
-0.415767
-0.229568
-0.290635
-0.353564
-0.415766
-0.228567
-0.290631
-0.353202
-0.415537
)
;

boundaryField
{
    topWall
    {
        type            zeroGradient;
    }
    botWall
    {
        type            zeroGradient;
    }
    inlet
    {
        type            fixedJump;
        patchType       cyclic;
        jump            uniform -0.5;
        value           nonuniform List<scalar> 
15
(
0.0532452
0.0523132
0.0523132
0.052314
0.0523148
0.0523158
0.0523195
0.0523203
0.0523215
0.0523216
0.052323
0.0523249
0.0523374
0.0523332
0.0528835
)
;
    }
    outlet
    {
        type            fixedJump;
        patchType       cyclic;
        value           nonuniform List<scalar> 
15
(
-0.446755
-0.447687
-0.447687
-0.447686
-0.447685
-0.447684
-0.447681
-0.44768
-0.447678
-0.447678
-0.447677
-0.447675
-0.447663
-0.447667
-0.447117
)
;
    }
    fixWall
    {
        type            empty;
    }
    procBoundary1to0
    {
        type            processor;
        value           nonuniform List<scalar> 8(0.0203436 -0.0405545 -0.104451 -0.165623 -0.2294 -0.290157 -0.353698 -0.414988);
    }
    procBoundary1to2
    {
        type            processor;
        value           nonuniform List<scalar> 8(0.0209876 -0.0402599 -0.104167 -0.165243 -0.22874 -0.290103 -0.353781 -0.415516);
    }
}


// ************************************************************************* //
