/*--------------------------------*- C++ -*----------------------------------*\
  =========                 |
  \\      /  F ield         | OpenFOAM: The Open Source CFD Toolbox
   \\    /   O peration     | Website:  https://openfoam.org
    \\  /    A nd           | Version:  dev
     \\/     M anipulation  |

   OpenFOAM for Windows 20.09 (v1)
   Built by CFD Support, www.cfdsupport.com (based on Symscape).
\*---------------------------------------------------------------------------*/
FoamFile
{
    version     2.0;
    format      ascii;
    class       surfaceScalarField;
    location    "8";
    object      phi;
}
// * * * * * * * * * * * * * * * * * * * * * * * * * * * * * * * * * * * * * //

dimensions      [0 3 -1 0 0 0 0];

internalField   nonuniform List<scalar> 
217
(
3.14099e-08
-3.96169e-12
3.13992e-08
-4.31727e-11
3.13469e-08
3.15754e-10
1.75648e-10
3.13382e-08
3.2019e-08
-1.8223e-11
3.20027e-08
-2.68659e-11
3.19494e-08
3.69078e-10
1.87341e-10
3.19377e-08
3.25402e-08
-3.3207e-11
3.25221e-08
-8.75043e-12
3.24658e-08
4.254e-10
1.97062e-10
3.24561e-08
3.29864e-08
-4.92733e-11
3.29665e-08
1.11764e-11
3.29072e-08
4.84753e-10
2.03826e-10
3.29004e-08
3.33662e-08
-6.54781e-11
3.3345e-08
3.23781e-11
3.32844e-08
5.45358e-10
2.0723e-10
3.3281e-08
3.36892e-08
-8.20994e-11
3.36669e-08
5.46722e-11
3.36052e-08
6.07095e-10
2.06783e-10
3.36056e-08
3.39628e-08
-9.85973e-11
3.39398e-08
7.7659e-11
3.38782e-08
6.68687e-10
2.02374e-10
3.38826e-08
3.41948e-08
-1.15285e-10
3.41713e-08
1.01194e-10
3.41102e-08
7.29788e-10
1.93742e-10
3.41188e-08
3.4391e-08
-1.31739e-10
3.43672e-08
1.25008e-10
3.43078e-08
7.89244e-10
1.80854e-10
3.43207e-08
3.45577e-08
-1.48077e-10
3.45343e-08
1.48321e-10
3.44767e-08
8.46868e-10
1.63428e-10
3.44941e-08
3.46996e-08
-1.63992e-10
3.46769e-08
1.71022e-10
3.46223e-08
9.01472e-10
1.41473e-10
3.46443e-08
3.48222e-08
-1.79938e-10
3.48004e-08
1.92798e-10
3.47495e-08
9.52338e-10
1.14572e-10
3.47764e-08
3.49292e-08
-1.95096e-10
3.49084e-08
2.13623e-10
3.48622e-08
9.98511e-10
8.24437e-11
3.48944e-08
3.50252e-08
-2.10226e-10
3.50059e-08
2.32964e-10
3.49653e-08
1.03906e-09
4.45928e-11
3.50031e-08
3.5114e-08
3.50945e-08
3.5063e-08
3.51037e-08
3.13534e-08
-8.98452e-12
3.14087e-08
-3.30675e-10
3.13981e-08
1.10714e-10
-2.98844e-10
3.19625e-08
-3.38126e-11
3.2018e-08
-3.86136e-10
3.20059e-08
1.22748e-10
-2.97632e-10
3.24849e-08
-6.26025e-11
3.25426e-08
-4.43859e-10
3.25287e-08
1.36647e-10
-2.94181e-10
3.29337e-08
-9.59129e-11
3.29922e-08
-5.02343e-10
3.29757e-08
1.53102e-10
-2.88815e-10
3.33174e-08
-1.32391e-10
3.33757e-08
-5.60624e-10
3.33572e-08
1.71641e-10
-2.81596e-10
3.36452e-08
-1.71934e-10
3.37022e-08
-6.17648e-10
3.36813e-08
1.92554e-10
-2.72903e-10
3.3924e-08
-2.13363e-10
3.39793e-08
-6.72852e-10
3.39565e-08
2.15365e-10
-2.6275e-10
3.41617e-08
-2.56227e-10
3.42141e-08
-7.25316e-10
3.41892e-08
2.4027e-10
-2.51642e-10
3.4364e-08
-2.99549e-10
3.44131e-08
-7.74447e-10
3.43865e-08
2.66872e-10
-2.39715e-10
3.45372e-08
-3.42631e-10
3.45822e-08
-8.19373e-10
3.45537e-08
2.953e-10
-2.27304e-10
3.46862e-08
-3.84558e-10
3.47262e-08
-8.59431e-10
3.46964e-08
3.25189e-10
-2.14643e-10
3.48163e-08
-4.24484e-10
3.48505e-08
-8.93587e-10
3.48188e-08
3.56853e-10
-2.02024e-10
3.49316e-08
-4.6169e-10
3.49591e-08
-9.2112e-10
3.49262e-08
3.89764e-10
-1.89927e-10
3.50369e-08
-4.95426e-10
3.50567e-08
-9.41024e-10
3.50217e-08
4.2478e-10
-1.7824e-10
3.51366e-08
3.51477e-08
3.51097e-08
)
;

boundaryField
{
    topWall
    {
        type            calculated;
        value           nonuniform List<scalar> 0();
    }
    botWall
    {
        type            calculated;
        value           nonuniform List<scalar> 0();
    }
    inlet
    {
        type            cyclic;
        value           nonuniform List<scalar> 
15
(
-3.51015e-08
-3.501e-08
-3.49141e-08
-3.48062e-08
-3.46837e-08
-3.45413e-08
-3.43746e-08
-3.41781e-08
-3.39463e-08
-3.36726e-08
-3.335e-08
-3.29704e-08
-3.25252e-08
-3.20047e-08
-3.13976e-08
)
;
    }
    outlet
    {
        type            cyclic;
        value           nonuniform List<scalar> 
15
(
3.51015e-08
3.501e-08
3.49141e-08
3.48062e-08
3.46837e-08
3.45413e-08
3.43746e-08
3.41781e-08
3.39463e-08
3.36726e-08
3.335e-08
3.29704e-08
3.25252e-08
3.20047e-08
3.13976e-08
)
;
    }
    fixWall
    {
        type            empty;
        value           nonuniform List<scalar> 0();
    }
    procBoundary1to0
    {
        type            processor;
        value           nonuniform List<scalar> 8(-6.62208e-12 5.40409e-11 -2.63147e-10 -1.65849e-10 -5.39213e-12 2.7565e-10 -9.94245e-11 2.99652e-10);
    }
    procBoundary1to2
    {
        type            processor;
        value           nonuniform List<scalar> 8(-2.2442e-10 2.51714e-10 1.07182e-09 2.72198e-12 -5.28466e-10 -9.51978e-10 4.619e-10 -1.69183e-10);
    }
}


// ************************************************************************* //
