/*--------------------------------*- C++ -*----------------------------------*\
  =========                 |
  \\      /  F ield         | OpenFOAM: The Open Source CFD Toolbox
   \\    /   O peration     | Website:  https://openfoam.org
    \\  /    A nd           | Version:  dev
     \\/     M anipulation  |

   OpenFOAM for Windows 20.09 (v1)
   Built by CFD Support, www.cfdsupport.com (based on Symscape).
\*---------------------------------------------------------------------------*/
FoamFile
{
    version     2.0;
    format      ascii;
    class       volSymmTensorField;
    location    "8";
    object      R;
}
// * * * * * * * * * * * * * * * * * * * * * * * * * * * * * * * * * * * * * //

dimensions      [0 2 -2 0 0 0 0];

internalField   nonuniform List<symmTensor> 
120
(
(1.48028e-16 -2.28699e-18 -0 1.48031e-16 -0 1.4803e-16)
(1.48032e-16 -2.30507e-18 -0 1.48028e-16 -0 1.48029e-16)
(1.48035e-16 -2.27927e-18 -0 1.48025e-16 -0 1.4803e-16)
(1.48032e-16 -2.26693e-18 -0 1.48028e-16 -0 1.48029e-16)
(1.48027e-16 -2.24902e-18 -0 1.48032e-16 -0 1.4803e-16)
(1.48033e-16 -2.25783e-18 -0 1.48027e-16 -0 1.48029e-16)
(1.48036e-16 -2.23238e-18 -0 1.48023e-16 -0 1.4803e-16)
(1.48032e-16 -2.22454e-18 -0 1.48028e-16 -0 1.48029e-16)
(1.48027e-16 -2.17765e-18 -0 1.48032e-16 -0 1.4803e-16)
(1.48033e-16 -2.18548e-18 -0 1.48027e-16 -0 1.48029e-16)
(1.48037e-16 -2.16112e-18 -0 1.48022e-16 -0 1.4803e-16)
(1.48032e-16 -2.15789e-18 -0 1.48028e-16 -0 1.48029e-16)
(1.48026e-16 -2.08525e-18 -0 1.48033e-16 -0 1.4803e-16)
(1.48034e-16 -2.09278e-18 -0 1.48026e-16 -0 1.48029e-16)
(1.48039e-16 -2.06949e-18 -0 1.4802e-16 -0 1.4803e-16)
(1.48032e-16 -2.07049e-18 -0 1.48028e-16 -0 1.48029e-16)
(1.48026e-16 -1.97692e-18 -0 1.48033e-16 -0 1.4803e-16)
(1.48035e-16 -1.984e-18 -0 1.48025e-16 -0 1.48029e-16)
(1.4804e-16 -1.96311e-18 -0 1.48019e-16 -0 1.4803e-16)
(1.48031e-16 -1.96977e-18 -0 1.48029e-16 -0 1.48029e-16)
(1.48025e-16 -1.85803e-18 -0 1.48034e-16 -0 1.4803e-16)
(1.48036e-16 -1.86509e-18 -0 1.48025e-16 -0 1.48029e-16)
(1.48041e-16 -1.84645e-18 -0 1.48018e-16 -0 1.4803e-16)
(1.48031e-16 -1.85791e-18 -0 1.48029e-16 -0 1.48029e-16)
(1.48025e-16 -1.73343e-18 -0 1.48034e-16 -0 1.4803e-16)
(1.48036e-16 -1.74e-18 -0 1.48024e-16 -0 1.48029e-16)
(1.48043e-16 -1.72481e-18 -0 1.48016e-16 -0 1.4803e-16)
(1.4803e-16 -1.74283e-18 -0 1.4803e-16 -0 1.48029e-16)
(1.48024e-16 -1.60775e-18 -0 1.48034e-16 -0 1.4803e-16)
(1.48037e-16 -1.61382e-18 -0 1.48023e-16 -0 1.48029e-16)
(1.48044e-16 -1.6026e-18 -0 1.48015e-16 -0 1.4803e-16)
(1.48029e-16 -1.6271e-18 -0 1.48031e-16 -0 1.48029e-16)
(1.51693e-16 -1.52141e-18 -0 1.51704e-16 -0 1.51699e-16)
(1.51595e-16 -1.52645e-18 -0 1.51579e-16 -0 1.51586e-16)
(1.51521e-16 -1.52013e-18 -0 1.5149e-16 -0 1.51507e-16)
(1.51675e-16 -1.555e-18 -0 1.5168e-16 -0 1.51677e-16)
(1.65288e-16 -1.52934e-18 -0 1.65302e-16 -0 1.65296e-16)
(1.65163e-16 -1.53431e-18 -0 1.65145e-16 -0 1.65152e-16)
(1.65071e-16 -1.53493e-18 -0 1.65036e-16 -0 1.65055e-16)
(1.65268e-16 -1.58274e-18 -0 1.65277e-16 -0 1.65271e-16)
(1.81307e-16 -1.55212e-18 -0 1.81322e-16 -0 1.81316e-16)
(1.81152e-16 -1.55655e-18 -0 1.8113e-16 -0 1.81139e-16)
(1.8104e-16 -1.56642e-18 -0 1.81e-16 -0 1.81023e-16)
(1.81284e-16 -1.63393e-18 -0 1.81299e-16 -0 1.8129e-16)
(1.99889e-16 -1.59891e-18 -0 1.99907e-16 -0 1.999e-16)
(1.99702e-16 -1.59892e-18 -0 1.99677e-16 -0 1.99687e-16)
(1.99569e-16 -1.62072e-18 -0 1.99527e-16 -0 1.99549e-16)
(1.99865e-16 -1.71348e-18 -0 1.99887e-16 -0 1.99874e-16)
(2.21208e-16 -1.67624e-18 -0 2.21229e-16 -0 2.21221e-16)
(2.20985e-16 -1.6726e-18 -0 2.20957e-16 -0 2.20968e-16)
(2.2083e-16 -1.71141e-18 -0 2.20784e-16 -0 2.20809e-16)
(2.21182e-16 -1.83895e-18 -0 2.21214e-16 -0 2.21196e-16)
(2.45465e-16 -1.80909e-18 -0 2.45489e-16 -0 2.4548e-16)
(2.45203e-16 -1.79398e-18 -0 2.45171e-16 -0 2.45185e-16)
(2.45023e-16 -1.85408e-18 -0 2.44976e-16 -0 2.45002e-16)
(2.45439e-16 -2.02231e-18 -0 2.45483e-16 -0 2.45459e-16)
(2.72893e-16 -1.95569e-18 -0 2.72922e-16 -0 2.7291e-16)
(2.72589e-16 -1.98823e-18 -0 2.72554e-16 -0 2.72568e-16)
(2.7238e-16 -2.07421e-18 -0 2.72338e-16 -0 2.72361e-16)
(2.72869e-16 -2.30722e-18 -0 2.72927e-16 -0 2.72897e-16)
(1.48027e-16 -2.27918e-18 -0 1.48032e-16 -0 1.4803e-16)
(1.48024e-16 -2.30228e-18 -0 1.48036e-16 -0 1.4803e-16)
(1.48031e-16 -2.32061e-18 -0 1.48029e-16 -0 1.4803e-16)
(1.4803e-16 -2.29173e-18 -0 1.4803e-16 -0 1.48029e-16)
(1.48026e-16 -2.24381e-18 -0 1.48033e-16 -0 1.4803e-16)
(1.48023e-16 -2.26304e-18 -0 1.48037e-16 -0 1.48029e-16)
(1.48031e-16 -2.26752e-18 -0 1.48028e-16 -0 1.4803e-16)
(1.4803e-16 -2.24757e-18 -0 1.48029e-16 -0 1.4803e-16)
(1.48025e-16 -2.18244e-18 -0 1.48034e-16 -0 1.4803e-16)
(1.48022e-16 -2.1974e-18 -0 1.48038e-16 -0 1.48029e-16)
(1.48031e-16 -2.19619e-18 -0 1.48028e-16 -0 1.4803e-16)
(1.48031e-16 -2.17729e-18 -0 1.48029e-16 -0 1.48029e-16)
(1.48023e-16 -2.1006e-18 -0 1.48036e-16 -0 1.4803e-16)
(1.48021e-16 -2.11051e-18 -0 1.48039e-16 -0 1.4803e-16)
(1.48032e-16 -2.10394e-18 -0 1.48027e-16 -0 1.4803e-16)
(1.48031e-16 -2.08659e-18 -0 1.48029e-16 -0 1.48029e-16)
(1.48022e-16 -2.00287e-18 -0 1.48037e-16 -0 1.4803e-16)
(1.48019e-16 -2.00598e-18 -0 1.4804e-16 -0 1.48029e-16)
(1.48033e-16 -1.99567e-18 -0 1.48026e-16 -0 1.4803e-16)
(1.48032e-16 -1.98016e-18 -0 1.48028e-16 -0 1.48029e-16)
(1.48021e-16 -1.89413e-18 -0 1.48038e-16 -0 1.4803e-16)
(1.48019e-16 -1.89032e-18 -0 1.48041e-16 -0 1.48029e-16)
(1.48033e-16 -1.87599e-18 -0 1.48026e-16 -0 1.4803e-16)
(1.48032e-16 -1.86269e-18 -0 1.48028e-16 -0 1.48029e-16)
(1.48019e-16 -1.77993e-18 -0 1.4804e-16 -0 1.4803e-16)
(1.48018e-16 -1.7674e-18 -0 1.48042e-16 -0 1.48029e-16)
(1.48034e-16 -1.7498e-18 -0 1.48025e-16 -0 1.4803e-16)
(1.48033e-16 -1.73901e-18 -0 1.48027e-16 -0 1.48029e-16)
(1.48018e-16 -1.66533e-18 -0 1.48041e-16 -0 1.4803e-16)
(1.48017e-16 -1.64324e-18 -0 1.48042e-16 -0 1.48029e-16)
(1.48035e-16 -1.62132e-18 -0 1.48024e-16 -0 1.4803e-16)
(1.48033e-16 -1.61374e-18 -0 1.48027e-16 -0 1.48029e-16)
(1.51877e-16 -1.59607e-18 -0 1.51903e-16 -0 1.51891e-16)
(1.51902e-16 -1.56167e-18 -0 1.51928e-16 -0 1.51914e-16)
(1.51769e-16 -1.53346e-18 -0 1.51755e-16 -0 1.51762e-16)
(1.51717e-16 -1.5285e-18 -0 1.51709e-16 -0 1.51712e-16)
(1.65525e-16 -1.62722e-18 -0 1.65555e-16 -0 1.65541e-16)
(1.65554e-16 -1.57455e-18 -0 1.65582e-16 -0 1.65567e-16)
(1.65385e-16 -1.53802e-18 -0 1.65367e-16 -0 1.65377e-16)
(1.65318e-16 -1.53755e-18 -0 1.65309e-16 -0 1.65313e-16)
(1.81601e-16 -1.68118e-18 -0 1.81636e-16 -0 1.81619e-16)
(1.81634e-16 -1.6034e-18 -0 1.81664e-16 -0 1.81647e-16)
(1.81426e-16 -1.5558e-18 -0 1.81405e-16 -0 1.81415e-16)
(1.81343e-16 -1.56007e-18 -0 1.81332e-16 -0 1.81337e-16)
(2.00247e-16 -1.76622e-18 -0 2.00287e-16 -0 2.00269e-16)
(2.00284e-16 -1.65552e-18 -0 2.00313e-16 -0 2.00298e-16)
(2.00034e-16 -1.59309e-18 -0 2.00006e-16 -0 2.00021e-16)
(1.99935e-16 -1.60765e-18 -0 1.99919e-16 -0 1.99927e-16)
(2.21637e-16 -1.89623e-18 -0 2.21682e-16 -0 2.21661e-16)
(2.21677e-16 -1.74606e-18 -0 2.21704e-16 -0 2.2169e-16)
(2.21381e-16 -1.66281e-18 -0 2.21347e-16 -0 2.21365e-16)
(2.21263e-16 -1.6834e-18 -0 2.21247e-16 -0 2.21253e-16)
(2.45973e-16 -2.08929e-18 -0 2.46023e-16 -0 2.45999e-16)
(2.46016e-16 -1.89877e-18 -0 2.4604e-16 -0 2.46026e-16)
(2.4567e-16 -1.78531e-18 -0 2.45628e-16 -0 2.45649e-16)
(2.45532e-16 -1.81473e-18 -0 2.45514e-16 -0 2.45521e-16)
(2.73491e-16 -2.3932e-18 -0 2.7354e-16 -0 2.73519e-16)
(2.73537e-16 -2.13257e-18 -0 2.73549e-16 -0 2.73542e-16)
(2.73136e-16 -1.97666e-18 -0 2.73077e-16 -0 2.73111e-16)
(2.72975e-16 -1.96259e-18 -0 2.72953e-16 -0 2.72963e-16)
)
;

boundaryField
{
    topWall
    {
        type            kqRWallFunction;
        value           nonuniform List<symmTensor> 0();
    }
    botWall
    {
        type            kqRWallFunction;
        value           nonuniform List<symmTensor> 0();
    }
    inlet
    {
        type            cyclic;
    }
    outlet
    {
        type            cyclic;
    }
    fixWall
    {
        type            empty;
    }
    procBoundary1to0
    {
        type            processor;
        value           nonuniform List<symmTensor> 8((1.48028e-16 -2.29816e-18 -0 1.48031e-16 -0 1.4803e-16) (1.48032e-16 -2.31835e-18 -0 1.48028e-16 -0 1.48029e-16) (1.48034e-16 -2.29469e-18 -0 1.48025e-16 -0 1.4803e-16) (1.48031e-16 -2.28326e-18 -0 1.48028e-16 -0 1.48029e-16) (1.48028e-16 -2.29308e-18 -0 1.48031e-16 -0 1.4803e-16) (1.48026e-16 -2.31404e-18 -0 1.48034e-16 -0 1.4803e-16) (1.4803e-16 -2.33584e-18 -0 1.48029e-16 -0 1.4803e-16) (1.48029e-16 -2.3059e-18 -0 1.4803e-16 -0 1.4803e-16));
    }
    procBoundary1to2
    {
        type            processor;
        value           nonuniform List<symmTensor> 8((3.03759e-16 -2.23421e-18 -0 3.03797e-16 -0 3.0378e-16) (3.03408e-16 -2.31072e-18 -0 3.03375e-16 -0 3.03387e-16) (3.03173e-16 -2.4256e-18 -0 3.0313e-16 -0 3.03157e-16) (3.03735e-16 -2.70186e-18 -0 3.03822e-16 -0 3.03775e-16) (3.04457e-16 -2.81151e-18 -0 3.0451e-16 -0 3.04486e-16) (3.04508e-16 -2.48717e-18 -0 3.04506e-16 -0 3.04505e-16) (3.04045e-16 -2.27297e-18 -0 3.03976e-16 -0 3.0401e-16) (3.03861e-16 -2.23618e-18 -0 3.03839e-16 -0 3.03845e-16));
    }
}


// ************************************************************************* //
