/*--------------------------------*- C++ -*----------------------------------*\
  =========                 |
  \\      /  F ield         | OpenFOAM: The Open Source CFD Toolbox
   \\    /   O peration     | Website:  https://openfoam.org
    \\  /    A nd           | Version:  dev
     \\/     M anipulation  |

   OpenFOAM for Windows 20.09 (v1)
   Built by CFD Support, www.cfdsupport.com (based on Symscape).
\*---------------------------------------------------------------------------*/
FoamFile
{
    version     2.0;
    format      ascii;
    class       volVectorField;
    location    "8";
    object      U;
}
// * * * * * * * * * * * * * * * * * * * * * * * * * * * * * * * * * * * * * //

dimensions      [0 1 -1 0 0 0 0];

internalField   nonuniform List<vector> 
120
(
(0.037695 4.31186e-08 0)
(0.0377019 -1.00129e-06 0)
(0.0376395 5.82637e-06 0)
(0.0376073 3.39248e-06 0)
(0.0384229 -1.9297e-07 0)
(0.0384332 -6.60202e-07 0)
(0.0383619 6.71065e-06 0)
(0.0383259 3.69242e-06 0)
(0.0390474 -5.29722e-07 0)
(0.0390596 -3.08809e-07 0)
(0.038982 8.0062e-06 0)
(0.0389453 3.84876e-06 0)
(0.0395817 -7.67868e-07 0)
(0.0395962 -3.56271e-09 0)
(0.039512 9.04322e-06 0)
(0.0394746 4.03086e-06 0)
(0.0400367 -1.2159e-06 0)
(0.0400525 4.53546e-07 0)
(0.0399639 1.03112e-05 0)
(0.039928 4.12739e-06 0)
(0.0404236 -1.39042e-06 0)
(0.040441 8.49173e-07 0)
(0.0403481 1.15132e-05 0)
(0.0403138 4.165e-06 0)
(0.0407514 -1.88797e-06 0)
(0.0407698 1.33445e-06 0)
(0.0406742 1.27657e-05 0)
(0.040643 4.1065e-06 0)
(0.0410292 -2.0639e-06 0)
(0.0410488 1.77373e-06 0)
(0.0409507 1.39867e-05 0)
(0.0409231 3.9878e-06 0)
(0.0412643 -2.54009e-06 0)
(0.0412845 2.27499e-06 0)
(0.0411855 1.51959e-05 0)
(0.0411625 3.76154e-06 0)
(0.0414638 -2.7317e-06 0)
(0.0414851 2.72233e-06 0)
(0.0413857 1.63877e-05 0)
(0.041368 3.47548e-06 0)
(0.041634 -3.20285e-06 0)
(0.0416556 3.1821e-06 0)
(0.0415573 1.74595e-05 0)
(0.0415458 3.08686e-06 0)
(0.0417808 -3.36576e-06 0)
(0.041803 3.66111e-06 0)
(0.0417062 1.86634e-05 0)
(0.0417022 2.53906e-06 0)
(0.0419096 -3.82782e-06 0)
(0.0419312 4.07534e-06 0)
(0.0418373 1.93964e-05 0)
(0.0418417 1.9877e-06 0)
(0.0420247 -3.97905e-06 0)
(0.0420464 4.47031e-06 0)
(0.0419559 2.05326e-05 0)
(0.0419705 1.22272e-06 0)
(0.0421322 -4.39525e-06 0)
(0.0421519 4.89668e-06 0)
(0.0420661 2.10364e-05 0)
(0.0420913 4.77396e-07 0)
(0.0375923 -9.43863e-09 0)
(0.0376682 -6.03616e-06 0)
(0.0377045 2.10437e-06 0)
(0.0376536 -6.00871e-06 0)
(0.0383172 -3.86876e-07 0)
(0.0384 -7.13997e-06 0)
(0.0384381 2.26584e-06 0)
(0.0383807 -6.02561e-06 0)
(0.0389419 -9.69252e-07 0)
(0.039029 -8.34675e-06 0)
(0.0390682 2.65915e-06 0)
(0.0390053 -5.87235e-06 0)
(0.039479 -1.5576e-06 0)
(0.0395693 -9.45155e-06 0)
(0.0396069 2.79853e-06 0)
(0.0395395 -5.88764e-06 0)
(0.0399389 -2.26969e-06 0)
(0.0400303 -1.06391e-05 0)
(0.0400664 3.2956e-06 0)
(0.0399954 -5.68369e-06 0)
(0.0403323 -3.03903e-06 0)
(0.0404235 -1.17937e-05 0)
(0.0404568 3.60247e-06 0)
(0.0403829 -5.55671e-06 0)
(0.0406678 -3.83785e-06 0)
(0.0407573 -1.29089e-05 0)
(0.0407879 4.09626e-06 0)
(0.040712 -5.36566e-06 0)
(0.0409546 -4.6938e-06 0)
(0.0410409 -1.40069e-05 0)
(0.041068 4.52309e-06 0)
(0.0409906 -5.14284e-06 0)
(0.0411996 -5.56086e-06 0)
(0.0412814 -1.50058e-05 0)
(0.0413051 5.07954e-06 0)
(0.0412271 -4.92319e-06 0)
(0.0414104 -6.41444e-06 0)
(0.0414863 -1.59702e-05 0)
(0.0415059 5.60703e-06 0)
(0.0414275 -4.66742e-06 0)
(0.0415929 -7.25299e-06 0)
(0.0416613 -1.67659e-05 0)
(0.0416767 6.25056e-06 0)
(0.041599 -4.42935e-06 0)
(0.0417536 -8.15364e-06 0)
(0.0418129 -1.76313e-05 0)
(0.0418233 6.6883e-06 0)
(0.0417463 -4.21151e-06 0)
(0.0418972 -8.83792e-06 0)
(0.0419459 -1.81297e-05 0)
(0.041951 7.5818e-06 0)
(0.0418763 -3.77264e-06 0)
(0.0420295 -9.63322e-06 0)
(0.0420663 -1.86963e-05 0)
(0.042065 7.95724e-06 0)
(0.0419916 -3.75831e-06 0)
(0.0421543 -1.02871e-05 0)
(0.0421789 -1.90057e-05 0)
(0.0421704 8.90948e-06 0)
(0.0421 -3.35827e-06 0)
)
;

boundaryField
{
    topWall
    {
        type            noSlip;
    }
    botWall
    {
        type            noSlip;
    }
    inlet
    {
        type            cyclic;
    }
    outlet
    {
        type            cyclic;
    }
    fixWall
    {
        type            empty;
    }
    procBoundary1to0
    {
        type            processor;
        value           nonuniform List<vector> 8((0.0368558 2.0152e-07 0) (0.0368537 -1.20899e-06 0) (0.0368001 4.8131e-06 0) (0.0367724 3.20949e-06 0) (0.0367553 2.80405e-07 0) (0.0368225 -5.07631e-06 0) (0.036848 1.93643e-06 0) (0.0368103 -5.8721e-06 0));
    }
    procBoundary1to2
    {
        type            processor;
        value           nonuniform List<vector> 8((0.0422287 -4.62154e-06 0) (0.0422538 5.17848e-06 0) (0.0421729 2.17213e-05 0) (0.0422118 -3.40121e-07 0) (0.0422791 -1.07571e-05 0) (0.042288 -1.90263e-05 0) (0.0422709 9.71556e-06 0) (0.0421966 -3.22379e-06 0));
    }
}


// ************************************************************************* //
