/*--------------------------------*- C++ -*----------------------------------*\
  =========                 |
  \\      /  F ield         | OpenFOAM: The Open Source CFD Toolbox
   \\    /   O peration     | Website:  https://openfoam.org
    \\  /    A nd           | Version:  dev
     \\/     M anipulation  |

   OpenFOAM for Windows 20.09 (v1)
   Built by CFD Support, www.cfdsupport.com (based on Symscape).
\*---------------------------------------------------------------------------*/
FoamFile
{
    version     2.0;
    format      ascii;
    class       volVectorField;
    location    "8";
    object      UMean;
}
// * * * * * * * * * * * * * * * * * * * * * * * * * * * * * * * * * * * * * //

dimensions      [0 1 -1 0 0 0 0];

internalField   nonuniform List<vector> 
120
(
(0.0242226 3.16048e-06 0)
(0.024266 -6.64152e-06 0)
(0.0242827 1.20484e-06 0)
(0.0242655 7.72573e-06 0)
(0.0245116 3.5899e-06 0)
(0.0245585 -7.40493e-06 0)
(0.0245721 1.14708e-06 0)
(0.0245589 8.00555e-06 0)
(0.0247483 3.46256e-06 0)
(0.0247958 -7.89175e-06 0)
(0.0248085 1.36429e-06 0)
(0.0248002 7.9665e-06 0)
(0.0249413 3.82622e-06 0)
(0.0249904 -8.5711e-06 0)
(0.0250014 1.22921e-06 0)
(0.0249963 8.11454e-06 0)
(0.0250984 3.84078e-06 0)
(0.025147 -9.02974e-06 0)
(0.0251576 1.37562e-06 0)
(0.0251561 7.96341e-06 0)
(0.025226 4.09157e-06 0)
(0.0252746 -9.73558e-06 0)
(0.025284 1.23952e-06 0)
(0.0252851 7.99023e-06 0)
(0.0253294 4.14966e-06 0)
(0.0253768 -1.01981e-05 0)
(0.0253855 1.31497e-06 0)
(0.0253893 7.7582e-06 0)
(0.0254133 4.3733e-06 0)
(0.0254598 -1.08108e-05 0)
(0.0254671 1.20615e-06 0)
(0.0254735 7.70081e-06 0)
(0.0254814 4.47135e-06 0)
(0.0255261 -1.13111e-05 0)
(0.0255323 1.18764e-06 0)
(0.0255413 7.37095e-06 0)
(0.0255373 4.69107e-06 0)
(0.0255804 -1.17764e-05 0)
(0.0255846 1.13003e-06 0)
(0.0255965 7.26099e-06 0)
(0.0255834 4.83322e-06 0)
(0.0256241 -1.22834e-05 0)
(0.0256265 1.0182e-06 0)
(0.0256412 6.86627e-06 0)
(0.0256226 4.93253e-06 0)
(0.0256607 -1.27089e-05 0)
(0.0256607 1.01137e-06 0)
(0.0256789 6.60619e-06 0)
(0.0256565 5.15314e-06 0)
(0.0256909 -1.29878e-05 0)
(0.0256884 8.70499e-07 0)
(0.0257099 6.14934e-06 0)
(0.0256876 5.195e-06 0)
(0.0257178 -1.33697e-05 0)
(0.0257123 8.16991e-07 0)
(0.0257386 5.78618e-06 0)
(0.0257171 5.53783e-06 0)
(0.025741 -1.35822e-05 0)
(0.025732 6.78114e-07 0)
(0.0257634 5.34739e-06 0)
(0.024246 7.08789e-06 0)
(0.0242372 -4.0877e-06 0)
(0.0242902 -8.24964e-06 0)
(0.024273 -4.63525e-07 0)
(0.0245467 7.32359e-06 0)
(0.0245379 -4.36055e-06 0)
(0.0245879 -8.64403e-06 0)
(0.0245631 7.94249e-09 0)
(0.0247931 7.45274e-06 0)
(0.0247844 -4.66728e-06 0)
(0.0248326 -8.79773e-06 0)
(0.0248021 7.22446e-07 0)
(0.0249936 7.67682e-06 0)
(0.0249845 -4.98328e-06 0)
(0.0250303 -9.07398e-06 0)
(0.0249957 1.48251e-06 0)
(0.0251566 7.70008e-06 0)
(0.0251477 -5.22453e-06 0)
(0.0251918 -9.13918e-06 0)
(0.025154 2.33888e-06 0)
(0.0252886 7.89473e-06 0)
(0.0252794 -5.50247e-06 0)
(0.0253216 -9.27949e-06 0)
(0.0252816 3.03229e-06 0)
(0.0253953 7.86511e-06 0)
(0.0253863 -5.73302e-06 0)
(0.0254271 -9.34628e-06 0)
(0.0253853 3.95605e-06 0)
(0.0254817 8.00911e-06 0)
(0.0254723 -5.95552e-06 0)
(0.0255116 -9.40488e-06 0)
(0.0254685 4.69616e-06 0)
(0.0255512 7.96929e-06 0)
(0.0255418 -6.19123e-06 0)
(0.0255801 -9.43074e-06 0)
(0.0255364 5.60808e-06 0)
(0.0256082 8.05824e-06 0)
(0.025598 -6.35506e-06 0)
(0.025635 -9.45269e-06 0)
(0.0255909 6.38676e-06 0)
(0.0256541 8.03253e-06 0)
(0.0256434 -6.61056e-06 0)
(0.02568 -9.45171e-06 0)
(0.0256359 7.32233e-06 0)
(0.0256932 8.04435e-06 0)
(0.0256809 -6.74501e-06 0)
(0.0257162 -9.5592e-06 0)
(0.0256727 7.89217e-06 0)
(0.025725 8.14519e-06 0)
(0.0257117 -6.84644e-06 0)
(0.0257466 -9.30111e-06 0)
(0.0257044 8.99225e-06 0)
(0.0257545 8.07606e-06 0)
(0.0257387 -7.09158e-06 0)
(0.0257716 -9.59682e-06 0)
(0.0257312 9.44873e-06 0)
(0.0257798 8.22702e-06 0)
(0.0257623 -7.04414e-06 0)
(0.0257937 -9.37954e-06 0)
(0.0257561 1.0305e-05 0)
)
;

boundaryField
{
    topWall
    {
        type            calculated;
        value           nonuniform List<vector> 0();
    }
    botWall
    {
        type            calculated;
        value           nonuniform List<vector> 0();
    }
    inlet
    {
        type            cyclic;
    }
    outlet
    {
        type            cyclic;
    }
    fixWall
    {
        type            empty;
    }
    procBoundary1to0
    {
        type            processor;
        value           nonuniform List<vector> 8((0.023875 3.34035e-06 0) (0.0239138 -6.11633e-06 0) (0.0239324 1.0758e-06 0) (0.0239091 7.43461e-06 0) (0.0238783 6.74097e-06 0) (0.0238692 -3.75538e-06 0) (0.0239216 -7.77204e-06 0) (0.0239152 -1.06713e-06 0));
    }
    procBoundary1to2
    {
        type            processor;
        value           nonuniform List<vector> 8((0.0257445 5.69382e-06 0) (0.0257637 -1.35927e-05 0) (0.025753 4.53514e-07 0) (0.0257889 4.96981e-06 0) (0.0258071 8.22109e-06 0) (0.0257857 -7.26653e-06 0) (0.0258127 -9.42457e-06 0) (0.0257791 1.10549e-05 0));
    }
}


// ************************************************************************* //
