/*--------------------------------*- C++ -*----------------------------------*\
  =========                 |
  \\      /  F ield         | OpenFOAM: The Open Source CFD Toolbox
   \\    /   O peration     | Website:  https://openfoam.org
    \\  /    A nd           | Version:  dev
     \\/     M anipulation  |

   OpenFOAM for Windows 20.09 (v1)
   Built by CFD Support, www.cfdsupport.com (based on Symscape).
\*---------------------------------------------------------------------------*/
FoamFile
{
    version     2.0;
    format      ascii;
    class       volSymmTensorField;
    location    "8";
    object      UPrime2Mean;
}
// * * * * * * * * * * * * * * * * * * * * * * * * * * * * * * * * * * * * * //

dimensions      [0 2 -2 0 0 0 0];

internalField   nonuniform List<symmTensor> 
120
(
(4.59789e-05 -1.07119e-08 0 6.83098e-11 0 0)
(4.56666e-05 3.59132e-08 0 6.59538e-11 0 0)
(4.52369e-05 -1.7786e-09 0 1.04048e-11 0 0)
(4.55218e-05 -2.55895e-08 0 4.64457e-11 0 0)
(4.87172e-05 -1.14945e-08 0 7.38437e-11 0 0)
(4.84195e-05 4.09365e-08 0 7.86348e-11 0 0)
(4.7937e-05 -5.46698e-10 0 1.26772e-11 0 0)
(4.81872e-05 -2.77784e-08 0 5.05255e-11 0 0)
(5.11681e-05 -1.19983e-08 0 7.76145e-11 0 0)
(5.08845e-05 4.46385e-08 0 8.82707e-11 0 0)
(5.03596e-05 1.19475e-09 0 1.61081e-11 0 0)
(5.05918e-05 -3.01021e-08 0 5.52759e-11 0 0)
(5.3348e-05 -1.24119e-08 0 8.20338e-11 0 0)
(5.3075e-05 4.93484e-08 0 1.02027e-10 0 0)
(5.25028e-05 2.9517e-09 0 1.96425e-11 0 0)
(5.2726e-05 -3.28414e-08 0 6.13179e-11 0 0)
(5.52634e-05 -1.33102e-08 0 8.71419e-11 0 0)
(5.49967e-05 5.36029e-08 0 1.14015e-10 0 0)
(5.43869e-05 5.15888e-09 0 2.38218e-11 0 0)
(5.46168e-05 -3.50926e-08 0 6.69309e-11 0 0)
(5.69381e-05 -1.31837e-08 0 9.03758e-11 0 0)
(5.66778e-05 5.82896e-08 0 1.28805e-10 0 0)
(5.60297e-05 7.42209e-09 0 2.87733e-11 0 0)
(5.62708e-05 -3.80478e-08 0 7.37784e-11 0 0)
(5.83894e-05 -1.40588e-08 0 9.56888e-11 0 0)
(5.81308e-05 6.25751e-08 0 1.42526e-10 0 0)
(5.74533e-05 9.79575e-09 0 3.40757e-11 0 0)
(5.77144e-05 -4.06688e-08 0 8.11066e-11 0 0)
(5.96435e-05 -1.37341e-08 0 9.93349e-11 0 0)
(5.93878e-05 6.72657e-08 0 1.58778e-10 0 0)
(5.86819e-05 1.21897e-08 0 4.02054e-11 0 0)
(5.89648e-05 -4.39889e-08 0 9.03963e-11 0 0)
(6.07214e-05 -1.45525e-08 0 1.043e-10 0 0)
(6.0467e-05 7.18611e-08 0 1.75857e-10 0 0)
(5.97394e-05 1.468e-08 0 4.6462e-11 0 0)
(6.00481e-05 -4.69634e-08 0 9.92633e-11 0 0)
(6.16454e-05 -1.4173e-08 0 1.09665e-10 0 0)
(6.13962e-05 7.62317e-08 0 1.92264e-10 0 0)
(6.06524e-05 1.70345e-08 0 5.35092e-11 0 0)
(6.09863e-05 -5.07443e-08 0 1.11539e-10 0 0)
(6.24393e-05 -1.51032e-08 0 1.14018e-10 0 0)
(6.21975e-05 8.09886e-08 0 2.11458e-10 0 0)
(6.14449e-05 1.94567e-08 0 6.0277e-11 0 0)
(6.1805e-05 -5.40377e-08 0 1.22135e-10 0 0)
(6.31206e-05 -1.44003e-08 0 1.19054e-10 0 0)
(6.28935e-05 8.55279e-08 0 2.3178e-10 0 0)
(6.21438e-05 2.1922e-08 0 6.78214e-11 0 0)
(6.25304e-05 -5.81142e-08 0 1.36919e-10 0 0)
(6.3714e-05 -1.53875e-08 0 1.25316e-10 0 0)
(6.35097e-05 8.95358e-08 0 2.52561e-10 0 0)
(6.27746e-05 2.32944e-08 0 7.44394e-11 0 0)
(6.31843e-05 -6.21529e-08 0 1.51575e-10 0 0)
(6.42276e-05 -1.47112e-08 0 1.28365e-10 0 0)
(6.40619e-05 9.41775e-08 0 2.7199e-10 0 0)
(6.33686e-05 2.61815e-08 0 8.20692e-11 0 0)
(6.37993e-05 -6.62815e-08 0 1.67118e-10 0 0)
(6.46899e-05 -1.63681e-08 0 1.3707e-10 0 0)
(6.458e-05 9.70996e-08 0 2.87362e-10 0 0)
(6.39526e-05 2.68434e-08 0 8.81228e-11 0 0)
(6.43887e-05 -7.04574e-08 0 1.82804e-10 0 0)
(4.55309e-05 -1.05118e-09 0 1.54001e-11 0 0)
(4.57596e-05 -8.94873e-09 0 5.28032e-12 0 0)
(4.58417e-05 2.95614e-08 0 3.08999e-11 0 0)
(4.56381e-05 -2.12115e-08 0 2.43178e-11 0 0)
(4.82286e-05 -2.07013e-09 0 1.72284e-11 0 0)
(4.84891e-05 -1.12143e-08 0 6.45296e-12 0 0)
(4.86088e-05 3.12761e-08 0 3.37718e-11 0 0)
(4.83934e-05 -2.25456e-08 0 2.28517e-11 0 0)
(5.06652e-05 -2.57615e-09 0 2.02273e-11 0 0)
(5.09499e-05 -1.39311e-08 0 7.88316e-12 0 0)
(5.10972e-05 3.35919e-08 0 3.68178e-11 0 0)
(5.08618e-05 -2.4112e-08 0 2.14482e-11 0 0)
(5.2845e-05 -4.83556e-09 0 2.19862e-11 0 0)
(5.31523e-05 -1.65752e-08 0 1.01014e-11 0 0)
(5.33168e-05 3.5279e-08 0 4.00887e-11 0 0)
(5.30582e-05 -2.48678e-08 0 2.01177e-11 0 0)
(5.47753e-05 -5.5239e-09 0 2.5363e-11 0 0)
(5.50912e-05 -1.95654e-08 0 1.20942e-11 0 0)
(5.52682e-05 3.75345e-08 0 4.31629e-11 0 0)
(5.49895e-05 -2.57973e-08 0 1.94476e-11 0 0)
(5.64727e-05 -8.2747e-09 0 2.7901e-11 0 0)
(5.67933e-05 -2.25217e-08 0 1.46705e-11 0 0)
(5.69741e-05 3.91661e-08 0 4.59753e-11 0 0)
(5.66744e-05 -2.64433e-08 0 1.86455e-11 0 0)
(5.79524e-05 -9.64168e-09 0 3.11013e-11 0 0)
(5.8267e-05 -2.55324e-08 0 1.74473e-11 0 0)
(5.84483e-05 4.1307e-08 0 4.94436e-11 0 0)
(5.81343e-05 -2.72603e-08 0 1.8484e-11 0 0)
(5.92392e-05 -1.22594e-08 0 3.46018e-11 0 0)
(5.95442e-05 -2.8532e-08 0 2.03122e-11 0 0)
(5.97179e-05 4.30546e-08 0 5.24353e-11 0 0)
(5.93897e-05 -2.75302e-08 0 1.83409e-11 0 0)
(6.03535e-05 -1.43266e-08 0 3.78725e-11 0 0)
(6.06404e-05 -3.12404e-08 0 2.33963e-11 0 0)
(6.08024e-05 4.51728e-08 0 5.63047e-11 0 0)
(6.04656e-05 -2.82352e-08 0 1.89773e-11 0 0)
(6.13207e-05 -1.65285e-08 0 4.20182e-11 0 0)
(6.15864e-05 -3.41498e-08 0 2.651e-11 0 0)
(6.17307e-05 4.70624e-08 0 5.95495e-11 0 0)
(6.13847e-05 -2.84033e-08 0 1.95041e-11 0 0)
(6.21644e-05 -1.90977e-08 0 4.528e-11 0 0)
(6.23989e-05 -3.61756e-08 0 2.96252e-11 0 0)
(6.252e-05 4.93819e-08 0 6.43996e-11 0 0)
(6.21709e-05 -2.9276e-08 0 2.0941e-11 0 0)
(6.29095e-05 -2.08095e-08 0 4.99762e-11 0 0)
(6.31074e-05 -3.89245e-08 0 3.26415e-11 0 0)
(6.32025e-05 5.12742e-08 0 6.82482e-11 0 0)
(6.28477e-05 -2.89618e-08 0 2.17352e-11 0 0)
(6.35808e-05 -2.38733e-08 0 5.29085e-11 0 0)
(6.37285e-05 -4.06095e-08 0 3.5624e-11 0 0)
(6.37897e-05 5.35309e-08 0 7.17812e-11 0 0)
(6.34373e-05 -2.95697e-08 0 2.36305e-11 0 0)
(6.41995e-05 -2.50302e-08 0 5.75075e-11 0 0)
(6.4289e-05 -4.22259e-08 0 3.85512e-11 0 0)
(6.43188e-05 5.60271e-08 0 7.87e-11 0 0)
(6.39631e-05 -2.97269e-08 0 2.53073e-11 0 0)
(6.47895e-05 -2.72647e-08 0 6.20038e-11 0 0)
(6.48084e-05 -4.34821e-08 0 4.05914e-11 0 0)
(6.47977e-05 5.82971e-08 0 8.21967e-11 0 0)
(6.44492e-05 -3.01033e-08 0 2.71648e-11 0 0)
)
;

boundaryField
{
    topWall
    {
        type            calculated;
        value           nonuniform List<symmTensor> 0();
    }
    botWall
    {
        type            calculated;
        value           nonuniform List<symmTensor> 0();
    }
    inlet
    {
        type            cyclic;
    }
    outlet
    {
        type            cyclic;
    }
    fixWall
    {
        type            empty;
    }
    procBoundary1to0
    {
        type            processor;
        value           nonuniform List<symmTensor> 8((4.29593e-05 -1.01828e-08 0 6.31432e-11 0 0) (4.26349e-05 3.24433e-08 0 5.81128e-11 0 0) (4.2247e-05 -2.53226e-09 0 7.9055e-12 0 0) (4.25664e-05 -2.29976e-08 0 4.13151e-11 0 0) (4.25769e-05 -2.02961e-10 0 1.35424e-11 0 0) (4.2773e-05 -6.88437e-09 0 3.86043e-12 0 0) (4.27874e-05 2.69185e-08 0 2.69211e-11 0 0) (4.2595e-05 -1.90295e-08 0 2.5773e-11 0 0));
    }
    procBoundary1to2
    {
        type            processor;
        value           nonuniform List<symmTensor> 8((6.50767e-05 -1.65992e-08 0 1.40926e-10 0 0) (6.50807e-05 9.94948e-08 0 2.92124e-10 0 0) (6.45435e-05 2.85921e-08 0 9.52029e-11 0 0) (6.49681e-05 -7.41711e-08 0 1.96503e-10 0 0) (6.5368e-05 -2.87303e-08 0 6.52511e-11 0 0) (6.5339e-05 -4.31855e-08 0 4.21303e-11 0 0) (6.52782e-05 6.08815e-08 0 8.98021e-11 0 0) (6.48739e-05 -3.09008e-08 0 2.9961e-11 0 0));
    }
}


// ************************************************************************* //
