/*--------------------------------*- C++ -*----------------------------------*\
  =========                 |
  \\      /  F ield         | OpenFOAM: The Open Source CFD Toolbox
   \\    /   O peration     | Website:  https://openfoam.org
    \\  /    A nd           | Version:  dev
     \\/     M anipulation  |

   OpenFOAM for Windows 20.09 (v1)
   Built by CFD Support, www.cfdsupport.com (based on Symscape).
\*---------------------------------------------------------------------------*/
FoamFile
{
    version     2.0;
    format      ascii;
    class       surfaceScalarField;
    location    "8";
    object      alphaPhi0.water;
}
// * * * * * * * * * * * * * * * * * * * * * * * * * * * * * * * * * * * * * //

dimensions      [0 3 -1 0 0 0 0];

internalField   nonuniform List<scalar> 
1792
(
2.00657e-09
4.93751e-11
2.04589e-09
-4.0229e-11
2.05449e-09
-8.71831e-12
1.37234e-12
2.05315e-09
5.76977e-09
6.59217e-11
5.7837e-09
-5.41852e-11
5.79511e-09
-2.0148e-11
6.72783e-12
5.78979e-09
9.17006e-09
7.64524e-11
9.18049e-09
-6.45964e-11
9.18597e-09
-2.56341e-11
1.74184e-11
9.17529e-09
1.22415e-08
8.19552e-11
1.22489e-08
-7.19515e-11
1.22491e-08
-2.58925e-11
3.31597e-11
1.22334e-08
1.50074e-08
8.46849e-11
1.50111e-08
-7.5643e-11
1.5007e-08
-2.18107e-11
5.29185e-11
1.49873e-08
1.74885e-08
8.49538e-11
1.74891e-08
-7.62545e-11
1.74818e-08
-1.44778e-11
7.60064e-11
1.74587e-08
1.97069e-08
8.32727e-11
1.97048e-08
-7.40818e-11
1.96946e-08
-4.30227e-12
1.01295e-10
1.96693e-08
2.16831e-08
7.98937e-11
2.16785e-08
-6.94782e-11
2.16658e-08
8.44439e-12
1.27787e-10
2.16393e-08
2.34374e-08
7.53394e-11
2.34304e-08
-6.24023e-11
2.34154e-08
2.33949e-11
1.54331e-10
2.33889e-08
2.4989e-08
6.97053e-11
2.49796e-08
-5.30038e-11
2.49621e-08
4.09159e-11
1.80094e-10
2.49363e-08
2.63564e-08
6.32703e-11
2.63443e-08
-4.08604e-11
2.63245e-08
6.06842e-11
2.04373e-10
2.63002e-08
2.7557e-08
5.5581e-11
2.75424e-08
-2.62871e-11
2.75194e-08
8.37672e-11
2.26747e-10
2.7497e-08
2.86063e-08
4.76605e-11
2.85892e-08
-9.08556e-12
2.85643e-08
1.08688e-10
2.47616e-10
2.85433e-08
2.95212e-08
3.80351e-11
2.95019e-08
1.02787e-11
2.94718e-08
1.38851e-10
2.66375e-10
2.94529e-08
3.03145e-08
2.63578e-11
3.02936e-08
3.12712e-11
3.02593e-08
1.73016e-10
2.83477e-10
3.02415e-08
3.10001e-08
9.64536e-12
3.09815e-08
5.03677e-11
3.0936e-08
2.18106e-10
2.96657e-10
3.09218e-08
3.15922e-08
-7.54578e-12
3.1568e-08
7.46509e-11
3.15226e-08
2.63515e-10
3.12751e-10
3.15064e-08
3.20991e-08
-2.60744e-11
3.20726e-08
1.01125e-10
3.20231e-08
3.12975e-10
3.26216e-10
3.20097e-08
3.25308e-08
-4.49844e-11
3.25027e-08
1.29267e-10
3.24514e-08
3.64268e-10
3.36476e-10
3.24411e-08
3.28984e-08
-6.44501e-11
3.28688e-08
1.58861e-10
3.28157e-08
4.17431e-10
3.42935e-10
3.28092e-08
3.32096e-08
-8.37245e-11
3.3179e-08
1.89458e-10
3.31255e-08
4.71005e-10
3.45457e-10
3.31229e-08
3.34733e-08
-1.0325e-10
3.34419e-08
2.2086e-10
3.33881e-08
5.24786e-10
3.43831e-10
3.33897e-08
3.36958e-08
-1.22462e-10
3.36639e-08
2.52736e-10
3.36111e-08
5.77693e-10
3.38195e-10
3.36167e-08
3.38843e-08
-1.41975e-10
3.38518e-08
2.85148e-10
3.38004e-08
6.29215e-10
3.28241e-10
3.38103e-08
3.40431e-08
-1.60976e-10
3.40114e-08
3.16877e-10
3.39618e-08
6.78831e-10
3.13986e-10
3.3976e-08
3.41787e-08
-1.80031e-10
3.41476e-08
3.48013e-10
3.41007e-08
7.25697e-10
2.95239e-10
3.41195e-08
3.42949e-08
-1.98614e-10
3.42646e-08
3.78267e-10
3.42217e-08
7.6871e-10
2.7189e-10
3.4245e-08
3.43965e-08
-2.17222e-10
3.43674e-08
4.07308e-10
3.43291e-08
8.07016e-10
2.43421e-10
3.43576e-08
3.44866e-08
-2.34926e-10
3.44591e-08
4.34829e-10
3.44267e-08
8.39455e-10
2.09681e-10
3.44604e-08
3.45715e-08
-2.54802e-10
3.45432e-08
4.63998e-10
3.45215e-08
8.60614e-10
1.75058e-10
3.45569e-08
3.46489e-08
-2.75113e-10
3.46255e-08
4.87914e-10
3.46086e-08
8.77524e-10
1.28108e-10
3.4656e-08
3.47286e-08
-2.94259e-10
3.47089e-08
5.07646e-10
3.46992e-08
8.87215e-10
7.50888e-11
3.47522e-08
3.48134e-08
-3.13759e-10
3.4797e-08
5.24035e-10
3.47937e-08
8.90578e-10
1.80294e-11
3.48507e-08
3.49071e-08
-3.34379e-10
3.48941e-08
5.37046e-10
3.48961e-08
8.88604e-10
-4.15585e-11
3.49557e-08
3.50129e-08
-3.56049e-10
3.50031e-08
5.46811e-10
3.50091e-08
8.82662e-10
-1.02072e-10
3.50696e-08
3.51352e-08
-3.79043e-10
3.51284e-08
5.53526e-10
3.51375e-08
8.73628e-10
-1.62228e-10
3.51976e-08
3.52777e-08
-4.03259e-10
3.52738e-08
5.57432e-10
3.5285e-08
8.62463e-10
-2.2065e-10
3.53434e-08
3.54452e-08
-4.28645e-10
3.54441e-08
5.58488e-10
3.54569e-08
8.49665e-10
-2.76345e-10
3.55126e-08
3.56423e-08
-4.54903e-10
3.56439e-08
5.56814e-10
3.56579e-08
8.3573e-10
-3.28232e-10
3.57097e-08
3.58743e-08
-4.8136e-10
3.58789e-08
5.52177e-10
3.58943e-08
8.20388e-10
-3.75409e-10
3.59415e-08
3.61477e-08
-5.08079e-10
3.61547e-08
5.45162e-10
3.61716e-08
8.03499e-10
-4.17227e-10
3.62134e-08
3.64686e-08
-5.33726e-10
3.64783e-08
5.35401e-10
3.64974e-08
7.84363e-10
-4.53225e-10
3.65334e-08
3.68442e-08
-5.57378e-10
3.68558e-08
5.23796e-10
3.68779e-08
7.62195e-10
-4.83633e-10
3.69083e-08
3.72828e-08
-5.77957e-10
3.72963e-08
5.10278e-10
3.73223e-08
7.36229e-10
-5.08221e-10
3.73469e-08
3.77947e-08
-5.96979e-10
3.78039e-08
4.99664e-10
3.78365e-08
7.03203e-10
-5.30994e-10
3.7858e-08
3.83851e-08
-6.09694e-10
3.83984e-08
4.85679e-10
3.84341e-08
6.66875e-10
-5.48545e-10
3.84502e-08
3.90689e-08
-6.18746e-10
3.90812e-08
4.73363e-10
3.91219e-08
6.2617e-10
-5.59158e-10
3.91325e-08
3.98555e-08
-6.23528e-10
3.98692e-08
4.59656e-10
3.99133e-08
5.82039e-10
-5.64043e-10
3.99182e-08
4.07578e-08
-6.24867e-10
4.07726e-08
4.44836e-10
4.08194e-08
5.35284e-10
-5.63552e-10
4.08189e-08
4.17885e-08
-6.23428e-10
4.18056e-08
4.27752e-10
4.18537e-08
4.87212e-10
-5.5757e-10
4.18477e-08
4.29628e-08
-6.20268e-10
4.29813e-08
4.09302e-10
4.30298e-08
4.38637e-10
-5.46376e-10
4.30186e-08
4.42938e-08
-6.16251e-10
4.43142e-08
3.88973e-10
4.43628e-08
3.89973e-10
-5.30311e-10
4.43468e-08
4.57987e-08
-6.12034e-10
4.58201e-08
3.67571e-10
4.58682e-08
3.41947e-10
-5.09755e-10
4.58476e-08
4.74914e-08
-6.08308e-10
4.75145e-08
3.44417e-10
4.75623e-08
2.94209e-10
-4.84889e-10
4.75374e-08
4.93909e-08
-6.06095e-10
4.94154e-08
3.1989e-10
4.94627e-08
2.4692e-10
-4.55511e-10
4.94333e-08
5.15112e-08
-6.0611e-10
5.15389e-08
2.92234e-10
5.15868e-08
1.99039e-10
-4.21856e-10
5.15532e-08
5.38737e-08
-6.09721e-10
5.39046e-08
2.61382e-10
5.3953e-08
1.50651e-10
-3.83711e-10
5.39148e-08
5.6492e-08
-6.17581e-10
5.65287e-08
2.24738e-10
5.65801e-08
9.92091e-11
-3.4117e-10
5.65376e-08
5.9384e-08
-6.29463e-10
5.94277e-08
1.8131e-10
5.94833e-08
4.40906e-11
-2.93534e-10
5.94363e-08
6.01317e-08
-5.45151e-11
6.06078e-08
1.2314e-10
6.0892e-08
-1.05128e-12
6.07632e-08
-2.31483e-11
2.05141e-09
1.74473e-12
2.05454e-09
-3.15652e-12
2.04651e-09
8.00872e-12
-6.84021e-12
5.78763e-09
3.89752e-12
5.79332e-09
-8.84107e-12
5.7802e-09
2.11156e-11
-1.29461e-11
9.17375e-09
5.42938e-12
9.18174e-09
-1.67955e-11
9.16788e-09
3.49713e-11
-2.56127e-11
1.22323e-08
6.51682e-12
1.22439e-08
-2.82999e-11
1.223e-08
4.88026e-11
-4.25425e-11
1.49862e-08
7.55105e-12
1.50021e-08
-4.41601e-11
1.49894e-08
6.15803e-11
-6.32844e-11
1.74578e-08
8.41538e-12
1.74779e-08
-6.42543e-11
1.7466e-08
7.3537e-11
-8.60458e-11
1.96685e-08
9.21384e-12
1.96924e-08
-8.81077e-11
1.96812e-08
8.46611e-11
-1.10082e-10
2.1639e-08
9.51287e-12
2.1666e-08
-1.15124e-10
2.16553e-08
9.53751e-11
-1.34598e-10
2.33892e-08
9.19014e-12
2.34187e-08
-1.44692e-10
2.34084e-08
1.05682e-10
-1.59119e-10
2.49382e-08
7.35971e-12
2.49697e-08
-1.76294e-10
2.49594e-08
1.15966e-10
-1.83122e-10
2.63039e-08
3.72167e-12
2.63371e-08
-2.09587e-10
2.63265e-08
1.26546e-10
-2.06629e-10
2.75034e-08
-2.74479e-12
2.75386e-08
-2.44819e-10
2.75271e-08
1.3813e-10
-2.28944e-10
2.85526e-08
-1.20463e-11
2.85904e-08
-2.82566e-10
2.85778e-08
1.50702e-10
-2.49599e-10
2.94673e-08
-2.64359e-11
2.95085e-08
-3.23734e-10
2.94941e-08
1.65163e-10
-2.67194e-10
3.02604e-08
-4.57257e-11
3.03069e-08
-3.70097e-10
3.02914e-08
1.80801e-10
-2.79282e-10
3.09415e-08
-6.57591e-11
3.10006e-08
-4.29454e-10
3.09837e-08
1.9758e-10
-2.79745e-10
3.15344e-08
-9.37521e-11
3.15931e-08
-4.88126e-10
3.15753e-08
2.15358e-10
-2.79473e-10
3.20431e-08
-1.27139e-10
3.21033e-08
-5.48367e-10
3.20827e-08
2.35978e-10
-2.77346e-10
3.24783e-08
-1.64283e-10
3.25391e-08
-6.09184e-10
3.25162e-08
2.58849e-10
-2.73044e-10
3.28502e-08
-2.05345e-10
3.29104e-08
-6.69387e-10
3.2885e-08
2.84318e-10
-2.6699e-10
3.31666e-08
-2.49014e-10
3.32256e-08
-7.28383e-10
3.31981e-08
3.1178e-10
-2.59192e-10
3.34356e-08
-2.94866e-10
3.34925e-08
-7.85317e-10
3.3463e-08
3.41347e-10
-2.49983e-10
3.36638e-08
-3.42e-10
3.37183e-08
-8.39763e-10
3.36869e-08
3.72749e-10
-2.39717e-10
3.3858e-08
-3.89672e-10
3.39091e-08
-8.9086e-10
3.38758e-08
4.06031e-10
-2.28675e-10
3.40234e-08
-4.37034e-10
3.40706e-08
-9.38044e-10
3.40357e-08
4.40889e-10
-2.1706e-10
3.41658e-08
-4.83347e-10
3.42081e-08
-9.80384e-10
3.41716e-08
4.77479e-10
-2.05186e-10
3.42893e-08
-5.27652e-10
3.4326e-08
-1.0171e-09
3.42881e-08
5.15383e-10
-1.93401e-10
3.4399e-08
-5.69015e-10
3.4429e-08
-1.04718e-09
3.43893e-08
5.55108e-10
-1.81959e-10
3.44979e-08
-6.065e-10
3.45205e-08
-1.06984e-09
3.44795e-08
5.96161e-10
-1.71407e-10
3.45927e-08
-6.42611e-10
3.46045e-08
-1.08141e-09
3.45613e-08
6.40496e-10
-1.61606e-10
3.46832e-08
-6.69917e-10
3.46836e-08
-1.08115e-09
3.46418e-08
6.83748e-10
-1.49052e-10
3.47765e-08
-6.94178e-10
3.47669e-08
-1.07159e-09
3.47207e-08
7.2995e-10
-1.37817e-10
3.4871e-08
-7.14505e-10
3.48541e-08
-1.05462e-09
3.48052e-08
7.78834e-10
-1.26535e-10
3.49721e-08
-7.30974e-10
3.49489e-08
-1.03139e-09
3.48975e-08
8.30236e-10
-1.15531e-10
3.50829e-08
-7.44286e-10
3.50549e-08
-1.00336e-09
3.50014e-08
8.83634e-10
-1.05311e-10
3.52082e-08
-7.54856e-10
3.51763e-08
-9.71485e-10
3.51212e-08
9.3874e-10
-9.62785e-11
3.53518e-08
-7.63228e-10
3.5317e-08
-9.36766e-10
3.52607e-08
9.95043e-10
-8.90611e-11
3.55188e-08
-7.6942e-10
3.54819e-08
-8.99942e-10
3.5425e-08
1.05202e-09
-8.38717e-11
3.57138e-08
-7.7352e-10
3.56755e-08
-8.61655e-10
3.56185e-08
1.10903e-09
-8.1337e-11
3.5943e-08
-7.75034e-10
3.59035e-08
-8.22183e-10
3.58473e-08
1.16524e-09
-8.1906e-11
3.62121e-08
-7.73666e-10
3.61715e-08
-7.81614e-10
3.61168e-08
1.21997e-09
-8.61432e-11
3.6528e-08
-7.68222e-10
3.64862e-08
-7.39798e-10
3.64343e-08
1.27187e-09
-9.47645e-11
3.68985e-08
-7.58346e-10
3.68549e-08
-6.9623e-10
3.68063e-08
1.32055e-09
-1.09046e-10
3.7331e-08
-7.424e-10
3.72854e-08
-6.50593e-10
3.72419e-08
1.36399e-09
-1.29418e-10
3.78356e-08
-7.18992e-10
3.77861e-08
-6.00396e-10
3.7749e-08
1.39895e-09
-1.57579e-10
3.84244e-08
-6.91977e-10
3.83629e-08
-5.38606e-10
3.83436e-08
1.41656e-09
-1.87893e-10
3.91018e-08
-6.61195e-10
3.90411e-08
-4.77894e-10
3.90253e-08
1.43232e-09
-2.22476e-10
3.9883e-08
-6.25989e-10
3.9822e-08
-4.16864e-10
3.9812e-08
1.44227e-09
-2.61137e-10
4.07806e-08
-5.87679e-10
4.07194e-08
-3.55659e-10
4.07134e-08
1.44821e-09
-3.04143e-10
4.18064e-08
-5.46358e-10
4.17456e-08
-2.94896e-10
4.17439e-08
1.44989e-09
-3.50157e-10
4.29751e-08
-5.02819e-10
4.29147e-08
-2.34523e-10
4.29163e-08
1.44829e-09
-3.99782e-10
4.43007e-08
-4.56794e-10
4.42411e-08
-1.74872e-10
4.42459e-08
1.44343e-09
-4.51677e-10
4.57989e-08
-4.08163e-10
4.57398e-08
-1.15679e-10
4.5748e-08
1.43519e-09
-5.06602e-10
4.74856e-08
-3.56359e-10
4.7427e-08
-5.70958e-11
4.74383e-08
1.42388e-09
-5.63369e-10
4.93776e-08
-3.00619e-10
4.93193e-08
1.22392e-12
4.93336e-08
1.40952e-09
-6.22838e-10
5.14922e-08
-2.39627e-10
5.14339e-08
5.95076e-11
5.14505e-08
1.39293e-09
-6.83608e-10
5.38475e-08
-1.72233e-10
5.37886e-08
1.1838e-10
5.38076e-08
1.37387e-09
-7.46082e-10
5.64625e-08
-9.71323e-11
5.64033e-08
1.77602e-10
5.64225e-08
1.35459e-09
-8.07679e-10
5.93527e-08
-1.29342e-11
5.92927e-08
2.37141e-10
5.93112e-08
1.33483e-09
-8.66646e-10
6.04538e-08
6.923e-11
6.01824e-08
2.68171e-10
6.03601e-08
1.19967e-09
-7.79577e-11
2.20676e-09
-5.8005e-14
2.69958e-09
1.69107e-13
2.8956e-09
-3.65807e-15
-2.86601e-14
2.52968e-09
2.25867e-12
-1.40837e-16
1.74175e-12
6.15139e-18
1.97777e-12
-1.46142e-17
-1.84069e-16
4.80619e-12
9.8234e-15
-4.84669e-19
6.56061e-15
1.53859e-19
5.7123e-15
-1.88344e-19
-1.13395e-18
1.32295e-14
5.96725e-17
-1.85586e-21
5.13713e-17
2.38245e-21
4.63164e-17
-1.67933e-21
-7.06316e-21
5.70506e-17
3.72586e-19
-5.61446e-24
3.42321e-19
2.42295e-23
3.06179e-19
-9.8604e-24
-3.10087e-23
3.11221e-19
2.23938e-21
-2.58166e-26
2.11214e-21
1.39829e-25
1.89136e-21
-7.08641e-26
-1.80273e-25
1.85649e-21
1.28648e-23
-1.30689e-28
1.25673e-23
7.51214e-28
1.13257e-23
-4.71802e-28
-1.01326e-27
1.08293e-23
7.25775e-26
-6.95456e-31
7.22988e-26
3.85771e-30
6.54569e-26
-2.93611e-30
-5.47347e-30
6.16346e-26
4.02151e-28
-3.71611e-33
4.04734e-28
1.90887e-32
3.67418e-28
-1.71959e-32
-2.84738e-32
3.4169e-28
2.17756e-30
-1.98836e-35
2.19919e-30
8.99163e-35
1.99991e-30
-9.46523e-35
-1.41536e-34
1.84154e-30
1.14339e-32
-1.03043e-37
1.14971e-32
3.97784e-37
1.0481e-32
-4.89441e-37
-6.71542e-37
9.56475e-33
5.73935e-35
-5.09745e-40
5.7408e-35
1.64591e-39
5.25888e-35
-2.38533e-39
-3.03721e-39
4.77465e-35
2.72388e-37
-2.31404e-42
2.72189e-37
6.36964e-42
2.52331e-37
-1.0824e-41
-1.30733e-41
2.27113e-37
1.21402e-39
-9.48675e-45
1.21176e-39
2.29641e-44
1.14177e-39
-4.55712e-44
-5.31728e-44
1.02746e-39
5.03838e-42
-3.01154e-48
5.09746e-42
1.99312e-45
4.82854e-42
-2.76274e-47
-3.27199e-47
4.38808e-42
2.40844e-45
-9.09406e-51
3.1371e-45
1.53201e-50
2.98448e-45
-4.98313e-50
-5.04024e-50
2.88002e-45
5.07914e-48
-2.31899e-53
6.83719e-48
1.12043e-51
5.14247e-48
-1.43597e-52
-1.3611e-52
4.62475e-48
1.33842e-50
-5.1936e-56
1.9065e-50
1.54856e-55
1.45128e-50
-3.95376e-55
-3.6201e-55
1.28452e-50
3.54964e-53
-1.08328e-58
5.17467e-53
3.55181e-58
3.93006e-53
-1.10336e-57
-1.02864e-57
3.59134e-53
9.1381e-56
-1.99045e-61
1.34076e-55
8.7084e-61
1.11527e-55
-2.99158e-60
-2.86619e-60
1.08827e-55
2.31747e-58
-2.7856e-64
3.43586e-58
2.30302e-63
3.03693e-58
-8.72869e-63
-7.8233e-63
3.15627e-58
6.15551e-61
-9.03032e-69
9.57008e-61
6.84929e-66
8.59039e-61
-2.52704e-65
-2.16296e-65
8.85748e-61
1.9765e-63
1.18383e-68
2.65209e-63
2.22572e-68
2.36978e-63
-7.64137e-68
-6.28833e-68
2.56379e-63
8.20148e-66
4.56181e-71
8.10653e-66
8.88249e-71
6.80386e-66
-2.98479e-70
-2.29493e-70
7.77688e-66
3.29128e-68
2.93084e-73
2.91629e-68
5.37429e-73
2.53011e-68
-2.42982e-72
-1.66464e-72
3.09324e-68
2.0166e-70
2.56138e-75
1.97151e-70
4.81378e-75
2.00326e-70
-1.59746e-74
-9.50456e-75
2.2683e-70
1.20928e-72
1.73113e-77
1.25646e-72
3.05811e-77
1.24548e-72
-8.08035e-77
-4.43718e-77
1.29453e-72
5.86141e-75
8.4517e-80
6.34036e-75
1.44647e-79
6.04048e-75
-3.73067e-79
-1.92498e-79
6.11498e-75
2.62537e-77
4.12349e-82
2.86342e-77
6.85263e-82
2.71144e-77
-1.6256e-81
-8.11784e-82
2.73261e-77
1.15956e-79
1.62073e-84
1.24202e-79
2.51951e-84
1.15997e-79
-3.64425e-84
-1.86612e-84
1.16984e-79
2.97572e-82
4.96314e-87
2.86004e-82
7.79503e-87
2.616e-82
-2.053e-86
-9.88801e-87
2.79277e-82
1.50183e-84
2.85064e-89
1.60453e-84
5.87754e-89
1.46006e-84
-8.70419e-89
-4.15147e-89
1.4595e-84
6.61922e-87
1.19469e-91
6.8585e-87
2.15548e-91
6.31243e-87
-3.21653e-91
-1.50411e-91
6.31948e-87
2.68737e-89
4.61678e-94
2.69756e-89
8.39906e-94
2.41185e-89
-1.21561e-93
-5.45869e-94
2.4514e-89
1.06931e-91
1.69128e-96
1.06532e-91
3.3575e-96
9.48485e-92
-4.39893e-96
-1.85763e-96
9.57613e-92
4.12215e-94
5.94179e-99
4.07665e-94
1.27184e-98
3.61878e-94
-1.54365e-98
-6.26749e-99
3.63343e-94
1.5341e-96
1.95811e-101
1.51211e-96
4.64267e-101
1.34877e-96
-5.20406e-101
-2.02656e-101
1.35303e-96
5.42266e-99
6.00837e-104
5.3925e-99
1.58452e-103
4.86283e-99
-1.65335e-103
-6.43421e-104
4.91106e-99
1.8117e-101
1.69584e-106
1.81041e-101
4.88819e-106
1.6555e-101
-4.88155e-106
-1.90266e-106
1.69113e-101
5.66129e-104
4.25755e-109
5.65389e-104
1.35288e-108
5.25577e-104
-1.31541e-108
-5.26323e-109
5.44706e-104
1.62171e-106
9.16167e-112
1.61707e-106
3.27989e-111
1.52958e-106
-3.14968e-111
-1.28308e-111
1.61098e-106
4.13705e-109
1.64287e-114
4.27889e-109
6.8651e-114
4.00552e-109
-6.65495e-114
-2.76303e-114
4.29171e-109
9.3535e-112
2.61331e-117
9.90929e-112
1.23425e-116
9.30344e-112
-1.2082e-116
-5.08503e-117
1.00548e-111
1.8288e-114
3.39117e-120
1.99699e-114
1.89142e-119
1.87682e-114
-1.86151e-119
-8.02692e-120
2.03807e-114
3.21324e-117
3.66226e-123
3.44742e-117
8.05736e-121
3.24059e-117
-2.03505e-122
-9.02765e-123
3.54127e-117
3.32531e-120
2.43612e-126
4.34222e-120
3.0363e-124
4.02497e-120
-2.02035e-125
-9.31874e-126
4.45829e-120
4.30163e-123
2.34872e-129
4.9432e-123
1.64711e-128
4.57962e-123
-1.72122e-128
-8.23597e-129
5.14031e-123
4.61721e-126
1.31718e-132
4.96603e-126
1.87453e-131
4.55787e-126
-1.26501e-131
-6.25234e-132
5.09953e-126
4.0723e-129
9.46331e-136
4.18784e-129
9.27222e-135
3.93035e-129
-8.22162e-135
-4.11252e-135
4.27776e-129
3.55587e-132
5.4361e-139
3.39218e-132
5.74977e-138
3.02794e-132
-4.88965e-138
-2.46202e-138
3.12184e-132
2.80473e-135
4.99259e-142
2.57483e-135
3.30615e-141
2.12111e-135
-2.61524e-141
-1.30601e-141
2.03324e-135
2.03704e-138
3.57443e-145
1.79465e-138
1.76791e-144
1.36644e-138
-1.31709e-144
-6.94132e-145
1.18002e-138
1.30532e-141
2.72975e-148
1.1616e-141
8.56046e-148
8.25812e-142
-5.73883e-148
-3.42296e-148
6.52108e-142
7.11081e-145
1.44183e-151
6.32842e-145
3.14057e-151
4.47339e-145
-1.97857e-151
-1.276e-151
3.41177e-145
3.13979e-148
6.36713e-155
2.69107e-148
8.74252e-155
1.84342e-148
-4.73278e-155
-3.4898e-155
1.427e-148
1.06798e-151
3.02765e-158
8.06776e-152
2.84371e-158
4.97591e-152
-3.17807e-158
-3.01706e-158
4.53908e-152
5.93532e-155
1.57323e-158
4.6995e-155
9.46666e-159
4.40349e-155
-1.47121e-161
-1.2397e-161
4.56916e-155
4.56856e-158
9.46843e-162
4.64959e-158
4.23062e-162
4.69023e-158
-4.01143e-165
-2.15208e-165
4.61477e-158
1.03801e-161
1.45083e-165
1.52483e-161
4.9152e-166
1.44677e-161
-1.10298e-169
-3.01286e-170
1.1542e-161
6.52625e-166
9.41046e-166
4.35742e-166
2.70363e-166
2.03802e-09
1.48563e-13
1.82278e-09
2.45829e-13
2.22321e-09
1.41888e-12
-1.12967e-13
5.34872e-12
-1.34568e-16
4.90138e-12
3.19832e-17
5.3383e-12
1.02516e-15
-3.2383e-16
1.54577e-14
-9.0525e-19
1.67179e-14
8.33998e-20
2.02626e-14
1.51278e-17
-1.13798e-18
6.22207e-17
-5.18973e-21
6.74343e-17
3.92303e-22
9.44581e-17
1.43619e-19
-3.85311e-21
3.08532e-19
-2.15408e-23
3.05996e-19
3.80606e-24
4.56101e-19
7.1867e-22
-9.56896e-24
1.7949e-21
-1.17864e-25
1.70937e-21
2.14429e-26
2.33775e-21
3.70738e-24
-3.15567e-26
1.04631e-23
-6.17423e-28
9.82891e-24
1.13496e-28
1.24809e-23
1.99879e-26
-9.32194e-29
5.94413e-26
-3.06767e-30
5.55658e-26
6.02485e-31
6.89041e-26
1.12475e-28
-1.85657e-31
3.28062e-28
-1.44547e-32
3.05639e-28
3.16853e-33
3.98486e-28
6.42327e-31
2.878e-34
1.74919e-30
-6.46025e-35
1.6171e-30
1.61808e-35
2.24181e-30
3.71828e-33
6.88895e-36
8.99256e-33
-2.72807e-37
8.22663e-33
7.91248e-38
1.19893e-32
2.02815e-35
6.00764e-38
4.4528e-35
-1.07801e-39
4.03217e-35
3.67369e-40
6.13987e-35
1.04269e-37
4.07273e-40
2.09604e-37
-3.97854e-42
1.88505e-37
1.57788e-42
2.99888e-37
5.01776e-40
2.42985e-42
9.40189e-40
-1.35393e-44
8.38511e-40
6.38818e-45
1.3855e-39
2.24964e-42
1.29067e-44
4.00766e-42
-6.56602e-48
3.55725e-42
1.42329e-47
5.95507e-42
1.77674e-44
5.88094e-47
2.53595e-45
-7.87926e-51
2.39863e-45
4.18892e-51
1.99448e-44
5.86448e-47
2.06484e-49
4.57461e-48
-1.2638e-53
4.4425e-48
1.56213e-53
6.28349e-47
1.72669e-49
6.12979e-52
1.25727e-50
-9.40968e-57
1.22921e-50
4.35475e-56
1.86399e-49
4.83439e-52
1.72271e-54
3.54225e-53
4.55715e-59
3.44018e-53
1.19101e-58
5.16015e-52
1.24259e-54
4.40174e-57
1.11573e-55
3.86576e-61
1.06132e-55
3.78232e-61
1.3442e-54
2.95461e-57
1.03312e-59
3.37545e-58
1.71984e-63
3.44923e-58
1.1618e-63
3.29152e-57
6.46822e-60
2.26644e-62
9.66187e-61
6.68442e-66
9.93337e-61
3.46618e-66
7.74466e-60
1.28067e-62
4.6038e-65
2.85055e-63
2.46563e-68
2.97976e-63
1.18273e-68
1.7694e-62
2.348e-65
8.82055e-68
8.93166e-66
1.13101e-70
9.42714e-66
5.06429e-71
3.95045e-65
3.49981e-68
1.51868e-70
3.94721e-68
7.86148e-73
4.31648e-68
3.48976e-73
9.15159e-68
1.87101e-72
2.81221e-73
2.56665e-70
6.72869e-75
2.58336e-70
2.50697e-75
2.69702e-70
1.13844e-74
2.65396e-76
1.36342e-72
3.21226e-77
1.34014e-72
1.25568e-77
1.29577e-72
6.73602e-77
-3.43454e-78
6.2836e-75
1.46183e-79
6.02174e-75
5.79756e-80
5.94818e-75
1.89681e-79
-4.0048e-80
2.77472e-77
6.4129e-82
2.63114e-77
2.75298e-82
2.67547e-77
7.73062e-82
-2.72514e-82
1.17985e-79
2.17135e-84
1.12392e-79
1.04265e-84
1.15679e-79
2.41914e-84
-1.11709e-84
2.73583e-82
6.07101e-87
2.79647e-82
3.12242e-87
3.13444e-82
6.28409e-87
-6.15895e-87
1.45044e-84
4.31319e-89
1.38396e-84
2.1601e-89
1.43091e-84
3.16664e-89
-3.29491e-89
6.36006e-87
1.58978e-91
6.11727e-87
8.85262e-92
6.25189e-87
1.10775e-91
-1.5604e-91
2.45134e-89
5.95507e-94
2.38558e-89
3.46617e-94
2.48767e-89
3.48537e-94
-7.14141e-94
9.524e-92
2.30909e-96
9.43547e-92
1.34052e-96
9.8832e-92
1.09632e-96
-3.06688e-96
3.57931e-94
8.38433e-99
3.58241e-94
5.14421e-99
3.76825e-94
3.27305e-99
-1.25199e-98
1.30619e-96
2.95319e-101
1.30086e-96
1.87046e-101
1.37086e-96
9.36172e-102
-4.7976e-101
4.66571e-99
9.87361e-104
4.57841e-99
6.86033e-104
4.80898e-99
2.77529e-104
-1.72254e-103
1.59505e-101
3.06237e-106
1.55268e-101
2.3291e-106
1.63767e-101
8.41593e-107
-5.57883e-106
5.13162e-104
8.56405e-109
4.9551e-104
7.41617e-109
5.18526e-104
2.59873e-109
-1.62245e-108
1.51948e-106
2.13512e-111
1.45603e-106
2.08147e-111
1.5127e-106
7.39744e-112
-4.13037e-111
4.07028e-109
4.64726e-114
3.80671e-109
5.08677e-114
3.96361e-109
1.94067e-114
-9.16093e-114
9.31648e-112
8.73257e-117
8.90111e-112
1.0428e-116
9.12029e-112
4.12053e-117
-1.70587e-116
1.93958e-114
1.32663e-119
1.85816e-114
1.91336e-119
1.79544e-114
7.82189e-120
-2.71775e-119
3.4978e-117
1.46949e-122
3.35607e-117
2.80806e-121
3.0572e-117
1.18666e-122
-3.74583e-122
4.43933e-120
1.03556e-125
4.82457e-120
9.74926e-124
4.38154e-120
1.47187e-125
-4.33507e-125
5.03436e-123
7.88215e-129
6.00624e-123
1.51185e-126
5.50421e-123
1.73687e-128
-4.29895e-128
4.85117e-126
3.86897e-132
6.65414e-126
2.0629e-129
6.08215e-126
1.9064e-131
-3.66397e-131
4.28096e-129
7.47931e-136
6.47785e-129
2.40381e-132
6.07502e-129
1.72537e-134
-2.71932e-134
3.17574e-132
-8.49996e-139
5.49432e-132
2.11438e-135
5.20597e-132
1.29877e-137
-1.9007e-137
2.02526e-135
-1.1024e-141
3.80519e-135
1.35155e-138
3.85584e-135
7.68577e-141
-1.13951e-140
1.16042e-138
-9.00131e-145
2.2148e-138
7.38326e-142
2.38079e-138
3.1048e-143
-5.72483e-144
6.24235e-142
-5.67446e-148
1.28023e-141
3.13814e-145
1.32719e-141
4.75468e-146
-2.52396e-147
3.17937e-145
-2.66008e-151
6.1193e-145
9.35477e-149
6.59777e-145
2.87206e-149
-9.1346e-151
1.38001e-148
-9.19223e-155
2.40608e-148
6.46001e-153
2.70349e-148
3.98069e-153
-2.61818e-154
4.90352e-152
-8.63752e-158
7.71225e-152
7.0127e-157
8.54967e-152
1.1121e-157
-1.61175e-157
4.83936e-155
-3.31979e-161
5.39242e-155
4.17309e-158
6.15517e-155
5.84886e-158
-6.22866e-161
4.04692e-158
-5.25579e-165
6.03593e-158
2.75977e-161
9.15167e-158
4.7952e-161
-1.03151e-164
7.47703e-162
-5.67475e-170
1.57594e-161
3.5674e-165
2.90379e-161
7.15926e-165
-1.77116e-169
8.93945e-167
5.64421e-166
1.32348e-165
)
;

boundaryField
{
    topWall
    {
        type            calculated;
        value           uniform 0;
    }
    botWall
    {
        type            calculated;
        value           uniform 0;
    }
    inlet
    {
        type            cyclic;
        value           nonuniform List<scalar> 
120
(
-3.26159e-12
-2.225e-09
-6.04241e-08
-5.93703e-08
-5.64841e-08
-5.38701e-08
-5.15112e-08
-4.93931e-08
-4.74951e-08
-4.58029e-08
-4.42978e-08
-4.2966e-08
-4.17899e-08
-4.07565e-08
-3.98507e-08
-3.90599e-08
-3.83726e-08
-3.77758e-08
-3.72623e-08
-3.68206e-08
-3.64429e-08
-3.6121e-08
-3.58478e-08
-3.5616e-08
-3.54198e-08
-3.52535e-08
-3.51122e-08
-3.49912e-08
-3.48865e-08
-3.47939e-08
-3.47095e-08
-3.46286e-08
-3.45515e-08
-3.44689e-08
-3.43779e-08
-3.42763e-08
-3.41597e-08
-3.40241e-08
-3.38648e-08
-3.36766e-08
-3.34538e-08
-3.31903e-08
-3.28789e-08
-3.25119e-08
-3.20805e-08
-3.15751e-08
-3.09838e-08
-3.03033e-08
-2.95116e-08
-2.85984e-08
-2.75493e-08
-2.635e-08
-2.49834e-08
-2.34329e-08
-2.16797e-08
-1.97053e-08
-1.74887e-08
-1.50101e-08
-1.2247e-08
-9.18058e-09
-5.78631e-09
-2.05335e-09
-1.40826e-14
-7.35368e-17
-3.8984e-19
-2.15908e-21
-1.20211e-23
-6.65352e-26
-3.6453e-28
-1.96883e-30
-1.05025e-32
-5.37245e-35
-2.6194e-37
-1.20465e-39
-5.03478e-42
-1.55294e-44
-4.75975e-47
-1.37911e-49
-3.75899e-52
-9.64643e-55
-2.3445e-57
-5.47339e-60
-1.24256e-62
-2.91829e-65
-7.43458e-68
-2.78971e-70
-1.2779e-72
-5.77336e-75
-2.58638e-77
-1.11749e-79
-3.25214e-82
-1.42132e-84
-6.22824e-87
-2.53356e-89
-1.0067e-91
-3.8737e-94
-1.4321e-96
-5.08316e-99
-1.72216e-101
-5.42297e-104
-1.56016e-106
-4.00806e-109
-9.07843e-112
-1.76242e-114
-2.95434e-117
-4.25982e-120
-5.28316e-123
-5.6431e-126
-5.17508e-129
-4.27854e-132
-3.36842e-135
-2.33253e-138
-1.35849e-141
-6.81651e-145
-2.86024e-148
-9.42762e-152
-6.65485e-155
-6.06396e-158
-1.19565e-161
-2.15698e-166
)
;
    }
    outlet
    {
        type            cyclic;
        value           nonuniform List<scalar> 
120
(
3.26159e-12
2.225e-09
6.04241e-08
5.93703e-08
5.64841e-08
5.38701e-08
5.15112e-08
4.93931e-08
4.74951e-08
4.58029e-08
4.42978e-08
4.2966e-08
4.17899e-08
4.07565e-08
3.98507e-08
3.90599e-08
3.83726e-08
3.77758e-08
3.72623e-08
3.68206e-08
3.64429e-08
3.6121e-08
3.58478e-08
3.5616e-08
3.54198e-08
3.52535e-08
3.51122e-08
3.49912e-08
3.48865e-08
3.47939e-08
3.47095e-08
3.46286e-08
3.45515e-08
3.44689e-08
3.43779e-08
3.42763e-08
3.41597e-08
3.40241e-08
3.38648e-08
3.36766e-08
3.34538e-08
3.31903e-08
3.28789e-08
3.25119e-08
3.20805e-08
3.15751e-08
3.09838e-08
3.03033e-08
2.95116e-08
2.85984e-08
2.75493e-08
2.635e-08
2.49834e-08
2.34329e-08
2.16797e-08
1.97053e-08
1.74887e-08
1.50101e-08
1.2247e-08
9.18058e-09
5.78631e-09
2.05335e-09
1.40826e-14
7.35368e-17
3.8984e-19
2.15908e-21
1.20211e-23
6.65352e-26
3.6453e-28
1.96883e-30
1.05025e-32
5.37245e-35
2.6194e-37
1.20465e-39
5.03478e-42
1.55294e-44
4.75975e-47
1.37911e-49
3.75899e-52
9.64643e-55
2.3445e-57
5.47339e-60
1.24256e-62
2.91829e-65
7.43458e-68
2.78971e-70
1.2779e-72
5.77336e-75
2.58638e-77
1.11749e-79
3.25214e-82
1.42132e-84
6.22824e-87
2.53356e-89
1.0067e-91
3.8737e-94
1.4321e-96
5.08316e-99
1.72216e-101
5.42297e-104
1.56016e-106
4.00806e-109
9.07843e-112
1.76242e-114
2.95434e-117
4.25982e-120
5.28316e-123
5.6431e-126
5.17508e-129
4.27854e-132
3.36842e-135
2.33253e-138
1.35849e-141
6.81651e-145
2.86024e-148
9.42762e-152
6.65485e-155
6.06396e-158
1.19565e-161
2.15698e-166
)
;
    }
    fixWall
    {
        type            empty;
        value           nonuniform List<scalar> 0();
    }
}


// ************************************************************************* //
