/*--------------------------------*- C++ -*----------------------------------*\
  =========                 |
  \\      /  F ield         | OpenFOAM: The Open Source CFD Toolbox
   \\    /   O peration     | Website:  https://openfoam.org
    \\  /    A nd           | Version:  dev
     \\/     M anipulation  |

   OpenFOAM for Windows 20.09 (v1)
   Built by CFD Support, www.cfdsupport.com (based on Symscape).
\*---------------------------------------------------------------------------*/
FoamFile
{
    version     2.0;
    format      ascii;
    class       volScalarField;
    location    "8";
    object      alpha.water;
}
// * * * * * * * * * * * * * * * * * * * * * * * * * * * * * * * * * * * * * //

dimensions      [0 0 0 0 0 0 0];

internalField   nonuniform List<scalar> 
960
(
1.00049
1.00006
1.00001
1
1
1
1
1
1
1
1
1
1
0.999999
0.999999
1
1
1
0.999999
1
1
0.999999
0.999999
1
1
1
1
1
0.999999
0.999999
1
1
0.999999
0.999999
1
1
0.999999
1
1
1
0.999999
1
1
1
0.999999
1
1
1
0.999999
1
1
1
0.999999
0.999999
1
0.999999
1
1
1.00001
1.00001
0.999997
1.00001
1.00002
1.00001
1
1
1
1
1
1
1
1
1
1
1
1
1
0.999999
1
0.999999
0.999999
0.999999
0.999999
0.999999
0.999999
0.999999
0.999999
0.999999
0.999999
0.999999
0.999999
0.999999
0.999999
0.999999
0.999999
0.999999
0.999999
0.999999
0.999999
0.999999
1
0.999999
0.999999
0.999999
1
1
1
1
1
1
1
1
1
1
1
1
1.00002
1.00002
1.00002
1.00002
1.00001
1.00001
1.00001
1.00001
1
1
1
1
1
1
1
1
1
1
1
1
1
1
1
1
1
1
1
1
1
1
1
1
1
1
1
1
1
1
1
1
1
1
1
1
1
1
1
1
1
1
1
1
1
1
1
1
1
1
0.999999
1
0.999992
0.999985
0.999993
1.00001
1
1.00001
1.00001
1.00001
1
0.999999
1
1
0.999999
0.999999
0.999999
1
0.999999
0.999999
0.999999
1
0.999999
0.999999
0.999999
0.999999
0.999999
0.999999
0.999999
0.999999
0.999999
0.999999
0.999999
0.999999
0.999999
0.999999
0.999999
0.999999
0.999999
0.999999
0.999999
0.999999
0.999999
0.999999
0.999999
0.999999
0.999999
0.999999
0.999999
0.999999
0.999999
0.999999
1
1
0.999999
0.999999
1
1
0.999978
0.999962
0.999969
0.999984
0.960215
0.964422
0.970898
0.970111
1
1
1
1
1
1
1
1
1
1
1
1
1
1
1
1
1
1
1
1
1
1
1
1
1
1
1
1
1
1
0.999999
0.999999
1
0.999999
0.999999
0.999999
1
0.999999
0.999999
0.999999
1
0.999999
0.999999
0.999999
0.999999
0.999999
0.999999
0.999999
0.999999
0.999999
1
1
0.999999
1
1
1
0.999999
1.00001
1
0.999991
0.999996
1.00001
0.999995
0.999989
1
1
1
1
1
1
1
1
1
1
1
1
0.999999
0.999999
0.999999
0.999999
0.999999
0.999999
0.999999
0.999999
0.999999
0.999999
0.999999
0.999999
0.999999
0.999999
0.999999
0.999999
0.999999
0.999999
0.999999
0.999999
0.999999
1
1
0.999999
1
1
1
1
1
1
1
1
1
1
1
1
1
1
1
1
1.00001
1
0.999996
1
1.00001
1.00001
1
0.999998
1
1
1
1
1
1
1
1
1
1
1
1
1
1
1
1
1
1
1
1
1
1
1
1
1
1
1
1
1
1
1
1
1
1
1
1
1
1
1
1
1
1
1
1
1
1
1
1
1
1
1
1
1
1.00001
1
0.999993
1.00001
1.00002
1.00001
1.00001
1
1
1
1
1
1
0.999999
0.999999
0.999999
0.999999
0.999999
0.999999
0.999999
0.999999
0.999999
0.999999
0.999999
0.999999
0.999998
0.999999
0.999999
0.999998
0.999998
0.999999
0.999999
0.999999
0.999998
0.999999
0.999999
0.999999
0.999999
0.999999
0.999999
0.999999
0.999999
0.999999
1
1
0.999999
0.999999
1
1
1
0.999999
1
1
0.999999
0.999999
0.99999
0.999983
0.999967
0.99997
0.967644
0.962391
0.964603
0.965235
0.0320767
0.0366341
0.0422281
0.0390417
2.85906e-05
1.51729e-05
1.78457e-05
4.19656e-05
9.74203e-08
4.74906e-08
4.24151e-08
8.65298e-08
4.45269e-10
2.96673e-10
2.82942e-10
3.4905e-10
2.19122e-12
1.65869e-12
1.57272e-12
1.77418e-12
1.12865e-14
9.04148e-15
8.60839e-15
9.54198e-15
5.8855e-17
4.85647e-17
4.64219e-17
5.15123e-17
3.0737e-19
2.58791e-19
2.46054e-19
2.73964e-19
1.59876e-21
1.36937e-21
1.28941e-21
1.43716e-21
8.21821e-24
7.13601e-24
6.64369e-24
7.40904e-24
4.13485e-26
3.62456e-26
3.33027e-26
3.70927e-26
2.0028e-28
1.77358e-28
1.61362e-28
1.7928e-28
9.23309e-31
8.31524e-31
7.54304e-31
8.32328e-31
4.01666e-33
3.68304e-33
3.33173e-33
3.67371e-33
1.60958e-35
1.516e-35
1.38788e-35
1.52681e-35
6.32932e-39
2.18111e-41
4.84828e-39
9.47937e-39
1.96577e-41
6.1707e-42
1.24504e-41
1.4833e-41
4.52024e-44
3.07649e-44
3.97671e-44
4.0755e-44
9.46683e-47
7.91402e-47
1.10043e-46
1.10453e-46
2.06652e-49
2.02479e-49
2.99159e-49
3.23262e-49
5.05301e-52
5.13197e-52
7.88153e-52
9.14158e-52
1.47817e-54
1.4643e-54
2.23484e-54
2.58315e-54
5.9747e-57
4.58522e-57
6.1339e-57
7.33099e-57
2.63745e-59
1.76975e-59
1.74564e-59
2.17014e-59
1.14594e-61
7.27537e-62
6.41993e-62
8.12494e-62
6.27046e-64
5.16159e-64
5.29929e-64
6.36045e-64
3.45697e-66
3.36943e-66
3.32055e-66
3.78476e-66
1.63818e-68
1.54047e-68
1.60042e-68
1.78947e-68
7.22399e-71
6.58201e-71
6.95521e-71
7.99426e-71
3.15281e-73
2.74747e-73
2.85663e-73
3.42104e-73
8.82944e-76
4.31705e-76
4.43873e-76
8.12323e-76
4.01003e-78
3.31388e-78
3.42024e-78
4.27719e-78
1.8011e-80
1.40349e-80
1.39449e-80
1.8543e-80
7.66481e-83
5.04335e-83
4.87327e-83
7.19236e-83
3.07602e-85
1.91565e-85
1.85109e-85
2.81966e-85
1.19768e-87
7.09248e-88
6.80881e-88
1.07429e-87
4.47125e-90
2.56544e-90
2.45741e-90
4.01818e-90
1.59531e-92
8.91376e-93
8.54337e-93
1.46456e-92
5.41086e-95
2.90697e-95
2.76748e-95
5.06798e-95
1.71205e-97
8.88983e-98
8.35629e-98
1.64244e-97
4.94572e-100
2.52152e-100
2.31535e-100
4.89646e-100
1.27088e-102
6.23716e-103
6.09401e-103
1.31696e-102
2.88463e-105
1.41612e-105
1.4314e-105
3.12218e-105
5.6271e-108
2.87131e-108
2.93081e-108
6.41954e-108
9.66149e-111
5.11516e-111
5.14632e-111
1.13484e-110
1.23949e-113
2.95527e-114
6.52149e-114
1.45719e-113
1.62793e-116
5.01498e-117
7.57194e-117
1.72525e-116
1.79524e-119
6.6342e-120
7.75329e-120
1.76915e-119
1.69726e-122
7.5009e-123
6.95872e-123
1.54721e-122
1.49589e-125
7.50718e-126
6.5287e-126
1.18672e-125
1.25936e-128
6.69462e-129
5.76055e-129
8.30047e-129
9.42711e-132
5.49196e-132
4.55042e-132
5.33329e-132
6.09319e-135
4.1753e-135
3.30837e-135
3.31386e-135
3.49836e-138
2.56272e-138
2.09769e-138
1.94526e-138
1.71328e-141
1.26973e-141
1.01618e-141
8.83757e-142
6.61379e-145
4.97227e-145
3.50809e-145
2.98629e-145
4.93705e-148
3.88905e-148
3.52225e-148
3.66552e-148
4.98349e-151
5.0719e-151
5.11753e-151
5.03611e-151
1.7951e-154
2.63671e-154
2.50219e-154
1.99648e-154
3.1837e-158
4.59029e-158
2.12603e-158
1.31928e-158
0.0328389
0.0263619
0.0321676
0.032354
5.06933e-05
4.45999e-05
1.93774e-05
2.92743e-05
1.1748e-07
1.12781e-07
3.00847e-08
8.20037e-08
3.98139e-10
3.97051e-10
1.36758e-10
3.23253e-10
1.75786e-12
1.69974e-12
5.51462e-13
1.33578e-12
9.23202e-15
8.75542e-15
2.97921e-15
6.09675e-15
4.91124e-17
4.63764e-17
1.63469e-17
2.88179e-17
2.59109e-19
2.44555e-19
8.68444e-20
1.3933e-19
1.34583e-21
1.26805e-21
4.18883e-22
7.16516e-22
6.84224e-24
6.40699e-24
1.95752e-24
3.65365e-24
3.38284e-26
3.14399e-26
8.68829e-27
1.82771e-26
1.62091e-28
1.49654e-28
3.68321e-29
8.80997e-29
7.42905e-31
6.81518e-31
1.47709e-31
4.05655e-31
3.25935e-33
2.97335e-33
5.62473e-34
1.77532e-33
1.36045e-35
1.23944e-35
2.2026e-36
7.53666e-36
8.68819e-39
5.0953e-39
1.59388e-40
2.93494e-38
1.42428e-41
1.28319e-41
4.58524e-43
8.70252e-41
3.88687e-44
3.65114e-44
1.23693e-45
2.37674e-43
1.07796e-46
1.01991e-46
3.15441e-48
6.07224e-46
3.29799e-49
3.14612e-49
7.61747e-51
1.49517e-48
9.87499e-52
9.43285e-52
1.77624e-53
3.58362e-51
2.78109e-54
2.61688e-54
4.04421e-56
8.51949e-54
7.98415e-57
7.67135e-57
9.14486e-59
2.05871e-56
2.44125e-59
2.4245e-59
2.17921e-61
4.92884e-59
1.02291e-61
1.13961e-61
3.64699e-62
1.27498e-61
6.94178e-64
7.13133e-64
4.56314e-64
4.53143e-64
3.75478e-66
3.48236e-66
3.04374e-66
2.42964e-66
1.7178e-68
1.47907e-68
1.41845e-68
1.17958e-68
7.49199e-71
6.18149e-71
6.41836e-71
5.533e-71
3.15474e-73
2.5651e-73
2.76979e-73
2.44202e-73
6.4714e-76
4.90595e-76
6.53737e-76
6.3123e-76
3.8801e-78
3.09679e-78
3.44219e-78
3.27889e-78
1.69355e-80
1.34114e-80
1.51724e-80
1.51845e-80
6.36393e-83
4.95917e-83
5.96656e-83
6.32079e-83
2.46681e-85
1.85022e-85
2.33984e-85
2.62991e-85
9.24499e-88
6.65365e-88
8.84923e-88
1.05253e-87
3.36582e-90
2.33499e-90
3.24999e-90
4.01749e-90
1.19898e-92
8.18737e-93
1.15876e-92
1.44857e-92
4.08817e-95
2.76552e-95
3.92918e-95
4.96751e-95
1.31168e-97
8.84009e-98
1.22745e-97
1.57817e-97
3.87966e-100
2.60895e-100
3.43103e-100
4.58428e-100
1.04288e-102
7.00971e-103
8.2836e-103
1.19119e-102
2.62917e-105
1.43481e-105
1.72426e-105
2.71906e-105
5.63642e-108
2.65126e-108
3.1243e-108
5.29917e-108
1.02272e-110
4.10576e-111
4.80942e-111
8.84092e-111
1.1286e-113
1.67495e-116
5.40691e-114
1.33471e-113
1.40023e-116
1.93669e-119
6.47171e-117
1.67213e-116
1.5952e-119
2.04703e-121
6.97359e-120
1.79849e-119
1.48458e-122
1.93431e-123
6.33545e-123
1.62478e-122
1.18062e-125
2.57699e-126
4.43035e-126
1.28216e-125
8.13608e-129
2.09425e-129
1.91659e-129
9.33617e-129
4.99121e-132
1.70471e-132
3.95334e-133
5.9795e-132
2.95538e-135
1.04277e-135
3.80893e-137
3.61073e-135
1.68856e-138
5.62745e-139
3.14894e-141
2.13968e-138
8.04649e-142
2.8772e-142
3.00307e-144
1.07232e-141
3.1976e-145
1.40937e-145
9.72958e-147
4.49243e-145
3.88658e-148
3.29444e-148
3.31407e-148
5.13873e-148
4.41788e-151
6.57881e-151
9.97705e-151
6.62039e-151
1.29396e-154
2.72593e-154
5.0198e-154
2.06811e-154
4.3649e-159
2.75416e-158
6.4536e-158
1.05266e-158
)
;

boundaryField
{
    topWall
    {
        type            zeroGradient;
    }
    botWall
    {
        type            zeroGradient;
    }
    inlet
    {
        type            cyclic;
    }
    outlet
    {
        type            cyclic;
    }
    fixWall
    {
        type            empty;
    }
}


// ************************************************************************* //
