/*--------------------------------*- C++ -*----------------------------------*\
  =========                 |
  \\      /  F ield         | OpenFOAM: The Open Source CFD Toolbox
   \\    /   O peration     | Website:  https://openfoam.org
    \\  /    A nd           | Version:  dev
     \\/     M anipulation  |

   OpenFOAM for Windows 20.09 (v1)
   Built by CFD Support, www.cfdsupport.com (based on Symscape).
\*---------------------------------------------------------------------------*/
FoamFile
{
    version     2.0;
    format      ascii;
    class       volScalarField;
    location    "8";
    object      epsilon;
}
// * * * * * * * * * * * * * * * * * * * * * * * * * * * * * * * * * * * * * //

dimensions      [0 2 -3 0 0 0 0];

internalField   nonuniform List<scalar> 
960
(
1.73748e-12
1.73748e-12
1.73748e-12
1.73748e-12
2.99636e-13
2.99637e-13
2.99637e-13
2.99637e-13
1.01968e-13
1.01968e-13
1.01968e-13
1.01968e-13
4.79191e-14
4.79191e-14
4.79193e-14
4.79193e-14
2.70283e-14
2.70282e-14
2.70284e-14
2.70284e-14
1.71879e-14
1.71878e-14
1.71879e-14
1.71879e-14
1.18449e-14
1.18448e-14
1.18449e-14
1.1845e-14
8.6403e-15
8.64022e-15
8.64031e-15
8.64035e-15
6.57373e-15
6.57368e-15
6.57376e-15
6.57381e-15
5.16595e-15
5.16592e-15
5.16599e-15
5.16604e-15
4.16499e-15
4.16498e-15
4.16503e-15
4.16509e-15
3.42845e-15
3.42847e-15
3.42851e-15
3.42857e-15
2.87109e-15
2.87112e-15
2.87115e-15
2.87121e-15
2.43937e-15
2.43941e-15
2.43942e-15
2.43949e-15
2.09833e-15
2.09838e-15
2.09839e-15
2.09846e-15
1.82437e-15
1.82443e-15
1.82443e-15
1.8245e-15
1.60112e-15
1.60117e-15
1.60118e-15
1.60124e-15
1.41692e-15
1.41697e-15
1.41698e-15
1.41703e-15
1.26329e-15
1.26334e-15
1.26335e-15
1.2634e-15
1.13395e-15
1.134e-15
1.134e-15
1.13405e-15
1.02415e-15
1.0242e-15
1.02421e-15
1.02425e-15
9.30291e-16
9.30335e-16
9.30339e-16
9.30375e-16
8.49547e-16
8.49585e-16
8.49589e-16
8.49621e-16
7.99042e-16
7.98483e-16
7.98064e-16
7.98995e-16
8.02919e-16
8.02255e-16
8.01777e-16
8.02866e-16
8.15936e-16
8.15169e-16
8.14635e-16
8.15879e-16
8.37076e-16
8.36204e-16
8.35618e-16
8.37018e-16
8.65721e-16
8.64742e-16
8.64104e-16
8.65666e-16
9.01567e-16
9.00476e-16
8.99787e-16
9.01516e-16
9.4457e-16
9.43358e-16
9.42618e-16
9.44525e-16
9.9403e-16
9.92699e-16
9.91909e-16
9.93996e-16
1.05055e-15
1.0491e-15
1.04826e-15
1.05054e-15
1.11504e-15
1.11346e-15
1.11257e-15
1.11505e-15
1.18824e-15
1.1865e-15
1.18556e-15
1.18826e-15
1.27108e-15
1.2692e-15
1.26819e-15
1.27114e-15
1.36478e-15
1.36272e-15
1.36166e-15
1.36487e-15
1.47079e-15
1.46855e-15
1.46741e-15
1.47093e-15
1.59091e-15
1.58845e-15
1.58725e-15
1.5911e-15
1.72728e-15
1.72459e-15
1.72331e-15
1.72756e-15
1.88252e-15
1.87959e-15
1.87822e-15
1.88291e-15
2.0598e-15
2.0566e-15
2.05514e-15
2.06034e-15
2.26295e-15
2.25945e-15
2.2579e-15
2.26369e-15
2.49666e-15
2.49283e-15
2.49117e-15
2.49766e-15
2.76661e-15
2.76244e-15
2.76066e-15
2.76798e-15
3.07983e-15
3.07528e-15
3.07337e-15
3.08168e-15
3.44543e-15
3.44049e-15
3.43846e-15
3.44804e-15
3.87235e-15
3.867e-15
3.86486e-15
3.87599e-15
4.37575e-15
4.36995e-15
4.3677e-15
4.38075e-15
4.97299e-15
4.96671e-15
4.96434e-15
4.97979e-15
5.68599e-15
5.67915e-15
5.67668e-15
5.69518e-15
6.54255e-15
6.53505e-15
6.53251e-15
6.55489e-15
7.57808e-15
7.56984e-15
7.56721e-15
7.59457e-15
8.83795e-15
8.8288e-15
8.82608e-15
8.8599e-15
1.03806e-14
1.03703e-14
1.03675e-14
1.04097e-14
1.22818e-14
1.22701e-14
1.22671e-14
1.23201e-14
1.46405e-14
1.46269e-14
1.46235e-14
1.46908e-14
1.75869e-14
1.75709e-14
1.75668e-14
1.76526e-14
2.12942e-14
2.12745e-14
2.12693e-14
2.13795e-14
2.59947e-14
2.59697e-14
2.59625e-14
2.61045e-14
3.20022e-14
3.19701e-14
3.19593e-14
3.21433e-14
1.73748e-12
1.73748e-12
1.73748e-12
1.73748e-12
2.99637e-13
2.99637e-13
2.99637e-13
2.99637e-13
1.01968e-13
1.01968e-13
1.01968e-13
1.01968e-13
4.79193e-14
4.79193e-14
4.79193e-14
4.79193e-14
2.70284e-14
2.70283e-14
2.70284e-14
2.70283e-14
1.71879e-14
1.71879e-14
1.71879e-14
1.71878e-14
1.18449e-14
1.18449e-14
1.1845e-14
1.18448e-14
8.6403e-15
8.64022e-15
8.64032e-15
8.64021e-15
6.57374e-15
6.57364e-15
6.57375e-15
6.57365e-15
5.16596e-15
5.16585e-15
5.16597e-15
5.16588e-15
4.16501e-15
4.16489e-15
4.165e-15
4.16493e-15
3.42849e-15
3.42835e-15
3.42847e-15
3.42841e-15
2.87113e-15
2.87099e-15
2.8711e-15
2.87105e-15
2.43942e-15
2.43926e-15
2.43937e-15
2.43934e-15
2.09839e-15
2.09823e-15
2.09833e-15
2.09832e-15
1.82443e-15
1.82427e-15
1.82436e-15
1.82436e-15
1.60118e-15
1.60102e-15
1.60111e-15
1.60111e-15
1.41698e-15
1.41682e-15
1.41691e-15
1.41691e-15
1.26334e-15
1.26319e-15
1.26328e-15
1.26328e-15
1.134e-15
1.13385e-15
1.13393e-15
1.13394e-15
1.0242e-15
1.02406e-15
1.02414e-15
1.02415e-15
9.30336e-16
9.30195e-16
9.30271e-16
9.30284e-16
8.49587e-16
8.49451e-16
8.49523e-16
8.49539e-16
8.00087e-16
8.00084e-16
7.99347e-16
7.99108e-16
8.04141e-16
8.04138e-16
8.03276e-16
8.02994e-16
8.1733e-16
8.17322e-16
8.16341e-16
8.1602e-16
8.38641e-16
8.38624e-16
8.37527e-16
8.37171e-16
8.67458e-16
8.67428e-16
8.66216e-16
8.65829e-16
9.0348e-16
9.03434e-16
9.02105e-16
9.01691e-16
9.46664e-16
9.46598e-16
9.45148e-16
9.44711e-16
9.9631e-16
9.96223e-16
9.94656e-16
9.94192e-16
1.05303e-15
1.05292e-15
1.05124e-15
1.05074e-15
1.11772e-15
1.11759e-15
1.11578e-15
1.11526e-15
1.19113e-15
1.19097e-15
1.18904e-15
1.18848e-15
1.27422e-15
1.27402e-15
1.27196e-15
1.27137e-15
1.36818e-15
1.36794e-15
1.36574e-15
1.36512e-15
1.47448e-15
1.47421e-15
1.47184e-15
1.47119e-15
1.59493e-15
1.5946e-15
1.59207e-15
1.59138e-15
1.73167e-15
1.73129e-15
1.72858e-15
1.72784e-15
1.88735e-15
1.88691e-15
1.884e-15
1.8832e-15
2.06514e-15
2.06462e-15
2.06151e-15
2.06064e-15
2.2689e-15
2.2683e-15
2.26495e-15
2.26399e-15
2.50333e-15
2.50263e-15
2.49903e-15
2.49795e-15
2.77417e-15
2.77337e-15
2.76948e-15
2.76824e-15
3.08847e-15
3.08755e-15
3.08334e-15
3.08187e-15
3.45552e-15
3.45447e-15
3.44987e-15
3.44808e-15
3.88429e-15
3.88307e-15
3.87801e-15
3.87579e-15
4.39001e-15
4.38861e-15
4.383e-15
4.38019e-15
4.99021e-15
4.9886e-15
4.98231e-15
4.97872e-15
5.707e-15
5.70513e-15
5.69803e-15
5.69335e-15
6.56844e-15
6.56626e-15
6.55817e-15
6.552e-15
7.61029e-15
7.60773e-15
7.59842e-15
7.5902e-15
8.87835e-15
8.87544e-15
8.86454e-15
8.85349e-15
1.04317e-14
1.04285e-14
1.04155e-14
1.04005e-14
1.23469e-14
1.23435e-14
1.23278e-14
1.23074e-14
1.47241e-14
1.47208e-14
1.47014e-14
1.46734e-14
1.76946e-14
1.76923e-14
1.76679e-14
1.76295e-14
2.14334e-14
2.14334e-14
2.14023e-14
2.13495e-14
2.61751e-14
2.61799e-14
2.61394e-14
2.60669e-14
3.22371e-14
3.22503e-14
3.21967e-14
3.20976e-14
4.01712e-14
4.01311e-14
4.01089e-14
4.03452e-14
4.86675e-14
4.8662e-14
4.86754e-14
4.89373e-14
5.3852e-14
5.39406e-14
5.40464e-14
5.42648e-14
5.53911e-14
5.55446e-14
5.56995e-14
5.58586e-14
5.40702e-14
5.42555e-14
5.44232e-14
5.45233e-14
5.08146e-14
5.10067e-14
5.11631e-14
5.12183e-14
4.64517e-14
4.66345e-14
4.67689e-14
4.67922e-14
4.16131e-14
4.17779e-14
4.18873e-14
4.18907e-14
3.67291e-14
3.68726e-14
3.69579e-14
3.69509e-14
3.20662e-14
3.21876e-14
3.22515e-14
3.22411e-14
2.77728e-14
2.78721e-14
2.79184e-14
2.79092e-14
2.39175e-14
2.39954e-14
2.40279e-14
2.40222e-14
2.05172e-14
2.05751e-14
2.05979e-14
2.05961e-14
1.75571e-14
1.75971e-14
1.76137e-14
1.76151e-14
1.50042e-14
1.50284e-14
1.50412e-14
1.50449e-14
1.2948e-14
1.29588e-14
1.29715e-14
1.29752e-14
1.12732e-14
1.12745e-14
1.12871e-14
1.12915e-14
9.84394e-15
9.84158e-15
9.85016e-15
9.85497e-15
8.63102e-15
8.62715e-15
8.63214e-15
8.63673e-15
7.60528e-15
7.60081e-15
7.60319e-15
7.60717e-15
6.73881e-15
6.73428e-15
6.73458e-15
6.73786e-15
6.00603e-15
6.0018e-15
6.00037e-15
6.00296e-15
5.38441e-15
5.38073e-15
5.37794e-15
5.37989e-15
4.85482e-15
4.85181e-15
4.84803e-15
4.8494e-15
4.40134e-15
4.39895e-15
4.39452e-15
4.39538e-15
4.01079e-15
4.00891e-15
4.0041e-15
4.00451e-15
3.67222e-15
3.67084e-15
3.66588e-15
3.6658e-15
3.37692e-15
3.37591e-15
3.37097e-15
3.37031e-15
3.11771e-15
3.11699e-15
3.11218e-15
3.1108e-15
2.88878e-15
2.88831e-15
2.88368e-15
2.88138e-15
2.68556e-15
2.68532e-15
2.68093e-15
2.67894e-15
2.50436e-15
2.50437e-15
2.50021e-15
2.49851e-15
2.34209e-15
2.34238e-15
2.33846e-15
2.33698e-15
2.19638e-15
2.19704e-15
2.19333e-15
2.19203e-15
2.06537e-15
2.06654e-15
2.06301e-15
2.06183e-15
1.94762e-15
1.94949e-15
1.94611e-15
1.94501e-15
1.84315e-15
1.84492e-15
1.84166e-15
1.84063e-15
1.7507e-15
1.75228e-15
1.74915e-15
1.74817e-15
1.67006e-15
1.67151e-15
1.66853e-15
1.6676e-15
1.60172e-15
1.6031e-15
1.6003e-15
1.59941e-15
1.5469e-15
1.54826e-15
1.54567e-15
1.5448e-15
1.50776e-15
1.50914e-15
1.50683e-15
1.50592e-15
1.48781e-15
1.48926e-15
1.48728e-15
1.48629e-15
1.63152e-15
1.6315e-15
1.63183e-15
1.63173e-15
1.85922e-15
1.85924e-15
1.8596e-15
1.85946e-15
2.13964e-15
2.13969e-15
2.14006e-15
2.1399e-15
2.48789e-15
2.48799e-15
2.48835e-15
2.48817e-15
2.92661e-15
2.92673e-15
2.92709e-15
2.92688e-15
3.49047e-15
3.49061e-15
3.49095e-15
3.49072e-15
4.23263e-15
4.23277e-15
4.23308e-15
4.23285e-15
5.23788e-15
5.23801e-15
5.23828e-15
5.23806e-15
6.64805e-15
6.64816e-15
6.6484e-15
6.64821e-15
8.71454e-15
8.71463e-15
8.71483e-15
8.71468e-15
1.19161e-14
1.19162e-14
1.19163e-14
1.19162e-14
1.72528e-14
1.72529e-14
1.7253e-14
1.72529e-14
2.70841e-14
2.70841e-14
2.70842e-14
2.70842e-14
4.79642e-14
4.79643e-14
4.79644e-14
4.79644e-14
1.01999e-13
1.01999e-13
1.01999e-13
1.01999e-13
2.9965e-13
2.99651e-13
2.9965e-13
2.99651e-13
1.73748e-12
1.73748e-12
1.73748e-12
1.73748e-12
4.0476e-14
4.05072e-14
4.04308e-14
4.03039e-14
4.90527e-14
4.90412e-14
4.89938e-14
4.88485e-14
5.42802e-14
5.41467e-14
5.41928e-14
5.40754e-14
5.58097e-14
5.56008e-14
5.56973e-14
5.56394e-14
5.44473e-14
5.42068e-14
5.43219e-14
5.43222e-14
5.11376e-14
5.08982e-14
5.10094e-14
5.10567e-14
4.67219e-14
4.65022e-14
4.65996e-14
4.66749e-14
4.18367e-14
4.16448e-14
4.17258e-14
4.18125e-14
3.69132e-14
3.67515e-14
3.68174e-14
3.69029e-14
3.22176e-14
3.20852e-14
3.2138e-14
3.22143e-14
2.78964e-14
2.77905e-14
2.78322e-14
2.7896e-14
2.40169e-14
2.39338e-14
2.3966e-14
2.4017e-14
2.05952e-14
2.05316e-14
2.0555e-14
2.05945e-14
1.76163e-14
1.7569e-14
1.75847e-14
1.76142e-14
1.50472e-14
1.50134e-14
1.50224e-14
1.50434e-14
1.29787e-14
1.29545e-14
1.29577e-14
1.29736e-14
1.1295e-14
1.12778e-14
1.1277e-14
1.12887e-14
9.85861e-15
9.84682e-15
9.84291e-15
9.85154e-15
8.64079e-15
8.63312e-15
8.62683e-15
8.63335e-15
7.61156e-15
7.60689e-15
7.59872e-15
7.60435e-15
6.7424e-15
6.73964e-15
6.73087e-15
6.73582e-15
6.0074e-15
6.00592e-15
5.99716e-15
6.0018e-15
5.38411e-15
5.38351e-15
5.3749e-15
5.37954e-15
4.85327e-15
4.85328e-15
4.84466e-15
4.84973e-15
4.39887e-15
4.39948e-15
4.39025e-15
4.39634e-15
4.00757e-15
4.00874e-15
4.0016e-15
4.00595e-15
3.66859e-15
3.67022e-15
3.66476e-15
3.66766e-15
3.37311e-15
3.37506e-15
3.3709e-15
3.37267e-15
3.11392e-15
3.11604e-15
3.1129e-15
3.11382e-15
2.88518e-15
2.88734e-15
2.88499e-15
2.8853e-15
2.68223e-15
2.68442e-15
2.68266e-15
2.68256e-15
2.50135e-15
2.50355e-15
2.50225e-15
2.50187e-15
2.33945e-15
2.34163e-15
2.34069e-15
2.34013e-15
2.19416e-15
2.19633e-15
2.19566e-15
2.195e-15
2.06367e-15
2.06581e-15
2.06535e-15
2.06463e-15
1.94659e-15
1.94869e-15
1.94839e-15
1.94767e-15
1.842e-15
1.84405e-15
1.84386e-15
1.84315e-15
1.74937e-15
1.75137e-15
1.75123e-15
1.75054e-15
1.66867e-15
1.67058e-15
1.67046e-15
1.66979e-15
1.60038e-15
1.60219e-15
1.60206e-15
1.60138e-15
1.5457e-15
1.54739e-15
1.54722e-15
1.54654e-15
1.50677e-15
1.50831e-15
1.5081e-15
1.50743e-15
1.48708e-15
1.48846e-15
1.48818e-15
1.48758e-15
1.63159e-15
1.63151e-15
1.63147e-15
1.63181e-15
1.85935e-15
1.85927e-15
1.85923e-15
1.85957e-15
2.13983e-15
2.13972e-15
2.13968e-15
2.14004e-15
2.48813e-15
2.48801e-15
2.48797e-15
2.48834e-15
2.92688e-15
2.92676e-15
2.9267e-15
2.92709e-15
3.49075e-15
3.49064e-15
3.49057e-15
3.49097e-15
4.23292e-15
4.23281e-15
4.23273e-15
4.23314e-15
5.23817e-15
5.23805e-15
5.23797e-15
5.23838e-15
6.64834e-15
6.6482e-15
6.64812e-15
6.64855e-15
8.71482e-15
8.71465e-15
8.71458e-15
8.71501e-15
1.19164e-14
1.19162e-14
1.19161e-14
1.19166e-14
1.72531e-14
1.72528e-14
1.72528e-14
1.72532e-14
2.70843e-14
2.7084e-14
2.7084e-14
2.70844e-14
4.79645e-14
4.79641e-14
4.79642e-14
4.79645e-14
1.01999e-13
1.01998e-13
1.01998e-13
1.01999e-13
2.99651e-13
2.9965e-13
2.9965e-13
2.99651e-13
1.73748e-12
1.73748e-12
1.73748e-12
1.73748e-12
)
;

boundaryField
{
    topWall
    {
        type            epsilonWallFunction;
        value           uniform 1.73748e-12;
    }
    botWall
    {
        type            epsilonWallFunction;
        value           uniform 1.73748e-12;
    }
    inlet
    {
        type            cyclic;
    }
    outlet
    {
        type            cyclic;
    }
    fixWall
    {
        type            empty;
    }
}


// ************************************************************************* //
