/*--------------------------------*- C++ -*----------------------------------*\
  =========                 |
  \\      /  F ield         | OpenFOAM: The Open Source CFD Toolbox
   \\    /   O peration     | Website:  https://openfoam.org
    \\  /    A nd           | Version:  dev
     \\/     M anipulation  |

   OpenFOAM for Windows 20.09 (v1)
   Built by CFD Support, www.cfdsupport.com (based on Symscape).
\*---------------------------------------------------------------------------*/
FoamFile
{
    version     2.0;
    format      ascii;
    class       volVectorField;
    location    "8";
    object      gradp_rgh;
}
// * * * * * * * * * * * * * * * * * * * * * * * * * * * * * * * * * * * * * //

dimensions      [1 -2 -2 0 0 0 0];

internalField   nonuniform List<vector> 
960
(
(-1.23184 -12.3741 0)
(-1.4519 -1.41893 0)
(-1.27467 -0.127823 0)
(-1.25052 0.00184558 0)
(-1.25549 -12.3757 0)
(-1.24779 -1.41891 0)
(-1.25099 -0.127662 0)
(-1.2487 0.000292356 0)
(-1.25553 -0.00317606 0)
(-1.24776 0.024218 0)
(-1.25101 0.000670492 0)
(-1.24865 -0.00169201 0)
(-1.25513 -0.00471668 0)
(-1.24773 -0.00139694 0)
(-1.25142 -0.00187615 0)
(-1.24885 -0.000307073 0)
(-1.25551 -0.00966574 0)
(-1.24772 -0.0353458 0)
(-1.25099 -0.00389178 0)
(-1.24881 -0.000437521 0)
(-1.25566 -0.00987957 0)
(-1.24763 -0.00465601 0)
(-1.25084 -0.00112698 0)
(-1.24879 0.00478843 0)
(-1.25557 -0.00617645 0)
(-1.24757 0.0107132 0)
(-1.25084 0.000960611 0)
(-1.2488 0.00151572 0)
(-1.25547 -0.00585528 0)
(-1.24751 0.000812849 0)
(-1.25099 0.00124658 0)
(-1.24881 -0.00441232 0)
(-1.25554 0.00151833 0)
(-1.24745 -0.00655078 0)
(-1.25092 0.00141102 0)
(-1.24883 -0.00131341 0)
(-1.25576 -0.00371131 0)
(-1.24752 -0.00333214 0)
(-1.2509 0.00157857 0)
(-1.24884 -0.000364774 0)
(-1.25574 -0.0109926 0)
(-1.24736 0.0113565 0)
(-1.25088 0.0160507 0)
(-1.24886 0.00203451 0)
(-1.25551 -0.00534832 0)
(-1.24707 0.0111673 0)
(-1.25106 0.0159558 0)
(-1.24913 0.0172116 0)
(-1.25591 -0.00538026 0)
(-1.24701 0.0174061 0)
(-1.25077 0.0140448 0)
(-1.24915 0.0207119 0)
(-1.25576 0.075551 0)
(-1.24674 0.0206927 0)
(-1.251 0.0191842 0)
(-1.24938 0.0261117 0)
(-1.25566 0.240885 0)
(-1.24795 0.377807 0)
(-1.25068 0.529898 0)
(-1.24949 0.0809415 0)
(-1.2508 0.0369646 0)
(-1.24193 -0.181572 0)
(-1.25595 -0.470997 0)
(-1.25617 -0.462552 0)
(-1.25118 -0.118769 0)
(-1.25641 -0.556026 0)
(-1.25537 -0.995681 0)
(-1.24279 -0.521977 0)
(-1.25112 0.00290253 0)
(-1.25654 0.00388383 0)
(-1.25538 -0.00134407 0)
(-1.24292 0.00169631 0)
(-1.25091 -0.00588478 0)
(-1.25649 0.00384771 0)
(-1.2554 -0.00174644 0)
(-1.24301 0.00141296 0)
(-1.25087 -0.0033768 0)
(-1.25647 0.00363795 0)
(-1.25542 -0.0020701 0)
(-1.24302 0.00106044 0)
(-1.25083 -0.00280766 0)
(-1.25646 0.00367892 0)
(-1.25545 -0.00195048 0)
(-1.24303 0.000963071 0)
(-1.25082 0.000777733 0)
(-1.25646 0.00384883 0)
(-1.25547 -0.0017699 0)
(-1.24302 0.00644604 0)
(-1.25073 0.00131282 0)
(-1.25651 0.00528716 0)
(-1.2554 0.00145143 0)
(-1.24304 0.0043574 0)
(-1.25067 -0.00494851 0)
(-1.25645 5.85607e-05 0)
(-1.25548 -0.00256497 0)
(-1.24318 -0.00142796 0)
(-1.25072 -0.00514872 0)
(-1.25647 -0.00122373 0)
(-1.25543 -0.00543008 0)
(-1.24312 0.000611911 0)
(-1.25069 -0.00185364 0)
(-1.25646 0.00430386 0)
(-1.25545 -0.000871137 0)
(-1.24312 0.000720372 0)
(-1.25065 -0.00169379 0)
(-1.25645 0.00458679 0)
(-1.25549 -0.000973736 0)
(-1.24313 0.000165039 0)
(-1.25061 -0.00122667 0)
(-1.25645 0.00476258 0)
(-1.25553 -0.00105262 0)
(-1.24314 0.000589327 0)
(-1.25057 0.980698 0)
(-1.25645 1.23541 0)
(-1.25556 0.946902 0)
(-1.24315 1.13028 0)
(-1.23231 0.357202 0)
(-1.25701 0.337852 0)
(-1.25728 0.651152 0)
(-1.24893 0.681437 0)
(-1.24744 -0.634006 0)
(-1.25155 -0.90202 0)
(-1.24983 -0.313595 0)
(-1.24573 -0.463424 0)
(-1.24538 -0.00348115 0)
(-1.25167 -0.00604167 0)
(-1.24997 -0.0182877 0)
(-1.24575 -0.0121794 0)
(-1.2453 0.00473579 0)
(-1.25179 0.00486237 0)
(-1.24993 -0.00162803 0)
(-1.24566 0.0100162 0)
(-1.24517 -0.00279665 0)
(-1.25178 0.00260492 0)
(-1.24988 -0.00680779 0)
(-1.24567 0.00325606 0)
(-1.24513 -0.000974825 0)
(-1.25186 0.000345176 0)
(-1.24992 -0.00584149 0)
(-1.24559 0.000270467 0)
(-1.24504 -0.000106593 0)
(-1.25186 0.00349895 0)
(-1.24989 0.000395994 0)
(-1.24561 0.00782716 0)
(-1.24494 -4.54451e-05 0)
(-1.25185 0.003603 0)
(-1.24985 0.000553187 0)
(-1.24563 0.00840364 0)
(-1.24485 -1.11426e-05 0)
(-1.25185 0.00378594 0)
(-1.24981 0.00335849 0)
(-1.24562 0.00830089 0)
(-1.24475 0.00153205 0)
(-1.2518 0.00402393 0)
(-1.24977 0.000843858 0)
(-1.24575 0.00420563 0)
(-1.24466 -0.00123562 0)
(-1.25186 0.00181902 0)
(-1.2498 -0.00245658 0)
(-1.24573 0.00370529 0)
(-1.24467 -0.00335645 0)
(-1.25182 0.000861419 0)
(-1.24974 -0.000572934 0)
(-1.24575 0.00677876 0)
(-1.24459 -0.00121285 0)
(-1.25181 0.00194897 0)
(-1.2497 -0.000878649 0)
(-1.24559 0.013463 0)
(-1.24475 -0.00227702 0)
(-1.25181 0.000834265 0)
(-1.24955 0.0238806 0)
(-1.24565 0.010715 0)
(-1.24483 0.369678 0)
(-1.25138 0.7233 0)
(-1.24954 0.32922 0)
(-1.24605 0.0211706 0)
(-1.23902 -0.146299 0)
(-1.25249 -0.463348 0)
(-1.26125 1.06271 0)
(-1.2511 0.331707 0)
(-1.24818 -0.689447 0)
(-1.23123 -1.70717 0)
(-1.23629 0.326588 0)
(-1.25547 -0.446524 0)
(-1.25163 -0.204298 0)
(-1.23555 -0.532378 0)
(-1.24024 -0.433192 0)
(-1.25802 -0.754547 0)
(-1.2508 -0.0454358 0)
(-1.23504 -0.0108557 0)
(-1.23999 -0.00567579 0)
(-1.25803 0.00640423 0)
(-1.25076 -0.0193182 0)
(-1.23489 -0.000365264 0)
(-1.23996 -0.00535971 0)
(-1.258 0.00634515 0)
(-1.25076 -0.0101097 0)
(-1.23481 0.00239844 0)
(-1.23988 -0.00360131 0)
(-1.25801 0.00663283 0)
(-1.25067 -0.00753724 0)
(-1.23478 0.00745999 0)
(-1.23988 -0.00426502 0)
(-1.258 0.00718552 0)
(-1.25069 -0.00797253 0)
(-1.23475 0.011919 0)
(-1.23988 -0.00354219 0)
(-1.25799 0.00750956 0)
(-1.25049 -0.00881054 0)
(-1.23471 0.00401326 0)
(-1.23996 -0.00314669 0)
(-1.25787 0.00993817 0)
(-1.25055 -0.00911227 0)
(-1.23466 -0.00118318 0)
(-1.23979 0.00528249 0)
(-1.25792 0.00557998 0)
(-1.25053 -0.00928991 0)
(-1.23447 0.0137608 0)
(-1.23985 0.00570387 0)
(-1.25805 0.00358485 0)
(-1.25029 -0.00960115 0)
(-1.23441 0.0138687 0)
(-1.23995 0.0120982 0)
(-1.25804 0.0371072 0)
(-1.25017 -0.00933424 0)
(-1.23411 0.021498 0)
(-1.23946 0.0361237 0)
(-1.25783 0.0433463 0)
(-1.24982 -0.0617878 0)
(-1.23365 -0.0723323 0)
(-1.23959 -0.0573183 0)
(-1.25827 -0.026005 0)
(-1.25011 -103.624 0)
(-1.23403 -92.6531 0)
(-1.23869 -75.7951 0)
(-1.25742 -77.8401 0)
(-1.28499 -2561.84 0)
(-0.769836 -2549.97 0)
(-0.992707 -2535.59 0)
(-1.39965 -2544.02 0)
(-1.25625 -0.0188807 0)
(-1.24503 -0.0104506 0)
(-1.23724 -0.00348019 0)
(-1.05256 0.000342553 0)
(-1.25646 -0.0156464 0)
(-1.24477 -0.00564699 0)
(-1.23706 -0.00338913 0)
(-1.25873 0.00275725 0)
(-1.25635 -0.00830263 0)
(-1.24482 -0.000571263 0)
(-1.2371 -4.9805e-05 0)
(-1.25876 0.00259459 0)
(-1.25644 -0.0116678 0)
(-1.24463 -0.0169881 0)
(-1.23701 -0.000238825 0)
(-1.25879 -0.00268008 0)
(-1.25663 -0.000263345 0)
(-1.24463 -0.011956 0)
(-1.23686 -0.000167851 0)
(-1.25884 -0.00353354 0)
(-1.25663 -0.000304415 0)
(-1.24463 -0.000746637 0)
(-1.23687 -0.000139699 0)
(-1.25894 -0.00120335 0)
(-1.25672 -0.000359391 0)
(-1.24463 -0.000858066 0)
(-1.23687 -0.000114335 0)
(-1.259 -0.001032 0)
(-1.25667 -0.000378489 0)
(-1.24463 -0.000933499 0)
(-1.23687 -2.83706e-05 0)
(-1.25904 -0.000949004 0)
(-1.25666 -0.000442437 0)
(-1.24462 -0.000902179 0)
(-1.23687 0.00728203 0)
(-1.2591 0.0108564 0)
(-1.25666 -0.000628019 0)
(-1.2445 0.0015173 0)
(-1.23668 0.00434877 0)
(-1.25914 0.00859589 0)
(-1.25663 -0.000874726 0)
(-1.24454 0.00204035 0)
(-1.23675 -0.00297822 0)
(-1.25923 -0.00333229 0)
(-1.25666 -0.0011608 0)
(-1.24453 -0.000771412 0)
(-1.23677 0.000458774 0)
(-1.25927 0.0212139 0)
(-1.25693 -0.00116187 0)
(-1.24451 -0.00145954 0)
(-1.23639 0.0314287 0)
(-1.25933 0.0322368 0)
(-1.25703 -0.00129129 0)
(-1.24399 0.721356 0)
(-1.2362 0.09111 0)
(-1.25989 0.00602693 0)
(-1.24534 0.122243 0)
(-1.24297 0.468595 0)
(-1.24831 0.379766 0)
(-1.25959 0.0799587 0)
(-1.25057 -0.0691635 0)
(-1.2397 -0.261853 0)
(-1.24268 0.0877336 0)
(-1.2622 -0.450381 0)
(-1.242 -0.200414 0)
(-1.24036 -0.0107545 0)
(-1.25145 -0.239593 0)
(-1.26043 -0.536554 0)
(-1.24205 -0.014644 0)
(-1.24035 -0.00467142 0)
(-1.25144 -0.0155232 0)
(-1.26019 -0.0127756 0)
(-1.2421 -0.00780331 0)
(-1.24037 -0.00493059 0)
(-1.25159 -0.00734057 0)
(-1.26013 -0.0114137 0)
(-1.24216 -0.00275684 0)
(-1.24034 -0.00478159 0)
(-1.25155 0.00128635 0)
(-1.26016 -0.000633988 0)
(-1.2422 -0.00215292 0)
(-1.24031 -0.00151667 0)
(-1.25152 0.00417981 0)
(-1.2602 0.00108192 0)
(-1.2422 -0.00241047 0)
(-1.24024 -0.0047213 0)
(-1.25151 -0.000454509 0)
(-1.26028 -0.00238619 0)
(-1.24239 -0.00794904 0)
(-1.24027 -0.00735554 0)
(-1.25148 -0.00263265 0)
(-1.26018 -0.0037896 0)
(-1.24239 -0.00730414 0)
(-1.24015 -0.00350858 0)
(-1.25145 0.00243303 0)
(-1.26022 -0.000455589 0)
(-1.24242 -0.00181701 0)
(-1.24011 -0.00311101 0)
(-1.25143 0.00270919 0)
(-1.26031 -0.00047257 0)
(-1.24245 -0.00183977 0)
(-1.24007 -0.00308476 0)
(-1.25141 0.00349547 0)
(-1.26035 -0.000246689 0)
(-1.24249 -0.00248479 0)
(-1.24002 -0.003672 0)
(-1.25138 -0.00360544 0)
(-1.2604 -0.000209731 0)
(-1.24252 -0.00239466 0)
(-1.24009 -0.00390239 0)
(-1.25135 0.00153328 0)
(-1.26031 0.000308697 0)
(-1.24256 0.599564 0)
(-1.23996 0.000764545 0)
(-1.25131 0.224252 0)
(-1.26044 0.137727 0)
(-1.26134 0.496882 0)
(-1.24635 0.319073 0)
(-1.24907 -0.130627 0)
(-1.24771 0.149682 0)
(-1.2486 -0.122674 0)
(-1.25042 -0.189201 0)
(-1.25413 -0.479166 0)
(-1.25231 -0.117908 0)
(-1.25677 -0.0142297 0)
(-1.25229 -0.511903 0)
(-1.24788 -0.127959 0)
(-1.25029 -0.134065 0)
(-1.25693 0.0030186 0)
(-1.25231 -0.0161471 0)
(-1.24784 0.00198987 0)
(-1.25024 -0.00772422 0)
(-1.25721 -0.00299926 0)
(-1.25231 -0.0118014 0)
(-1.24774 0.00188629 0)
(-1.25024 -0.00785412 0)
(-1.25718 -0.00202161 0)
(-1.25223 -0.00387555 0)
(-1.24777 0.00696691 0)
(-1.25031 -0.0073047 0)
(-1.25728 -0.00149805 0)
(-1.25216 -0.00307206 0)
(-1.24779 0.00700144 0)
(-1.25037 -0.00758915 0)
(-1.25736 -0.000178278 0)
(-1.25209 -0.00497573 0)
(-1.24785 0.00941502 0)
(-1.25043 -0.00768371 0)
(-1.2575 -0.00398277 0)
(-1.252 -0.00653096 0)
(-1.24784 0.00447788 0)
(-1.25053 -0.00751581 0)
(-1.25761 -0.00568942 0)
(-1.25195 -0.00519797 0)
(-1.24786 0.00148358 0)
(-1.25051 -0.00773797 0)
(-1.25766 -0.00247618 0)
(-1.25188 -0.00504247 0)
(-1.24788 0.00575541 0)
(-1.25053 -0.00315759 0)
(-1.25775 0.00779011 0)
(-1.25181 0.0016749 0)
(-1.24783 0.0108966 0)
(-1.25062 -0.00310063 0)
(-1.25774 0.00484968 0)
(-1.25183 -0.00940906 0)
(-1.24796 0.00277927 0)
(-1.25077 0.00640707 0)
(-1.25814 -0.00360892 0)
(-1.25184 -0.014358 0)
(-1.24757 -0.00160227 0)
(-1.25069 0.0151759 0)
(-1.25816 0.00241612 0)
(-1.25179 0.018554 0)
(-1.24747 0.00676117 0)
(-1.25078 0.37981 0)
(-1.25818 0.497429 0)
(-1.25177 0.21939 0)
(-1.24155 0.516367 0)
(-1.24464 -0.262498 0)
(-1.26003 -0.0889252 0)
(-1.25148 -0.590938 0)
(-1.2555 0.0311185 0)
(-1.26182 -0.950873 0)
(-1.26059 -0.586951 0)
(-1.24977 -0.796129 0)
(-1.24754 -0.483717 0)
(-1.25665 -0.374857 0)
(-1.26073 -0.00440121 0)
(-1.24976 -0.00947221 0)
(-1.24848 -0.00192796 0)
(-1.25717 -0.0631043 0)
(-1.26085 -0.00380913 0)
(-1.24973 -0.0081408 0)
(-1.24844 -0.00037815 0)
(-1.25738 -0.00314485 0)
(-1.26097 -0.00358213 0)
(-1.2497 -0.00732075 0)
(-1.2484 0.00050651 0)
(-1.25748 -0.00268099 0)
(-1.26108 -0.0030086 0)
(-1.24966 0.00496854 0)
(-1.24836 0.00128795 0)
(-1.25755 0.0034688 0)
(-1.261 0.00437733 0)
(-1.24963 -0.0154879 0)
(-1.24842 -0.00323634 0)
(-1.25763 0.00100887 0)
(-1.26147 0.000801185 0)
(-1.24979 -0.0264541 0)
(-1.24809 -0.0027411 0)
(-1.25763 -0.00442944 0)
(-1.26161 -0.00550542 0)
(-1.24969 -0.00480691 0)
(-1.24805 0.00265304 0)
(-1.25773 0.001125 0)
(-1.26164 -0.001226 0)
(-1.24965 -0.00452616 0)
(-1.24799 0.00305567 0)
(-1.25783 -0.00199797 0)
(-1.26175 0.025328 0)
(-1.24962 0.00627816 0)
(-1.24801 0.0157571 0)
(-1.25794 -0.00766699 0)
(-1.26215 0.0220284 0)
(-1.24981 -0.00898298 0)
(-1.24822 -0.0054092 0)
(-1.25825 -0.00627472 0)
(-1.26262 -0.032563 0)
(-1.25007 -0.0639082 0)
(-1.24797 -0.101341 0)
(-1.258 -0.0760239 0)
(-1.26279 -84.2777 0)
(-1.25096 -97.9633 0)
(-1.24842 -92.1893 0)
(-1.25759 -90.5434 0)
(-1.598 -2560.24 0)
(-1.38193 -2577.08 0)
(-1.1243 -2561.85 0)
(-1.44858 -2561.41 0)
(-1.05948 -2544.57 0)
(-0.796557 -2556.02 0)
(-1.13955 -2573.55 0)
(-1.66824 -2571.24 0)
(-1.25218 -86.3769 0)
(-1.2527 -98.6467 0)
(-1.24651 -113.716 0)
(-1.24539 -105.138 0)
(-1.25154 -0.0785756 0)
(-1.25221 -0.0408879 0)
(-1.24773 -0.0489465 0)
(-1.24689 -0.113246 0)
(-1.25154 -0.000986322 0)
(-1.2522 0.0001163 0)
(-1.24771 -0.000427849 0)
(-1.24688 0.00132936 0)
(-1.25155 -0.000894233 0)
(-1.2522 0.000307922 0)
(-1.24771 -0.00038547 0)
(-1.24688 0.00121671 0)
(-1.25155 -0.000892773 0)
(-1.25219 0.000353238 0)
(-1.2477 -0.000326548 0)
(-1.24687 0.00114098 0)
(-1.25156 -0.000927202 0)
(-1.25219 0.000409043 0)
(-1.24769 -0.000196295 0)
(-1.24687 0.00106369 0)
(-1.25157 -0.000988795 0)
(-1.25218 0.000428457 0)
(-1.24769 -0.000133642 0)
(-1.24687 0.00104479 0)
(-1.25157 -0.00104022 0)
(-1.25217 0.000459949 0)
(-1.24768 -9.34636e-05 0)
(-1.24688 0.00103231 0)
(-1.25158 -0.00111541 0)
(-1.25217 0.000527004 0)
(-1.24768 -0.000102717 0)
(-1.24688 0.00100848 0)
(-1.25159 -0.00115739 0)
(-1.25216 0.000496491 0)
(-1.24767 -0.000206025 0)
(-1.24688 0.000997299 0)
(-1.2516 -0.00122431 0)
(-1.25215 0.000354558 0)
(-1.24767 -0.000362789 0)
(-1.24688 0.00100935 0)
(-1.25161 -0.00128648 0)
(-1.25214 0.000294024 0)
(-1.24766 -0.000426846 0)
(-1.24688 0.00104559 0)
(-1.25162 -0.00145095 0)
(-1.25214 0.000338926 0)
(-1.24766 -0.000408218 0)
(-1.24687 0.00115525 0)
(-1.25163 -0.00183384 0)
(-1.25213 0.000600533 0)
(-1.24765 -0.000162367 0)
(-1.24686 0.00127109 0)
(-1.25164 -0.00232079 0)
(-1.25211 0.00108287 0)
(-1.24765 0.000116707 0)
(-1.24686 0.00134391 0)
(-1.25166 -0.00280912 0)
(-1.25208 0.00138086 0)
(-1.24765 0.000224082 0)
(-1.24687 0.00146397 0)
(-1.25169 -0.00325792 0)
(-1.25206 0.00143874 0)
(-1.24764 0.000298013 0)
(-1.24687 0.00152695 0)
(-1.25171 -0.00351035 0)
(-1.25203 0.00134855 0)
(-1.24764 0.000229146 0)
(-1.24688 0.00153183 0)
(-1.25174 -0.00359347 0)
(-1.252 0.00109223 0)
(-1.24764 7.70903e-05 0)
(-1.24688 0.00157491 0)
(-1.25176 -0.0036725 0)
(-1.25196 0.000926485 0)
(-1.24764 -1.0952e-05 0)
(-1.24688 0.0015972 0)
(-1.25179 -0.0037313 0)
(-1.25193 0.000925394 0)
(-1.24763 -4.23674e-05 0)
(-1.24688 0.00161158 0)
(-1.25182 -0.00383645 0)
(-1.2519 0.000914182 0)
(-1.24762 -5.716e-05 0)
(-1.24687 0.00160282 0)
(-1.25184 -0.00394336 0)
(-1.25187 0.000875311 0)
(-1.24762 -6.05003e-05 0)
(-1.24687 0.00161766 0)
(-1.25187 -0.00403553 0)
(-1.25184 0.000829544 0)
(-1.24761 -8.17269e-05 0)
(-1.24687 0.00157654 0)
(-1.2519 -0.00406442 0)
(-1.25181 0.000907457 0)
(-1.24761 -1.56345e-05 0)
(-1.24687 0.00142919 0)
(-1.25192 -0.00401381 0)
(-1.25177 0.00109954 0)
(-1.2476 0.000139695 0)
(-1.24687 0.00133688 0)
(-1.25195 -0.00384619 0)
(-1.25174 0.00123371 0)
(-1.2476 0.000245647 0)
(-1.24687 0.00129858 0)
(-1.25197 -0.00336311 0)
(-1.2517 0.00134462 0)
(-1.2476 0.000447865 0)
(-1.24688 0.00111307 0)
(-1.252 -0.00260302 0)
(-1.25167 0.0012557 0)
(-1.24761 0.000542231 0)
(-1.24689 0.00094427 0)
(-1.25201 -0.00184166 0)
(-1.25165 0.000983915 0)
(-1.24761 0.000453009 0)
(-1.2469 0.000764343 0)
(-1.25202 -0.00114193 0)
(-1.25163 0.00098025 0)
(-1.24761 0.000399122 0)
(-1.2469 0.000395754 0)
(-1.25203 -0.000648313 0)
(-1.25162 0.00110515 0)
(-1.24762 0.000372787 0)
(-1.24691 0.000213284 0)
(-1.25203 -0.000453668 0)
(-1.25162 0.00121098 0)
(-1.24762 0.000437945 0)
(-1.24692 7.798e-05 0)
(-1.25203 -0.000321354 0)
(-1.25161 0.00137283 0)
(-1.24764 0.000588673 0)
(-1.24693 2.84647e-05 0)
(-1.25203 -0.000237888 0)
(-1.2516 0.00135131 0)
(-1.24765 0.00070299 0)
(-1.24695 0.000116376 0)
(-1.25204 -0.000256836 0)
(-1.25159 0.00116165 0)
(-1.24766 0.000704049 0)
(-1.24697 0.000154856 0)
(-1.25204 -0.000287645 0)
(-1.25159 0.000970454 0)
(-1.24766 0.000622294 0)
(-1.24698 0.000145344 0)
(-1.25205 -0.000314005 0)
(-1.25158 0.000836861 0)
(-1.24767 0.000547838 0)
(-1.247 0.00014084 0)
(-1.25206 -0.000329426 0)
(-1.25157 0.000779927 0)
(-1.24768 0.000489986 0)
(-1.24702 0.000179809 0)
(-1.25207 -0.00029492 0)
(-1.25157 0.000783344 0)
(-1.24768 0.000388425 0)
(-1.24703 0.000225432 0)
(-1.25208 -0.000240187 0)
(-1.25156 0.000850197 0)
(-1.24768 0.00020828 0)
(-1.24704 0.00024098 0)
(-1.25208 -0.000154006 0)
(-1.25156 0.00087509 0)
(-1.24769 9.2122e-05 0)
(-1.24705 0.000212823 0)
(-1.25209 -9.06501e-05 0)
(-1.25156 0.000821548 0)
(-1.2477 0.00017006 0)
(-1.24706 0.000171524 0)
(-1.25209 6.92151e-06 0)
(-1.25155 0.000742018 0)
(-1.2477 0.000391844 0)
(-1.24707 9.57243e-05 0)
(-1.25209 0.000126945 0)
(-1.25155 0.000649642 0)
(-1.24771 0.000619676 0)
(-1.24708 2.79702e-05 0)
(-1.2521 0.00025837 0)
(-1.25155 0.000598321 0)
(-1.24771 0.00080483 0)
(-1.24709 -3.23546e-05 0)
(-1.2521 0.000371211 0)
(-1.25154 0.000553486 0)
(-1.24772 0.000897107 0)
(-1.2471 -8.26689e-05 0)
(-1.2521 0.000394512 0)
(-1.25154 0.000477489 0)
(-1.24772 0.000876934 0)
(-1.24711 -8.63402e-05 0)
(-1.2521 0.000376122 0)
(-1.25153 0.000401942 0)
(-1.24773 0.000819517 0)
(-1.24712 -7.10106e-05 0)
(-1.2521 0.000339921 0)
(-1.25153 0.000345558 0)
(-1.24773 0.000746144 0)
(-1.24712 -6.15769e-05 0)
(-1.2521 0.000308385 0)
(-1.25153 0.000300394 0)
(-1.24773 0.000665307 0)
(-1.24713 -4.7295e-05 0)
(-1.25211 0.000272476 0)
(-1.25152 0.0002589 0)
(-1.24774 0.00058292 0)
(-1.24714 -4.26576e-05 0)
(-1.25211 0.000241748 0)
(-1.25152 0.000224033 0)
(-1.24774 0.000502978 0)
(-1.24714 -4.34053e-05 0)
(-1.25211 0.000208296 0)
(-1.25152 0.000195783 0)
(-1.24774 0.000427942 0)
(-1.24714 -4.47354e-05 0)
(-1.25211 0.000178031 0)
(-1.25152 0.000172209 0)
(-1.24774 0.000356512 0)
(-1.24715 -4.02354e-05 0)
(-1.25211 0.000144199 0)
(-1.25152 0.000147975 0)
(-1.24774 0.00027571 0)
(-1.24715 -4.03081e-05 0)
(-1.25211 0.000115703 0)
(-1.25151 0.000123027 0)
(-1.24775 0.000189619 0)
(-1.24715 -4.49001e-05 0)
(-1.25211 9.42815e-05 0)
(-1.25151 8.91137e-05 0)
(-1.24775 0.000113698 0)
(-1.24716 -4.67883e-05 0)
(-1.2521 4.5374e-05 0)
(-1.25151 3.49546e-05 0)
(-1.24775 4.32439e-05 0)
(-1.24716 -2.27266e-05 0)
(-1.81375 -2564.29 0)
(-1.27776 -2550.03 0)
(-0.987216 -2556.31 0)
(-1.25743 -2557.98 0)
(-1.2445 -88.4343 0)
(-1.24898 -70.9906 0)
(-1.25682 -86.6215 0)
(-1.25293 -87.1236 0)
(-1.24464 -0.138241 0)
(-1.24755 -0.123284 0)
(-1.2561 -0.0527131 0)
(-1.25336 -0.0788619 0)
(-1.24466 0.000182815 0)
(-1.24755 -0.00160045 0)
(-1.25608 -0.000258812 0)
(-1.25337 0.000891881 0)
(-1.24469 1.93188e-05 0)
(-1.24756 -0.00153633 0)
(-1.25606 -0.000282543 0)
(-1.25337 0.000944805 0)
(-1.24471 -0.000160937 0)
(-1.24756 -0.00164683 0)
(-1.25604 -0.00028636 0)
(-1.25338 0.000953693 0)
(-1.24473 -0.000271857 0)
(-1.24756 -0.00166622 0)
(-1.25601 -0.000438001 0)
(-1.25338 0.00116255 0)
(-1.24476 -0.000322847 0)
(-1.24756 -0.00158807 0)
(-1.25599 -0.000507471 0)
(-1.25338 0.00132018 0)
(-1.24478 -0.000331863 0)
(-1.24756 -0.00143989 0)
(-1.25597 -0.000604452 0)
(-1.25339 0.00145672 0)
(-1.2448 -0.000358471 0)
(-1.24757 -0.00135737 0)
(-1.25594 -0.00067658 0)
(-1.25339 0.00161552 0)
(-1.24482 -0.00026966 0)
(-1.24757 -0.00126133 0)
(-1.25592 -0.000556417 0)
(-1.25339 0.00157346 0)
(-1.24483 -6.5332e-05 0)
(-1.24757 -0.00106935 0)
(-1.25589 -0.000275603 0)
(-1.2534 0.00129556 0)
(-1.24485 0.000126316 0)
(-1.24757 -0.000857707 0)
(-1.25588 -0.000115907 0)
(-1.25341 0.00116113 0)
(-1.24487 0.000279633 0)
(-1.24757 -0.000637436 0)
(-1.25586 -0.000242243 0)
(-1.25342 0.00138002 0)
(-1.24488 0.000251506 0)
(-1.24758 -0.00031116 0)
(-1.25584 -0.000910073 0)
(-1.25343 0.00218357 0)
(-1.24489 -7.27117e-05 0)
(-1.24759 -9.87522e-05 0)
(-1.25582 -0.00191898 0)
(-1.25344 0.00337982 0)
(-1.24491 -0.000287473 0)
(-1.24761 0.00015345 0)
(-1.25579 -0.00259298 0)
(-1.25344 0.00417784 0)
(-1.24491 -0.000279056 0)
(-1.24763 0.000535442 0)
(-1.25575 -0.00285935 0)
(-1.25344 0.00447258 0)
(-1.24492 -0.000228653 0)
(-1.24765 0.000752179 0)
(-1.25572 -0.00276652 0)
(-1.25344 0.00441367 0)
(-1.24493 -7.96607e-06 0)
(-1.24767 0.00099066 0)
(-1.25569 -0.00249912 0)
(-1.25345 0.00411122 0)
(-1.24493 9.74967e-05 0)
(-1.2477 0.00115752 0)
(-1.25567 -0.00236814 0)
(-1.25346 0.00396437 0)
(-1.24494 0.000137006 0)
(-1.24772 0.00124691 0)
(-1.25564 -0.00235663 0)
(-1.25347 0.00398723 0)
(-1.24494 0.0001384 0)
(-1.24774 0.0012488 0)
(-1.25562 -0.00235248 0)
(-1.25349 0.00402966 0)
(-1.24494 0.000215158 0)
(-1.24776 0.00133767 0)
(-1.2556 -0.00236731 0)
(-1.2535 0.004027 0)
(-1.24494 0.000226029 0)
(-1.24778 0.00146949 0)
(-1.25558 -0.00233557 0)
(-1.25351 0.00402276 0)
(-1.24494 2.79573e-05 0)
(-1.2478 0.00135415 0)
(-1.25556 -0.0025729 0)
(-1.25353 0.00403368 0)
(-1.24494 -0.000187038 0)
(-1.24782 0.00126081 0)
(-1.25553 -0.00273343 0)
(-1.25354 0.00427224 0)
(-1.24494 -0.000344107 0)
(-1.24784 0.0010891 0)
(-1.25551 -0.00266213 0)
(-1.25355 0.00442894 0)
(-1.24495 -0.000512577 0)
(-1.24786 0.000699557 0)
(-1.25548 -0.0025188 0)
(-1.25356 0.00420553 0)
(-1.24495 -0.00044812 0)
(-1.24788 0.000236629 0)
(-1.25545 -0.00181451 0)
(-1.25356 0.00374136 0)
(-1.24496 -0.000249755 0)
(-1.24788 -0.000246361 0)
(-1.25542 -0.00117776 0)
(-1.25357 0.00273571 0)
(-1.24497 -0.000446372 0)
(-1.24789 -0.000814541 0)
(-1.2554 -0.000993576 0)
(-1.25357 0.00180138 0)
(-1.24498 -0.000672032 0)
(-1.24789 -0.00126417 0)
(-1.25538 -0.000896334 0)
(-1.25357 0.00145484 0)
(-1.24499 -0.000907079 0)
(-1.24789 -0.00146745 0)
(-1.25535 -0.00104374 0)
(-1.25357 0.00131719 0)
(-1.245 -0.00123524 0)
(-1.2479 -0.00168091 0)
(-1.25533 -0.00118188 0)
(-1.25356 0.00150645 0)
(-1.24502 -0.00142345 0)
(-1.24789 -0.00171087 0)
(-1.2553 -0.0010047 0)
(-1.25355 0.00172791 0)
(-1.24504 -0.00140332 0)
(-1.24789 -0.00165031 0)
(-1.25527 -0.000870085 0)
(-1.25355 0.00172608 0)
(-1.24505 -0.00136684 0)
(-1.24788 -0.00160445 0)
(-1.25524 -0.000730323 0)
(-1.25354 0.00180914 0)
(-1.24506 -0.00131105 0)
(-1.24788 -0.00154469 0)
(-1.25521 -0.000622553 0)
(-1.25354 0.00187227 0)
(-1.24508 -0.00122943 0)
(-1.24787 -0.00152226 0)
(-1.25519 -0.000573576 0)
(-1.25354 0.00183193 0)
(-1.24509 -0.00115448 0)
(-1.24787 -0.00149702 0)
(-1.25516 -0.000538345 0)
(-1.25354 0.00174979 0)
(-1.24511 -0.00109511 0)
(-1.24786 -0.00149659 0)
(-1.25513 -0.000507542 0)
(-1.25354 0.0016621 0)
(-1.24512 -0.00101579 0)
(-1.24786 -0.00142663 0)
(-1.25511 -0.000483563 0)
(-1.25353 0.00152256 0)
(-1.24514 -0.000893798 0)
(-1.24785 -0.0012548 0)
(-1.25508 -0.000447717 0)
(-1.25353 0.00134697 0)
(-1.24515 -0.000732712 0)
(-1.24785 -0.00107387 0)
(-1.25506 -0.000509557 0)
(-1.25353 0.00115107 0)
(-1.24515 -0.000562057 0)
(-1.24785 -0.000930991 0)
(-1.25505 -0.000523295 0)
(-1.25352 0.000991288 0)
(-1.24516 -0.00041195 0)
(-1.24785 -0.000811793 0)
(-1.25503 -0.000526097 0)
(-1.25352 0.000885125 0)
(-1.24517 -0.000294962 0)
(-1.24785 -0.000771787 0)
(-1.25502 -0.000541844 0)
(-1.25351 0.000779825 0)
(-1.24517 -0.000210667 0)
(-1.24785 -0.000728117 0)
(-1.255 -0.000499942 0)
(-1.2535 0.000692544 0)
(-1.24518 -0.000143959 0)
(-1.24786 -0.000669776 0)
(-1.25499 -0.000477213 0)
(-1.25349 0.00060947 0)
(-1.24518 -9.26638e-05 0)
(-1.24786 -0.000599006 0)
(-1.25498 -0.000438767 0)
(-1.25349 0.000517624 0)
(-1.24519 -3.68929e-05 0)
(-1.24786 -0.000516956 0)
(-1.25497 -0.000397604 0)
(-1.25348 0.000433331 0)
(-1.24519 -2.80681e-06 0)
(-1.24787 -0.000442489 0)
(-1.25497 -0.000337484 0)
(-1.25348 0.000357727 0)
(-1.24519 8.99399e-06 0)
(-1.24787 -0.000373682 0)
(-1.25496 -0.00028145 0)
(-1.25347 0.000293103 0)
(-1.2452 -6.81609e-06 0)
(-1.24787 -0.000302896 0)
(-1.25496 -0.000213257 0)
(-1.25347 0.000230874 0)
(-1.2452 -2.88444e-05 0)
(-1.24787 -0.000238144 0)
(-1.25495 -0.000160748 0)
(-1.25346 0.000170439 0)
(-1.2452 -4.89516e-05 0)
(-1.24787 -0.000168328 0)
(-1.25495 -0.000100988 0)
(-1.25346 0.000109198 0)
(-1.2452 -6.87865e-05 0)
(-1.24787 -9.04136e-05 0)
(-1.25495 -4.46176e-05 0)
(-1.25346 4.42774e-05 0)
(-1.2452 -8.42596e-05 0)
(-1.24787 -1.9084e-05 0)
(-1.25495 8.18784e-06 0)
(-1.25346 -1.6323e-05 0)
(-1.2452 -4.29143e-05 0)
(-1.24787 5.08028e-06 0)
(-1.25495 8.92032e-06 0)
(-1.25346 -2.04906e-05 0)
)
;

boundaryField
{
    topWall
    {
        type            extrapolatedCalculated;
        value           nonuniform List<vector> 8((-1.2521 4.5374e-05 0) (-1.25151 3.49546e-05 0) (-1.24775 4.32439e-05 0) (-1.24716 -2.27266e-05 0) (-1.2452 -4.29143e-05 0) (-1.24787 5.08028e-06 0) (-1.25495 8.92032e-06 0) (-1.25346 -2.04906e-05 0));
    }
    botWall
    {
        type            extrapolatedCalculated;
        value           nonuniform List<vector> 8((-1.23184 -12.3741 0) (-1.4519 -1.41893 0) (-1.27467 -0.127823 0) (-1.25052 0.00184558 0) (-1.25625 -0.0188807 0) (-1.24503 -0.0104506 0) (-1.23724 -0.00348019 0) (-1.05256 0.000342553 0));
    }
    inlet
    {
        type            cyclic;
    }
    outlet
    {
        type            cyclic;
    }
    fixWall
    {
        type            empty;
    }
}


// ************************************************************************* //
