/*--------------------------------*- C++ -*----------------------------------*\
  =========                 |
  \\      /  F ield         | OpenFOAM: The Open Source CFD Toolbox
   \\    /   O peration     | Website:  https://openfoam.org
    \\  /    A nd           | Version:  dev
     \\/     M anipulation  |

   OpenFOAM for Windows 20.09 (v1)
   Built by CFD Support, www.cfdsupport.com (based on Symscape).
\*---------------------------------------------------------------------------*/
FoamFile
{
    version     2.0;
    format      ascii;
    class       volVectorField;
    location    "8";
    object      gradp;
}
// * * * * * * * * * * * * * * * * * * * * * * * * * * * * * * * * * * * * * //

dimensions      [1 -2 -2 0 0 0 0];

internalField   nonuniform List<vector> 
960
(
(3.76814 -110.485 0)
(-1.45172 -99.5202 0)
(-1.27465 -98.228 0)
(-1.25052 -98.0982 0)
(3.74451 -110.465 0)
(-1.24779 -99.5176 0)
(-1.25099 -98.2275 0)
(-1.2487 -98.0997 0)
(3.74447 -98.103 0)
(-1.24776 -98.0756 0)
(-1.25101 -98.0992 0)
(-1.24865 -98.1017 0)
(3.74487 -98.1048 0)
(-1.24773 -98.1014 0)
(-1.25142 -98.1018 0)
(-1.24885 -98.1002 0)
(3.74449 -98.1096 0)
(-1.24771 -98.1353 0)
(-1.251 -98.1039 0)
(-1.24882 -98.1004 0)
(3.74434 -98.1097 0)
(-1.24763 -98.1046 0)
(-1.25084 -98.1011 0)
(-1.24879 -98.0951 0)
(3.74443 -98.1059 0)
(-1.24757 -98.0892 0)
(-1.25084 -98.0991 0)
(-1.2488 -98.0984 0)
(3.74453 -98.1055 0)
(-1.24752 -98.0991 0)
(-1.25099 -98.0988 0)
(-1.24881 -98.1044 0)
(3.74446 -98.0982 0)
(-1.24746 -98.1066 0)
(-1.25093 -98.0987 0)
(-1.24883 -98.1014 0)
(3.74424 -98.1036 0)
(-1.24753 -98.1034 0)
(-1.25091 -98.0986 0)
(-1.24884 -98.1004 0)
(3.74425 -98.1111 0)
(-1.24738 -98.0888 0)
(-1.25088 -98.0842 0)
(-1.24886 -98.098 0)
(3.74448 -98.1055 0)
(-1.24708 -98.089 0)
(-1.25106 -98.0842 0)
(-1.24912 -98.0826 0)
(3.74409 -98.1054 0)
(-1.24702 -98.0823 0)
(-1.25077 -98.0858 0)
(-1.24914 -98.079 0)
(3.74424 -98.0254 0)
(-1.24675 -98.0815 0)
(-1.251 -98.0864 0)
(-1.24937 -98.0801 0)
(3.7442 -97.8577 0)
(-1.24804 -97.7298 0)
(-1.25075 -97.5833 0)
(-1.24938 -98.0266 0)
(3.74896 -98.0623 0)
(-1.24218 -98.2793 0)
(-1.25595 -98.5651 0)
(-1.25591 -98.5565 0)
(3.74882 -98.2206 0)
(-1.25642 -98.6484 0)
(-1.25537 -99.0822 0)
(-1.24279 -98.6146 0)
(3.74888 -98.0972 0)
(-1.25654 -98.096 0)
(-1.25538 -98.1012 0)
(-1.24292 -98.0981 0)
(3.74909 -98.1057 0)
(-1.25649 -98.0959 0)
(-1.2554 -98.1017 0)
(-1.24301 -98.0983 0)
(3.74913 -98.103 0)
(-1.25647 -98.0959 0)
(-1.25542 -98.1018 0)
(-1.24302 -98.0985 0)
(3.74916 -98.1025 0)
(-1.25646 -98.0959 0)
(-1.25545 -98.1016 0)
(-1.24302 -98.0986 0)
(3.74918 -98.0989 0)
(-1.25646 -98.0957 0)
(-1.25547 -98.1013 0)
(-1.24302 -98.0932 0)
(3.74928 -98.0985 0)
(-1.2565 -98.0944 0)
(-1.25541 -98.0982 0)
(-1.24303 -98.0955 0)
(3.74934 -98.105 0)
(-1.25645 -98.0999 0)
(-1.25549 -98.1025 0)
(-1.24318 -98.1016 0)
(3.74929 -98.1054 0)
(-1.25646 -98.1015 0)
(-1.25543 -98.1057 0)
(-1.24312 -98.0998 0)
(3.74932 -98.1022 0)
(-1.25646 -98.0963 0)
(-1.25546 -98.1014 0)
(-1.24312 -98.1 0)
(3.74936 -98.102 0)
(-1.25645 -98.0961 0)
(-1.25549 -98.1015 0)
(-1.24314 -98.1004 0)
(3.74939 -98.1019 0)
(-1.25645 -98.0961 0)
(-1.25553 -98.1019 0)
(-1.24315 -98.1004 0)
(3.74942 -97.1446 0)
(-1.25645 -96.8962 0)
(-1.25556 -97.1777 0)
(-1.24316 -96.9991 0)
(3.76722 -97.7522 0)
(-1.257 -97.7709 0)
(-1.25725 -97.4659 0)
(-1.24879 -97.4363 0)
(3.75236 -98.7093 0)
(-1.25168 -98.9715 0)
(-1.24999 -98.3902 0)
(-1.24566 -98.535 0)
(3.75461 -98.0939 0)
(-1.25168 -98.0971 0)
(-1.24997 -98.1009 0)
(-1.24574 -98.0937 0)
(3.7547 -98.0951 0)
(-1.25179 -98.0944 0)
(-1.24993 -98.1007 0)
(-1.24566 -98.0891 0)
(3.75484 -98.1031 0)
(-1.25178 -98.0974 0)
(-1.24988 -98.107 0)
(-1.24568 -98.0969 0)
(3.75488 -98.1014 0)
(-1.25186 -98.0999 0)
(-1.24992 -98.1063 0)
(-1.2456 -98.1002 0)
(3.75496 -98.1006 0)
(-1.25186 -98.0968 0)
(-1.24989 -98.1 0)
(-1.24561 -98.0926 0)
(3.75506 -98.1005 0)
(-1.25185 -98.0967 0)
(-1.24985 -98.0999 0)
(-1.24563 -98.092 0)
(3.75515 -98.1004 0)
(-1.25185 -98.0965 0)
(-1.24981 -98.097 0)
(-1.24562 -98.0919 0)
(3.75524 -98.0987 0)
(-1.25179 -98.0962 0)
(-1.24978 -98.0992 0)
(-1.24574 -98.0957 0)
(3.75534 -98.1013 0)
(-1.25185 -98.0982 0)
(-1.2498 -98.1022 0)
(-1.24572 -98.0959 0)
(3.75532 -98.1031 0)
(-1.25181 -98.0989 0)
(-1.24974 -98.0999 0)
(-1.24574 -98.0926 0)
(3.75541 -98.1009 0)
(-1.2518 -98.0976 0)
(-1.2497 -98.1 0)
(-1.24558 -98.086 0)
(3.75526 -98.101 0)
(-1.2518 -98.0977 0)
(-1.24954 -98.0747 0)
(-1.24565 -98.0892 0)
(3.75521 -97.7141 0)
(-1.25136 -97.3462 0)
(-1.24955 -97.7574 0)
(-1.24609 -98.0954 0)
(3.76125 -98.2523 0)
(-1.25252 -98.5828 0)
(-1.26203 -97.0543 0)
(-1.25139 -97.7969 0)
(3.75173 -98.8041 0)
(-1.2314 -99.8358 0)
(-1.23646 -97.7863 0)
(-1.25559 -98.5295 0)
(3.74842 -98.2965 0)
(-1.23555 -98.6115 0)
(-1.24026 -98.516 0)
(-1.25804 -98.8253 0)
(3.74921 -98.1446 0)
(-1.23505 -98.1102 0)
(-1.24002 -98.1051 0)
(-1.25805 -98.0933 0)
(3.74924 -98.1198 0)
(-1.2349 -98.1007 0)
(-1.23998 -98.1054 0)
(-1.25801 -98.0931 0)
(3.74923 -98.1102 0)
(-1.23481 -98.0981 0)
(-1.23989 -98.1035 0)
(-1.258 -98.0927 0)
(3.74931 -98.1075 0)
(-1.23478 -98.093 0)
(-1.23989 -98.1042 0)
(-1.25799 -98.0925 0)
(3.74928 -98.1079 0)
(-1.23476 -98.0884 0)
(-1.23988 -98.1035 0)
(-1.25797 -98.0923 0)
(3.74948 -98.1084 0)
(-1.23471 -98.0958 0)
(-1.23995 -98.1031 0)
(-1.25785 -98.0897 0)
(3.74944 -98.1084 0)
(-1.23467 -98.1005 0)
(-1.23978 -98.0942 0)
(-1.2579 -98.0945 0)
(3.74948 -98.1085 0)
(-1.23447 -98.0856 0)
(-1.23985 -98.0938 0)
(-1.25805 -98.0969 0)
(3.74972 -98.1088 0)
(-1.23443 -98.0857 0)
(-1.23997 -98.0886 0)
(-1.25805 -98.0645 0)
(3.74983 -98.109 0)
(-1.23414 -98.0792 0)
(-1.2395 -98.0656 0)
(-1.25785 -98.0583 0)
(3.75015 -98.1086 0)
(-1.2337 -98.0778 0)
(-1.23962 -98.0774 0)
(-1.25828 -98.0851 0)
(3.75023 -97.2267 0)
(-1.23362 -97.3036 0)
(-1.23962 -97.4554 0)
(-1.25832 -97.4335 0)
(3.75064 -74.8952 0)
(-1.23751 -75.2381 0)
(-1.24179 -75.7838 0)
(-1.25721 -75.664 0)
(-1.25625 -98.1189 0)
(-1.24503 -98.1105 0)
(-1.23724 -98.1036 0)
(3.94726 -98.0997 0)
(-1.25646 -98.1157 0)
(-1.24477 -98.1058 0)
(-1.23706 -98.1035 0)
(3.74127 -98.0973 0)
(-1.25635 -98.1083 0)
(-1.24482 -98.1007 0)
(-1.2371 -98.1001 0)
(3.74124 -98.0975 0)
(-1.25644 -98.1116 0)
(-1.24463 -98.117 0)
(-1.23701 -98.1002 0)
(3.74122 -98.1028 0)
(-1.25663 -98.1002 0)
(-1.24463 -98.1119 0)
(-1.23686 -98.1001 0)
(3.74116 -98.1035 0)
(-1.25663 -98.1002 0)
(-1.24463 -98.1006 0)
(-1.23687 -98.1 0)
(3.74106 -98.101 0)
(-1.25672 -98.1003 0)
(-1.24463 -98.1007 0)
(-1.23687 -98.0999 0)
(3.741 -98.1007 0)
(-1.25667 -98.1003 0)
(-1.24463 -98.1007 0)
(-1.23687 -98.0998 0)
(3.74096 -98.1006 0)
(-1.25666 -98.1004 0)
(-1.24462 -98.1007 0)
(-1.23687 -98.0925 0)
(3.74091 -98.0888 0)
(-1.25666 -98.1006 0)
(-1.24449 -98.0983 0)
(-1.23667 -98.0955 0)
(3.74086 -98.0912 0)
(-1.25663 -98.1007 0)
(-1.24454 -98.0979 0)
(-1.23675 -98.1031 0)
(3.74077 -98.1034 0)
(-1.25666 -98.1008 0)
(-1.24453 -98.1008 0)
(-1.23676 -98.0999 0)
(3.74073 -98.0791 0)
(-1.25693 -98.1008 0)
(-1.24452 -98.1018 0)
(-1.23639 -98.0692 0)
(3.74068 -98.0681 0)
(-1.25704 -98.1009 0)
(-1.24401 -97.3879 0)
(-1.2362 -98.01 0)
(3.74013 -98.0883 0)
(-1.24539 -97.9757 0)
(-1.24301 -97.6377 0)
(-1.24806 -97.7167 0)
(3.74042 -98.0127 0)
(-1.25055 -98.17 0)
(-1.23969 -98.3529 0)
(-1.24245 -98.0111 0)
(3.73778 -98.5562 0)
(-1.242 -98.3029 0)
(-1.24036 -98.1044 0)
(-1.25145 -98.3427 0)
(3.73957 -98.6439 0)
(-1.24205 -98.1144 0)
(-1.24035 -98.1044 0)
(-1.25144 -98.1152 0)
(3.73981 -98.1126 0)
(-1.2421 -98.1075 0)
(-1.24037 -98.1045 0)
(-1.25159 -98.107 0)
(3.73987 -98.111 0)
(-1.24215 -98.1023 0)
(-1.24034 -98.1043 0)
(-1.25155 -98.0983 0)
(3.73983 -98.1002 0)
(-1.2422 -98.1017 0)
(-1.24031 -98.1012 0)
(-1.25152 -98.0955 0)
(3.73979 -98.0987 0)
(-1.2422 -98.1021 0)
(-1.24024 -98.1047 0)
(-1.25151 -98.1004 0)
(3.73972 -98.1023 0)
(-1.24239 -98.108 0)
(-1.24028 -98.1076 0)
(-1.25148 -98.1029 0)
(3.73982 -98.104 0)
(-1.2424 -98.1076 0)
(-1.24016 -98.1039 0)
(-1.25145 -98.0979 0)
(3.73979 -98.1007 0)
(-1.24243 -98.1023 0)
(-1.24012 -98.1036 0)
(-1.25142 -98.0977 0)
(3.7397 -98.1007 0)
(-1.24246 -98.1025 0)
(-1.24008 -98.1036 0)
(-1.2514 -98.0969 0)
(3.73966 -98.1006 0)
(-1.24249 -98.1028 0)
(-1.24002 -98.1038 0)
(-1.25137 -98.1036 0)
(3.73961 -98.1003 0)
(-1.24252 -98.1031 0)
(-1.24009 -98.1041 0)
(-1.25134 -98.0985 0)
(3.73969 -98.0998 0)
(-1.24255 -97.5165 0)
(-1.23995 -98.1041 0)
(-1.2513 -97.8702 0)
(3.73955 -97.9659 0)
(-1.26094 -97.6163 0)
(-1.24599 -97.7939 0)
(-1.24904 -98.2344 0)
(3.75178 -97.9472 0)
(-1.24851 -98.2072 0)
(-1.25025 -98.2845 0)
(-1.25386 -98.5851 0)
(3.74759 -98.2148 0)
(-1.25676 -98.1007 0)
(-1.25229 -98.5989 0)
(-1.24788 -98.2245 0)
(3.74971 -98.2377 0)
(-1.25693 -98.0969 0)
(-1.25231 -98.1165 0)
(-1.24784 -98.0982 0)
(3.74977 -98.108 0)
(-1.25722 -98.1033 0)
(-1.25231 -98.1123 0)
(-1.24774 -98.0985 0)
(3.74976 -98.1081 0)
(-1.25719 -98.1025 0)
(-1.25223 -98.1043 0)
(-1.24777 -98.0935 0)
(3.74969 -98.1075 0)
(-1.25729 -98.1018 0)
(-1.25216 -98.1033 0)
(-1.24779 -98.0934 0)
(3.74963 -98.1077 0)
(-1.25737 -98.1004 0)
(-1.25209 -98.105 0)
(-1.24784 -98.0908 0)
(3.74957 -98.1077 0)
(-1.2575 -98.1039 0)
(-1.252 -98.1063 0)
(-1.24783 -98.0955 0)
(3.74947 -98.1074 0)
(-1.25761 -98.1054 0)
(-1.25195 -98.1048 0)
(-1.24786 -98.0983 0)
(3.74949 -98.1076 0)
(-1.25766 -98.1019 0)
(-1.25188 -98.1045 0)
(-1.24788 -98.0939 0)
(3.74946 -98.103 0)
(-1.25775 -98.0915 0)
(-1.25182 -98.0978 0)
(-1.24783 -98.0886 0)
(3.74937 -98.1029 0)
(-1.25774 -98.0949 0)
(-1.25184 -98.1096 0)
(-1.24797 -98.0974 0)
(3.74922 -98.0941 0)
(-1.25815 -98.105 0)
(-1.25186 -98.1163 0)
(-1.24757 -98.1026 0)
(3.74931 -98.0857 0)
(-1.25819 -98.1014 0)
(-1.2518 -98.1041 0)
(-1.24746 -98.0924 0)
(3.74925 -97.7052 0)
(-1.25829 -97.6242 0)
(-1.25171 -97.9101 0)
(-1.24092 -97.6018 0)
(3.75561 -98.3741 0)
(-1.26008 -98.1857 0)
(-1.25142 -98.669 0)
(-1.25519 -98.07 0)
(3.73841 -99.0658 0)
(-1.26062 -98.6635 0)
(-1.24978 -98.864 0)
(-1.24754 -98.5628 0)
(3.74338 -98.4605 0)
(-1.26073 -98.1027 0)
(-1.24974 -98.1064 0)
(-1.24846 -98.0985 0)
(3.74284 -98.1597 0)
(-1.26084 -98.1027 0)
(-1.24971 -98.1062 0)
(-1.24843 -98.0986 0)
(3.74261 -98.1018 0)
(-1.26095 -98.1024 0)
(-1.24968 -98.1059 0)
(-1.24839 -98.0981 0)
(3.74249 -98.1024 0)
(-1.26106 -98.1022 0)
(-1.24964 -98.0937 0)
(-1.24837 -98.0979 0)
(3.74241 -98.0963 0)
(-1.26097 -98.0951 0)
(-1.2496 -98.1158 0)
(-1.24843 -98.1033 0)
(3.74233 -98.0987 0)
(-1.26145 -98.0989 0)
(-1.24978 -98.128 0)
(-1.24808 -98.1035 0)
(3.74233 -98.1053 0)
(-1.26161 -98.1065 0)
(-1.24968 -98.1063 0)
(-1.24805 -98.0987 0)
(3.74225 -98.1001 0)
(-1.26165 -98.1029 0)
(-1.24965 -98.1064 0)
(-1.24798 -98.0986 0)
(3.74217 -98.1023 0)
(-1.26176 -98.0768 0)
(-1.24961 -98.0952 0)
(-1.24798 -98.0858 0)
(3.74209 -98.1073 0)
(-1.26216 -98.0791 0)
(-1.2498 -98.1088 0)
(-1.24818 -98.105 0)
(3.74179 -98.105 0)
(-1.26261 -98.1055 0)
(-1.25004 -98.1211 0)
(-1.24792 -98.1179 0)
(3.74202 -98.1014 0)
(-1.26276 -97.3912 0)
(-1.25 -97.2783 0)
(-1.24785 -97.3174 0)
(3.74194 -97.3328 0)
(-1.26002 -75.3026 0)
(-1.24881 -74.8588 0)
(-1.24883 -75.1755 0)
(3.74353 -75.2242 0)
(3.75 -32.3345 0)
(-1.24843 -32.6908 0)
(-1.24672 -33.2163 0)
(-1.2503 -33.0467 0)
(3.74846 -10.5176 0)
(-1.25221 -10.6156 0)
(-1.24772 -10.7442 0)
(-1.24688 -10.6762 0)
(3.74847 -9.81096 0)
(-1.2522 -9.8097 0)
(-1.24773 -9.8105 0)
(-1.24689 -9.80931 0)
(3.74846 -9.81072 0)
(-1.2522 -9.80975 0)
(-1.24771 -9.81031 0)
(-1.24688 -9.80843 0)
(3.74845 -9.81089 0)
(-1.2522 -9.80969 0)
(-1.24771 -9.81038 0)
(-1.24688 -9.80878 0)
(3.74845 -9.81089 0)
(-1.25219 -9.80965 0)
(-1.2477 -9.81033 0)
(-1.24687 -9.80886 0)
(3.74844 -9.81093 0)
(-1.25219 -9.80959 0)
(-1.24769 -9.8102 0)
(-1.24687 -9.80894 0)
(3.74843 -9.81099 0)
(-1.25218 -9.80957 0)
(-1.24769 -9.81013 0)
(-1.24687 -9.80896 0)
(3.74843 -9.81104 0)
(-1.25217 -9.80954 0)
(-1.24768 -9.81009 0)
(-1.24688 -9.80897 0)
(3.74842 -9.81112 0)
(-1.25217 -9.80947 0)
(-1.24768 -9.8101 0)
(-1.24688 -9.80899 0)
(3.74841 -9.81116 0)
(-1.25216 -9.8095 0)
(-1.24767 -9.81021 0)
(-1.24688 -9.809 0)
(3.7484 -9.81122 0)
(-1.25215 -9.80965 0)
(-1.24767 -9.81036 0)
(-1.24688 -9.80899 0)
(3.74839 -9.81129 0)
(-1.25214 -9.80971 0)
(-1.24766 -9.81043 0)
(-1.24688 -9.80895 0)
(3.74838 -9.81145 0)
(-1.25214 -9.80966 0)
(-1.24766 -9.81041 0)
(-1.24687 -9.80884 0)
(3.74837 -9.81183 0)
(-1.25213 -9.8094 0)
(-1.24765 -9.81016 0)
(-1.24686 -9.80873 0)
(3.74836 -9.81232 0)
(-1.25211 -9.80892 0)
(-1.24765 -9.80988 0)
(-1.24686 -9.80866 0)
(3.74834 -9.81281 0)
(-1.25208 -9.80862 0)
(-1.24765 -9.80978 0)
(-1.24687 -9.80854 0)
(3.74831 -9.81326 0)
(-1.25206 -9.80856 0)
(-1.24764 -9.8097 0)
(-1.24687 -9.80847 0)
(3.74829 -9.81351 0)
(-1.25203 -9.80865 0)
(-1.24764 -9.80977 0)
(-1.24688 -9.80847 0)
(3.74826 -9.81359 0)
(-1.252 -9.80891 0)
(-1.24764 -9.80992 0)
(-1.24688 -9.80843 0)
(3.74824 -9.81367 0)
(-1.25196 -9.80907 0)
(-1.24764 -9.81001 0)
(-1.24688 -9.8084 0)
(3.74821 -9.81373 0)
(-1.25193 -9.80907 0)
(-1.24763 -9.81004 0)
(-1.24688 -9.80839 0)
(3.74818 -9.81384 0)
(-1.2519 -9.80909 0)
(-1.24762 -9.81006 0)
(-1.24687 -9.8084 0)
(3.74816 -9.81394 0)
(-1.25187 -9.80912 0)
(-1.24762 -9.81006 0)
(-1.24687 -9.80838 0)
(3.74813 -9.81404 0)
(-1.25184 -9.80917 0)
(-1.24761 -9.81008 0)
(-1.24687 -9.80842 0)
(3.7481 -9.81406 0)
(-1.25181 -9.80909 0)
(-1.24761 -9.81002 0)
(-1.24687 -9.80857 0)
(3.74808 -9.81401 0)
(-1.25177 -9.8089 0)
(-1.2476 -9.80986 0)
(-1.24687 -9.80866 0)
(3.74805 -9.81385 0)
(-1.25174 -9.80877 0)
(-1.2476 -9.80975 0)
(-1.24687 -9.8087 0)
(3.74803 -9.81336 0)
(-1.2517 -9.80866 0)
(-1.2476 -9.80955 0)
(-1.24688 -9.80889 0)
(3.748 -9.8126 0)
(-1.25167 -9.80874 0)
(-1.24761 -9.80946 0)
(-1.24689 -9.80906 0)
(3.74799 -9.81184 0)
(-1.25165 -9.80902 0)
(-1.24761 -9.80955 0)
(-1.2469 -9.80924 0)
(3.74798 -9.81114 0)
(-1.25163 -9.80902 0)
(-1.24761 -9.8096 0)
(-1.2469 -9.8096 0)
(3.74797 -9.81065 0)
(-1.25162 -9.80889 0)
(-1.24762 -9.80963 0)
(-1.24691 -9.80979 0)
(3.74797 -9.81045 0)
(-1.25162 -9.80879 0)
(-1.24762 -9.80956 0)
(-1.24692 -9.80992 0)
(3.74797 -9.81032 0)
(-1.25161 -9.80863 0)
(-1.24764 -9.80941 0)
(-1.24693 -9.80997 0)
(3.74797 -9.81024 0)
(-1.2516 -9.80865 0)
(-1.24765 -9.8093 0)
(-1.24695 -9.80988 0)
(3.74796 -9.81026 0)
(-1.25159 -9.80884 0)
(-1.24766 -9.8093 0)
(-1.24697 -9.80985 0)
(3.74796 -9.81029 0)
(-1.25159 -9.80903 0)
(-1.24766 -9.80938 0)
(-1.24698 -9.80985 0)
(3.74795 -9.81031 0)
(-1.25158 -9.80916 0)
(-1.24767 -9.80945 0)
(-1.247 -9.80986 0)
(3.74794 -9.81033 0)
(-1.25157 -9.80922 0)
(-1.24768 -9.80951 0)
(-1.24702 -9.80982 0)
(3.74793 -9.81029 0)
(-1.25157 -9.80922 0)
(-1.24768 -9.80961 0)
(-1.24703 -9.80977 0)
(3.74792 -9.81024 0)
(-1.25156 -9.80915 0)
(-1.24768 -9.80979 0)
(-1.24704 -9.80976 0)
(3.74792 -9.81015 0)
(-1.25156 -9.80912 0)
(-1.24769 -9.80991 0)
(-1.24705 -9.80979 0)
(3.74791 -9.81009 0)
(-1.25156 -9.80918 0)
(-1.2477 -9.80983 0)
(-1.24706 -9.80983 0)
(3.74791 -9.80999 0)
(-1.25155 -9.80926 0)
(-1.2477 -9.80961 0)
(-1.24707 -9.8099 0)
(3.74791 -9.80987 0)
(-1.25155 -9.80935 0)
(-1.24771 -9.80938 0)
(-1.24708 -9.80997 0)
(3.7479 -9.80974 0)
(-1.25155 -9.8094 0)
(-1.24771 -9.8092 0)
(-1.24709 -9.81003 0)
(3.7479 -9.80963 0)
(-1.25154 -9.80945 0)
(-1.24772 -9.8091 0)
(-1.2471 -9.81008 0)
(3.7479 -9.80961 0)
(-1.25154 -9.80952 0)
(-1.24772 -9.80912 0)
(-1.24711 -9.81009 0)
(3.7479 -9.80962 0)
(-1.25153 -9.8096 0)
(-1.24773 -9.80918 0)
(-1.24712 -9.81007 0)
(3.7479 -9.80966 0)
(-1.25153 -9.80965 0)
(-1.24773 -9.80925 0)
(-1.24712 -9.81006 0)
(3.7479 -9.80969 0)
(-1.25153 -9.8097 0)
(-1.24773 -9.80933 0)
(-1.24713 -9.81005 0)
(3.74789 -9.80973 0)
(-1.25152 -9.80974 0)
(-1.24774 -9.80942 0)
(-1.24714 -9.81004 0)
(3.74789 -9.80976 0)
(-1.25152 -9.80978 0)
(-1.24774 -9.8095 0)
(-1.24714 -9.81004 0)
(3.74789 -9.80979 0)
(-1.25152 -9.8098 0)
(-1.24774 -9.80957 0)
(-1.24714 -9.81004 0)
(3.74789 -9.80982 0)
(-1.25152 -9.80983 0)
(-1.24774 -9.80964 0)
(-1.24715 -9.81004 0)
(3.74789 -9.80986 0)
(-1.25152 -9.80985 0)
(-1.24774 -9.80972 0)
(-1.24715 -9.81004 0)
(3.74789 -9.80988 0)
(-1.25151 -9.80988 0)
(-1.24775 -9.80981 0)
(-1.24715 -9.81004 0)
(3.74789 -9.80991 0)
(-1.25151 -9.80991 0)
(-1.24775 -9.80989 0)
(-1.24716 -9.81005 0)
(3.7479 -9.80995 0)
(-1.25151 -9.80997 0)
(-1.24775 -9.80996 0)
(-1.24716 -9.81002 0)
(-1.24934 -32.5965 0)
(-1.24788 -32.1225 0)
(-1.25394 -32.5216 0)
(3.74661 -32.5603 0)
(-1.24462 -10.5395 0)
(-1.24756 -10.3944 0)
(-1.25613 -10.5192 0)
(3.74665 -10.5238 0)
(-1.24464 -9.81061 0)
(-1.24755 -9.8122 0)
(-1.2561 -9.81011 0)
(3.74664 -9.80939 0)
(-1.24466 -9.80949 0)
(-1.24755 -9.81129 0)
(-1.25608 -9.81018 0)
(3.74663 -9.80888 0)
(-1.24469 -9.80998 0)
(-1.24756 -9.81154 0)
(-1.25606 -9.81028 0)
(3.74663 -9.80905 0)
(-1.24471 -9.81016 0)
(-1.24756 -9.81165 0)
(-1.25604 -9.81029 0)
(3.74662 -9.80905 0)
(-1.24473 -9.81027 0)
(-1.24756 -9.81167 0)
(-1.25601 -9.81044 0)
(3.74662 -9.80884 0)
(-1.24476 -9.81032 0)
(-1.24756 -9.81159 0)
(-1.25599 -9.81051 0)
(3.74662 -9.80868 0)
(-1.24478 -9.81033 0)
(-1.24756 -9.81144 0)
(-1.25597 -9.8106 0)
(3.74661 -9.80854 0)
(-1.2448 -9.81036 0)
(-1.24757 -9.81136 0)
(-1.25594 -9.81068 0)
(3.74661 -9.80838 0)
(-1.24482 -9.81027 0)
(-1.24757 -9.81126 0)
(-1.25592 -9.81056 0)
(3.74661 -9.80843 0)
(-1.24483 -9.81007 0)
(-1.24757 -9.81107 0)
(-1.25589 -9.81028 0)
(3.7466 -9.8087 0)
(-1.24485 -9.80987 0)
(-1.24757 -9.81086 0)
(-1.25588 -9.81012 0)
(3.74659 -9.80884 0)
(-1.24487 -9.80972 0)
(-1.24757 -9.81064 0)
(-1.25586 -9.81024 0)
(3.74658 -9.80862 0)
(-1.24488 -9.80975 0)
(-1.24758 -9.81031 0)
(-1.25584 -9.81091 0)
(3.74657 -9.80782 0)
(-1.24489 -9.81007 0)
(-1.24759 -9.8101 0)
(-1.25582 -9.81192 0)
(3.74656 -9.80662 0)
(-1.24491 -9.81029 0)
(-1.24761 -9.80985 0)
(-1.25579 -9.81259 0)
(3.74656 -9.80582 0)
(-1.24491 -9.81028 0)
(-1.24763 -9.80946 0)
(-1.25575 -9.81286 0)
(3.74656 -9.80553 0)
(-1.24492 -9.81023 0)
(-1.24765 -9.80925 0)
(-1.25572 -9.81277 0)
(3.74656 -9.80559 0)
(-1.24493 -9.81001 0)
(-1.24767 -9.80901 0)
(-1.25569 -9.8125 0)
(3.74655 -9.80589 0)
(-1.24493 -9.8099 0)
(-1.2477 -9.80884 0)
(-1.25567 -9.81237 0)
(3.74654 -9.80604 0)
(-1.24494 -9.80986 0)
(-1.24772 -9.80875 0)
(-1.25564 -9.81236 0)
(3.74653 -9.80601 0)
(-1.24494 -9.80986 0)
(-1.24774 -9.80875 0)
(-1.25562 -9.81235 0)
(3.74651 -9.80597 0)
(-1.24494 -9.80978 0)
(-1.24776 -9.80866 0)
(-1.2556 -9.81237 0)
(3.7465 -9.80597 0)
(-1.24494 -9.80977 0)
(-1.24778 -9.80853 0)
(-1.25558 -9.81234 0)
(3.74649 -9.80598 0)
(-1.24494 -9.80997 0)
(-1.2478 -9.80865 0)
(-1.25556 -9.81257 0)
(3.74647 -9.80597 0)
(-1.24494 -9.81019 0)
(-1.24782 -9.80874 0)
(-1.25553 -9.81273 0)
(3.74646 -9.80573 0)
(-1.24494 -9.81034 0)
(-1.24784 -9.80891 0)
(-1.25551 -9.81266 0)
(3.74645 -9.80557 0)
(-1.24495 -9.81051 0)
(-1.24786 -9.8093 0)
(-1.25548 -9.81252 0)
(3.74644 -9.80579 0)
(-1.24495 -9.81045 0)
(-1.24788 -9.80976 0)
(-1.25545 -9.81181 0)
(3.74644 -9.80626 0)
(-1.24496 -9.81025 0)
(-1.24788 -9.81025 0)
(-1.25542 -9.81118 0)
(3.74643 -9.80726 0)
(-1.24497 -9.81045 0)
(-1.24789 -9.81081 0)
(-1.2554 -9.81099 0)
(3.74643 -9.8082 0)
(-1.24498 -9.81067 0)
(-1.24789 -9.81126 0)
(-1.25538 -9.8109 0)
(3.74643 -9.80855 0)
(-1.24499 -9.81091 0)
(-1.24789 -9.81147 0)
(-1.25535 -9.81104 0)
(3.74643 -9.80868 0)
(-1.245 -9.81124 0)
(-1.2479 -9.81168 0)
(-1.25533 -9.81118 0)
(3.74644 -9.80849 0)
(-1.24502 -9.81142 0)
(-1.24789 -9.81171 0)
(-1.2553 -9.811 0)
(3.74645 -9.80827 0)
(-1.24504 -9.8114 0)
(-1.24789 -9.81165 0)
(-1.25527 -9.81087 0)
(3.74645 -9.80827 0)
(-1.24505 -9.81137 0)
(-1.24788 -9.8116 0)
(-1.25524 -9.81073 0)
(3.74646 -9.80819 0)
(-1.24506 -9.81131 0)
(-1.24788 -9.81154 0)
(-1.25521 -9.81062 0)
(3.74646 -9.80813 0)
(-1.24508 -9.81123 0)
(-1.24787 -9.81152 0)
(-1.25519 -9.81057 0)
(3.74646 -9.80817 0)
(-1.24509 -9.81115 0)
(-1.24787 -9.8115 0)
(-1.25516 -9.81054 0)
(3.74646 -9.80825 0)
(-1.24511 -9.8111 0)
(-1.24786 -9.8115 0)
(-1.25513 -9.81051 0)
(3.74646 -9.80834 0)
(-1.24512 -9.81102 0)
(-1.24786 -9.81143 0)
(-1.25511 -9.81048 0)
(3.74647 -9.80848 0)
(-1.24514 -9.81089 0)
(-1.24785 -9.81125 0)
(-1.25508 -9.81045 0)
(3.74647 -9.80865 0)
(-1.24515 -9.81073 0)
(-1.24785 -9.81107 0)
(-1.25506 -9.81051 0)
(3.74647 -9.80885 0)
(-1.24515 -9.81056 0)
(-1.24785 -9.81093 0)
(-1.25505 -9.81052 0)
(3.74648 -9.80901 0)
(-1.24516 -9.81041 0)
(-1.24785 -9.81081 0)
(-1.25503 -9.81053 0)
(3.74648 -9.80911 0)
(-1.24517 -9.81029 0)
(-1.24785 -9.81077 0)
(-1.25502 -9.81054 0)
(3.74649 -9.80922 0)
(-1.24517 -9.81021 0)
(-1.24785 -9.81073 0)
(-1.255 -9.8105 0)
(3.7465 -9.80931 0)
(-1.24518 -9.81014 0)
(-1.24786 -9.81067 0)
(-1.25499 -9.81048 0)
(3.74651 -9.80939 0)
(-1.24518 -9.81009 0)
(-1.24786 -9.8106 0)
(-1.25498 -9.81044 0)
(3.74651 -9.80948 0)
(-1.24519 -9.81004 0)
(-1.24786 -9.81052 0)
(-1.25497 -9.8104 0)
(3.74652 -9.80957 0)
(-1.24519 -9.81 0)
(-1.24787 -9.81044 0)
(-1.25497 -9.81034 0)
(3.74652 -9.80964 0)
(-1.24519 -9.80999 0)
(-1.24787 -9.81037 0)
(-1.25496 -9.81028 0)
(3.74653 -9.80971 0)
(-1.2452 -9.81001 0)
(-1.24787 -9.8103 0)
(-1.25496 -9.81021 0)
(3.74653 -9.80977 0)
(-1.2452 -9.81003 0)
(-1.24787 -9.81024 0)
(-1.25495 -9.81016 0)
(3.74654 -9.80983 0)
(-1.2452 -9.81005 0)
(-1.24787 -9.81017 0)
(-1.25495 -9.8101 0)
(3.74654 -9.80989 0)
(-1.2452 -9.81007 0)
(-1.24787 -9.81009 0)
(-1.25495 -9.81004 0)
(3.74654 -9.80996 0)
(-1.2452 -9.81008 0)
(-1.24787 -9.81002 0)
(-1.25495 -9.80999 0)
(3.74654 -9.81002 0)
(-1.2452 -9.81004 0)
(-1.24787 -9.80999 0)
(-1.25495 -9.80999 0)
(3.74654 -9.81002 0)
)
;

boundaryField
{
    topWall
    {
        type            extrapolatedCalculated;
        value           nonuniform List<vector> 8((3.7479 -9.80995 0) (-1.25151 -9.80997 0) (-1.24775 -9.80996 0) (-1.24716 -9.81002 0) (-1.2452 -9.81004 0) (-1.24787 -9.80999 0) (-1.25495 -9.80999 0) (3.74654 -9.81002 0));
    }
    botWall
    {
        type            extrapolatedCalculated;
        value           nonuniform List<vector> 8((3.76814 -110.485 0) (-1.45172 -99.5202 0) (-1.27465 -98.228 0) (-1.25052 -98.0982 0) (-1.25625 -98.1189 0) (-1.24503 -98.1105 0) (-1.23724 -98.1036 0) (3.94726 -98.0997 0));
    }
    inlet
    {
        type            cyclic;
    }
    outlet
    {
        type            cyclic;
    }
    fixWall
    {
        type            empty;
    }
}


// ************************************************************************* //
