/*--------------------------------*- C++ -*----------------------------------*\
  =========                 |
  \\      /  F ield         | OpenFOAM: The Open Source CFD Toolbox
   \\    /   O peration     | Website:  https://openfoam.org
    \\  /    A nd           | Version:  dev
     \\/     M anipulation  |

   OpenFOAM for Windows 20.09 (v1)
   Built by CFD Support, www.cfdsupport.com (based on Symscape).
\*---------------------------------------------------------------------------*/
FoamFile
{
    version     2.0;
    format      ascii;
    class       volScalarField;
    location    "8";
    object      k;
}
// * * * * * * * * * * * * * * * * * * * * * * * * * * * * * * * * * * * * * //

dimensions      [0 2 -2 0 0 0 0];

internalField   nonuniform List<scalar> 
960
(
2.22045e-16
2.22045e-16
2.22045e-16
2.22045e-16
2.22045e-16
2.22045e-16
2.22045e-16
2.22045e-16
2.22045e-16
2.22045e-16
2.22045e-16
2.22045e-16
2.22045e-16
2.22045e-16
2.22045e-16
2.22045e-16
2.22045e-16
2.22045e-16
2.22045e-16
2.22045e-16
2.22045e-16
2.22045e-16
2.22045e-16
2.22045e-16
2.22045e-16
2.22045e-16
2.22045e-16
2.22045e-16
2.22045e-16
2.22045e-16
2.22045e-16
2.22045e-16
2.22045e-16
2.22045e-16
2.22045e-16
2.22045e-16
2.22045e-16
2.22045e-16
2.22045e-16
2.22045e-16
2.22045e-16
2.22045e-16
2.22045e-16
2.22045e-16
2.22045e-16
2.22045e-16
2.22045e-16
2.22045e-16
2.22045e-16
2.22045e-16
2.22045e-16
2.22045e-16
2.22045e-16
2.22045e-16
2.22045e-16
2.22045e-16
2.22045e-16
2.22045e-16
2.22045e-16
2.22045e-16
2.22045e-16
2.22045e-16
2.22045e-16
2.22045e-16
2.22045e-16
2.22045e-16
2.22045e-16
2.22045e-16
2.22045e-16
2.22045e-16
2.22045e-16
2.22045e-16
2.22045e-16
2.22045e-16
2.22045e-16
2.22045e-16
2.22045e-16
2.22045e-16
2.22045e-16
2.22045e-16
2.22045e-16
2.22045e-16
2.22045e-16
2.22045e-16
2.22045e-16
2.22045e-16
2.22045e-16
2.22045e-16
2.22045e-16
2.22045e-16
2.22045e-16
2.22045e-16
2.27548e-16
2.2738e-16
2.27259e-16
2.27516e-16
2.47943e-16
2.4773e-16
2.47581e-16
2.47908e-16
2.71972e-16
2.7171e-16
2.71532e-16
2.71936e-16
2.99848e-16
2.99533e-16
2.99323e-16
2.99813e-16
3.31829e-16
3.31455e-16
3.31211e-16
3.31796e-16
3.68217e-16
3.6778e-16
3.67501e-16
3.68191e-16
4.09362e-16
4.08855e-16
4.08539e-16
4.09346e-16
4.55668e-16
4.55085e-16
4.5473e-16
4.55666e-16
5.07581e-16
5.06914e-16
5.0652e-16
5.07598e-16
5.65605e-16
5.64846e-16
5.6441e-16
5.65646e-16
6.30305e-16
6.29446e-16
6.28967e-16
6.30377e-16
7.02319e-16
7.01351e-16
7.00827e-16
7.0243e-16
7.8236e-16
7.81272e-16
7.80702e-16
7.82518e-16
8.71229e-16
8.7001e-16
8.69393e-16
8.71444e-16
9.69824e-16
9.68462e-16
9.67798e-16
9.70108e-16
1.07915e-15
1.07764e-15
1.07692e-15
1.07952e-15
1.20035e-15
1.19866e-15
1.1979e-15
1.20082e-15
1.33469e-15
1.33282e-15
1.33201e-15
1.33527e-15
1.4836e-15
1.48153e-15
1.48067e-15
1.48433e-15
1.64871e-15
1.64643e-15
1.64551e-15
1.6496e-15
1.83183e-15
1.82933e-15
1.82835e-15
1.83292e-15
2.03503e-15
2.03229e-15
2.03125e-15
2.03635e-15
2.26065e-15
2.25765e-15
2.25655e-15
2.26224e-15
2.51132e-15
2.50806e-15
2.50689e-15
2.51324e-15
2.79002e-15
2.78651e-15
2.78525e-15
2.79234e-15
3.10017e-15
3.09638e-15
3.09503e-15
3.10297e-15
3.44564e-15
3.44157e-15
3.44012e-15
3.44902e-15
3.83088e-15
3.82652e-15
3.82495e-15
3.83495e-15
4.261e-15
4.25634e-15
4.25464e-15
4.26592e-15
4.74191e-15
4.73693e-15
4.73509e-15
4.74786e-15
5.28049e-15
5.27518e-15
5.27318e-15
5.28769e-15
5.88478e-15
5.87912e-15
5.87697e-15
5.89351e-15
6.56432e-15
6.55828e-15
6.55596e-15
6.5749e-15
7.3305e-15
7.32405e-15
7.32152e-15
7.34332e-15
8.19706e-15
8.19013e-15
8.18737e-15
8.21257e-15
9.18077e-15
9.17331e-15
9.17024e-15
9.19954e-15
1.03021e-14
1.0294e-14
1.02906e-14
1.03248e-14
2.22045e-16
2.22045e-16
2.22045e-16
2.22045e-16
2.22045e-16
2.22045e-16
2.22045e-16
2.22045e-16
2.22045e-16
2.22045e-16
2.22045e-16
2.22045e-16
2.22045e-16
2.22045e-16
2.22045e-16
2.22045e-16
2.22045e-16
2.22045e-16
2.22045e-16
2.22045e-16
2.22045e-16
2.22045e-16
2.22045e-16
2.22045e-16
2.22045e-16
2.22045e-16
2.22045e-16
2.22045e-16
2.22045e-16
2.22045e-16
2.22045e-16
2.22045e-16
2.22045e-16
2.22045e-16
2.22045e-16
2.22045e-16
2.22045e-16
2.22045e-16
2.22045e-16
2.22045e-16
2.22045e-16
2.22045e-16
2.22045e-16
2.22045e-16
2.22045e-16
2.22045e-16
2.22045e-16
2.22045e-16
2.22045e-16
2.22045e-16
2.22045e-16
2.22045e-16
2.22045e-16
2.22045e-16
2.22045e-16
2.22045e-16
2.22045e-16
2.22045e-16
2.22045e-16
2.22045e-16
2.22045e-16
2.22045e-16
2.22045e-16
2.22045e-16
2.22045e-16
2.22045e-16
2.22045e-16
2.22045e-16
2.22045e-16
2.22045e-16
2.22045e-16
2.22045e-16
2.22045e-16
2.22045e-16
2.22045e-16
2.22045e-16
2.22045e-16
2.22045e-16
2.22045e-16
2.22045e-16
2.22045e-16
2.22045e-16
2.22045e-16
2.22045e-16
2.22045e-16
2.22045e-16
2.22045e-16
2.22045e-16
2.22045e-16
2.22045e-16
2.22045e-16
2.22045e-16
2.27835e-16
2.27872e-16
2.27643e-16
2.27569e-16
2.48311e-16
2.48352e-16
2.48064e-16
2.4797e-16
2.72428e-16
2.72472e-16
2.72123e-16
2.72006e-16
3.00402e-16
3.00448e-16
3.00031e-16
2.99891e-16
3.3249e-16
3.32536e-16
3.32047e-16
3.31882e-16
3.68997e-16
3.69041e-16
3.68473e-16
3.68283e-16
4.10275e-16
4.10314e-16
4.09662e-16
4.09446e-16
4.56726e-16
4.56759e-16
4.56016e-16
4.55773e-16
5.08801e-16
5.08824e-16
5.07982e-16
5.07711e-16
5.67003e-16
5.67013e-16
5.66065e-16
5.65766e-16
6.319e-16
6.31894e-16
6.30833e-16
6.30504e-16
7.04132e-16
7.04105e-16
7.02923e-16
7.02563e-16
7.84414e-16
7.84363e-16
7.8305e-16
7.82659e-16
8.7355e-16
8.7347e-16
8.72019e-16
8.71594e-16
9.72442e-16
9.72326e-16
9.70728e-16
9.70268e-16
1.0821e-15
1.08195e-15
1.08019e-15
1.07969e-15
1.20367e-15
1.20346e-15
1.20154e-15
1.201e-15
1.33842e-15
1.33816e-15
1.33607e-15
1.33547e-15
1.48779e-15
1.48747e-15
1.4852e-15
1.48455e-15
1.65342e-15
1.65303e-15
1.65057e-15
1.64984e-15
1.83713e-15
1.83666e-15
1.834e-15
1.83319e-15
2.04099e-15
2.04043e-15
2.03757e-15
2.03665e-15
2.26736e-15
2.26671e-15
2.26364e-15
2.26258e-15
2.51889e-15
2.51813e-15
2.51484e-15
2.51361e-15
2.79858e-15
2.79771e-15
2.79419e-15
2.79273e-15
3.10985e-15
3.10886e-15
3.10511e-15
3.10337e-15
3.45663e-15
3.4555e-15
3.4515e-15
3.44942e-15
3.84337e-15
3.84209e-15
3.83783e-15
3.83532e-15
4.27524e-15
4.27378e-15
4.26925e-15
4.26622e-15
4.75818e-15
4.75654e-15
4.75171e-15
4.74804e-15
5.29913e-15
5.29729e-15
5.29213e-15
5.28768e-15
5.90621e-15
5.90416e-15
5.89863e-15
5.89323e-15
6.58904e-15
6.58679e-15
6.58081e-15
6.57425e-15
7.35909e-15
7.35666e-15
7.35014e-15
7.34217e-15
8.23022e-15
8.22765e-15
8.22045e-15
8.21079e-15
9.21934e-15
9.21674e-15
9.20865e-15
9.19696e-15
1.03472e-14
1.03446e-14
1.03353e-14
1.03212e-14
1.1566e-14
1.15577e-14
1.15542e-14
1.15942e-14
1.26987e-14
1.26945e-14
1.26968e-14
1.27391e-14
1.33932e-14
1.33969e-14
1.34094e-14
1.34483e-14
1.36449e-14
1.36536e-14
1.36722e-14
1.37056e-14
1.3539e-14
1.35499e-14
1.35708e-14
1.35984e-14
1.31711e-14
1.31821e-14
1.32029e-14
1.3225e-14
1.26273e-14
1.2637e-14
1.2656e-14
1.26733e-14
1.19745e-14
1.19824e-14
1.19988e-14
1.20124e-14
1.12611e-14
1.1267e-14
1.12805e-14
1.12911e-14
1.05195e-14
1.05236e-14
1.05343e-14
1.05425e-14
9.77162e-15
9.77381e-15
9.78193e-15
9.78856e-15
9.03205e-15
9.03246e-15
9.03841e-15
9.0439e-15
8.31109e-15
8.30971e-15
8.31407e-15
8.31879e-15
7.61591e-15
7.61275e-15
7.61612e-15
7.62025e-15
6.9514e-15
6.94643e-15
6.94937e-15
6.95304e-15
6.32062e-15
6.31378e-15
6.31681e-15
6.32012e-15
5.72562e-15
5.71679e-15
5.72045e-15
5.72349e-15
5.16753e-15
5.159e-15
5.16128e-15
5.16417e-15
4.64968e-15
4.64208e-15
4.64299e-15
4.64561e-15
4.17346e-15
4.16691e-15
4.16679e-15
4.16905e-15
3.73851e-15
3.73302e-15
3.73209e-15
3.73397e-15
3.34322e-15
3.33875e-15
3.33715e-15
3.33865e-15
2.9852e-15
2.9817e-15
2.97959e-15
2.98073e-15
2.66177e-15
2.65913e-15
2.65667e-15
2.6575e-15
2.37016e-15
2.36824e-15
2.36558e-15
2.36614e-15
2.10761e-15
2.10627e-15
2.10354e-15
2.10385e-15
1.87149e-15
1.8706e-15
1.8679e-15
1.86796e-15
1.65935e-15
1.6588e-15
1.6562e-15
1.65597e-15
1.46893e-15
1.46862e-15
1.46618e-15
1.46563e-15
1.29817e-15
1.29805e-15
1.29578e-15
1.29484e-15
1.1452e-15
1.14522e-15
1.14315e-15
1.14238e-15
1.00836e-15
1.00849e-15
1.00662e-15
1.00598e-15
8.86109e-16
8.86351e-16
8.84669e-16
8.84147e-16
7.77098e-16
7.77455e-16
7.75955e-16
7.7552e-16
6.80097e-16
6.80592e-16
6.79258e-16
6.78891e-16
5.94003e-16
5.94673e-16
5.93484e-16
5.93169e-16
5.18121e-16
5.18704e-16
5.17652e-16
5.17379e-16
4.51327e-16
4.5181e-16
4.50886e-16
4.50649e-16
3.92803e-16
3.93206e-16
3.92405e-16
3.92199e-16
3.41859e-16
3.42199e-16
3.41518e-16
3.41338e-16
2.97894e-16
2.98186e-16
2.9762e-16
2.97461e-16
2.60391e-16
2.60647e-16
2.6019e-16
2.60044e-16
2.28918e-16
2.29148e-16
2.28796e-16
2.28655e-16
2.22045e-16
2.22045e-16
2.22045e-16
2.22045e-16
2.22045e-16
2.22045e-16
2.22045e-16
2.22045e-16
2.22045e-16
2.22045e-16
2.22045e-16
2.22045e-16
2.22045e-16
2.22045e-16
2.22045e-16
2.22045e-16
2.22045e-16
2.22045e-16
2.22045e-16
2.22045e-16
2.22045e-16
2.22045e-16
2.22045e-16
2.22045e-16
2.22045e-16
2.22045e-16
2.22045e-16
2.22045e-16
2.22045e-16
2.22045e-16
2.22045e-16
2.22045e-16
2.22045e-16
2.22045e-16
2.22045e-16
2.22045e-16
2.22045e-16
2.22045e-16
2.22045e-16
2.22045e-16
2.22045e-16
2.22045e-16
2.22045e-16
2.22045e-16
2.22045e-16
2.22045e-16
2.22045e-16
2.22045e-16
2.22045e-16
2.22045e-16
2.22045e-16
2.22045e-16
2.22045e-16
2.22045e-16
2.22045e-16
2.22045e-16
2.22045e-16
2.22045e-16
2.22045e-16
2.22045e-16
2.22045e-16
2.22045e-16
2.22045e-16
2.22045e-16
2.22045e-16
2.22045e-16
2.22045e-16
2.22045e-16
1.16192e-14
1.16164e-14
1.16058e-14
1.1589e-14
1.27603e-14
1.27503e-14
1.27442e-14
1.27256e-14
1.34592e-14
1.34361e-14
1.34395e-14
1.34225e-14
1.37088e-14
1.36774e-14
1.3686e-14
1.36742e-14
1.35971e-14
1.35618e-14
1.35723e-14
1.35663e-14
1.32215e-14
1.31857e-14
1.31959e-14
1.31953e-14
1.26695e-14
1.26354e-14
1.26443e-14
1.26475e-14
1.20093e-14
1.19779e-14
1.1985e-14
1.19909e-14
1.12892e-14
1.1261e-14
1.12665e-14
1.12737e-14
1.0542e-14
1.05173e-14
1.05213e-14
1.05289e-14
9.78926e-15
9.76791e-15
9.7708e-15
9.77816e-15
9.04567e-15
9.0274e-15
9.02935e-15
9.03616e-15
8.32128e-15
8.30584e-15
8.30692e-15
8.31303e-15
7.62313e-15
7.6103e-15
7.61055e-15
7.61588e-15
6.95608e-15
6.94563e-15
6.94509e-15
6.94961e-15
6.32314e-15
6.31484e-15
6.31358e-15
6.31736e-15
5.7264e-15
5.72001e-15
5.71807e-15
5.72121e-15
5.16695e-15
5.16227e-15
5.15963e-15
5.16229e-15
4.64837e-15
4.64511e-15
4.64186e-15
4.64416e-15
4.17182e-15
4.16966e-15
4.16603e-15
4.16806e-15
3.73671e-15
3.73541e-15
3.73159e-15
3.73345e-15
3.34131e-15
3.34064e-15
3.33677e-15
3.3386e-15
2.98327e-15
2.98306e-15
2.97915e-15
2.98108e-15
2.65986e-15
2.65998e-15
2.65593e-15
2.65817e-15
2.3683e-15
2.36871e-15
2.36425e-15
2.36707e-15
2.10578e-15
2.10646e-15
2.10307e-15
2.10496e-15
1.86973e-15
1.8706e-15
1.86806e-15
1.86923e-15
1.65773e-15
1.65868e-15
1.65681e-15
1.65743e-15
1.46747e-15
1.46845e-15
1.46707e-15
1.46731e-15
1.2969e-15
1.29785e-15
1.29685e-15
1.29681e-15
1.14412e-15
1.14503e-15
1.14431e-15
1.14409e-15
1.00744e-15
1.00831e-15
1.00779e-15
1.00747e-15
8.85364e-16
8.86187e-16
8.85817e-16
8.85428e-16
7.7653e-16
7.77298e-16
7.77038e-16
7.76626e-16
6.79721e-16
6.80429e-16
6.80251e-16
6.79843e-16
5.93846e-16
5.9449e-16
5.94373e-16
5.93987e-16
5.17928e-16
5.1851e-16
5.18432e-16
5.1808e-16
4.51092e-16
4.5161e-16
4.51558e-16
4.51245e-16
3.92556e-16
3.93011e-16
3.92974e-16
3.92697e-16
3.41627e-16
3.4202e-16
3.41988e-16
3.41745e-16
2.97694e-16
2.98026e-16
2.97995e-16
2.97783e-16
2.60231e-16
2.60506e-16
2.60473e-16
2.60294e-16
2.28805e-16
2.29025e-16
2.28989e-16
2.28845e-16
2.22045e-16
2.22045e-16
2.22045e-16
2.22045e-16
2.22045e-16
2.22045e-16
2.22045e-16
2.22045e-16
2.22045e-16
2.22045e-16
2.22045e-16
2.22045e-16
2.22045e-16
2.22045e-16
2.22045e-16
2.22045e-16
2.22045e-16
2.22045e-16
2.22045e-16
2.22045e-16
2.22045e-16
2.22045e-16
2.22045e-16
2.22045e-16
2.22045e-16
2.22045e-16
2.22045e-16
2.22045e-16
2.22045e-16
2.22045e-16
2.22045e-16
2.22045e-16
2.22045e-16
2.22045e-16
2.22045e-16
2.22045e-16
2.22045e-16
2.22045e-16
2.22045e-16
2.22045e-16
2.22045e-16
2.22045e-16
2.22045e-16
2.22045e-16
2.22045e-16
2.22045e-16
2.22045e-16
2.22045e-16
2.22045e-16
2.22045e-16
2.22045e-16
2.22045e-16
2.22045e-16
2.22045e-16
2.22045e-16
2.22045e-16
2.22045e-16
2.22045e-16
2.22045e-16
2.22045e-16
2.22045e-16
2.22045e-16
2.22045e-16
2.22045e-16
2.22045e-16
2.22045e-16
2.22045e-16
2.22045e-16
)
;

boundaryField
{
    topWall
    {
        type            kqRWallFunction;
        value           uniform 2.22045e-16;
    }
    botWall
    {
        type            kqRWallFunction;
        value           uniform 2.22045e-16;
    }
    inlet
    {
        type            cyclic;
    }
    outlet
    {
        type            cyclic;
    }
    fixWall
    {
        type            empty;
    }
}


// ************************************************************************* //
