/*--------------------------------*- C++ -*----------------------------------*\
  =========                 |
  \\      /  F ield         | OpenFOAM: The Open Source CFD Toolbox
   \\    /   O peration     | Website:  https://openfoam.org
    \\  /    A nd           | Version:  dev
     \\/     M anipulation  |

   OpenFOAM for Windows 20.09 (v1)
   Built by CFD Support, www.cfdsupport.com (based on Symscape).
\*---------------------------------------------------------------------------*/
FoamFile
{
    version     2.0;
    format      ascii;
    class       volScalarField;
    location    "8";
    object      nut;
}
// * * * * * * * * * * * * * * * * * * * * * * * * * * * * * * * * * * * * * //

dimensions      [0 2 -1 0 0 0 0];

internalField   nonuniform List<scalar> 
960
(
2.5539e-21
2.5539e-21
2.5539e-21
2.5539e-21
1.48091e-20
1.48091e-20
1.48091e-20
1.48091e-20
4.35172e-20
4.35171e-20
4.3517e-20
4.35171e-20
9.26007e-20
9.26006e-20
9.26003e-20
9.26004e-20
1.64174e-19
1.64174e-19
1.64173e-19
1.64173e-19
2.58167e-19
2.58168e-19
2.58166e-19
2.58166e-19
3.7462e-19
3.74623e-19
3.74619e-19
3.74618e-19
5.13564e-19
5.13568e-19
5.13563e-19
5.1356e-19
6.75011e-19
6.75016e-19
6.75009e-19
6.75004e-19
8.5896e-19
8.58964e-19
8.58954e-19
8.58945e-19
1.06539e-18
1.06539e-18
1.06538e-18
1.06537e-18
1.29427e-18
1.29426e-18
1.29425e-18
1.29423e-18
1.54553e-18
1.54551e-18
1.54549e-18
1.54546e-18
1.81906e-18
1.81903e-18
1.81901e-18
1.81896e-18
2.1147e-18
2.11465e-18
2.11464e-18
2.11457e-18
2.43226e-18
2.43218e-18
2.43218e-18
2.43209e-18
2.7714e-18
2.77131e-18
2.7713e-18
2.77119e-18
3.13169e-18
3.13156e-18
3.13155e-18
3.13143e-18
3.51253e-18
3.51238e-18
3.51237e-18
3.51223e-18
3.91319e-18
3.91301e-18
3.91299e-18
3.91284e-18
4.33269e-18
4.33248e-18
4.33246e-18
4.3323e-18
4.76984e-18
4.76962e-18
4.7696e-18
4.76942e-18
5.22319e-18
5.22295e-18
5.22293e-18
5.22273e-18
5.83201e-18
5.82747e-18
5.82436e-18
5.83072e-18
6.89088e-18
6.88473e-18
6.88056e-18
6.8894e-18
8.15899e-18
8.15094e-18
8.14555e-18
8.15739e-18
9.66677e-18
9.6565e-18
9.64971e-18
9.66514e-18
1.1447e-17
1.14342e-17
1.14258e-17
1.14455e-17
1.35348e-17
1.3519e-17
1.35089e-17
1.35336e-17
1.5967e-17
1.5948e-17
1.59358e-17
1.59665e-17
1.87992e-17
1.87763e-17
1.8762e-17
1.87997e-17
2.20717e-17
2.20442e-17
2.20275e-17
2.20735e-17
2.58212e-17
2.57887e-17
2.57695e-17
2.58249e-17
3.00914e-17
3.00532e-17
3.00313e-17
3.00976e-17
3.49251e-17
3.48806e-17
3.48561e-17
3.49346e-17
4.03639e-17
4.03125e-17
4.02852e-17
4.03775e-17
4.64468e-17
4.63877e-17
4.63577e-17
4.64654e-17
5.32089e-17
5.31415e-17
5.31089e-17
5.32335e-17
6.06802e-17
6.06037e-17
6.05686e-17
6.07117e-17
6.88841e-17
6.87977e-17
6.87602e-17
6.89234e-17
7.78355e-17
7.77384e-17
7.76986e-17
7.78833e-17
8.75391e-17
8.74305e-17
8.73887e-17
8.7596e-17
9.79879e-17
9.78668e-17
9.7823e-17
9.80541e-17
1.09161e-16
1.09026e-16
1.08981e-16
1.09236e-16
1.2102e-16
1.20872e-16
1.20825e-16
1.21105e-16
1.33495e-16
1.33333e-16
1.33281e-16
1.33583e-16
1.46579e-16
1.46402e-16
1.46345e-16
1.46666e-16
1.60105e-16
1.59914e-16
1.59852e-16
1.60189e-16
1.73939e-16
1.73733e-16
1.73665e-16
1.74015e-16
1.87922e-16
1.87704e-16
1.87627e-16
1.87986e-16
2.0188e-16
2.01652e-16
2.01564e-16
2.01929e-16
2.15629e-16
2.15392e-16
2.15294e-16
2.15658e-16
2.2898e-16
2.28737e-16
2.28629e-16
2.28986e-16
2.41751e-16
2.41504e-16
2.41388e-16
2.41734e-16
2.53771e-16
2.53524e-16
2.53401e-16
2.53732e-16
2.64891e-16
2.6465e-16
2.64523e-16
2.64835e-16
2.74992e-16
2.74759e-16
2.74633e-16
2.74927e-16
2.83986e-16
2.83769e-16
2.83647e-16
2.83926e-16
2.91821e-16
2.91627e-16
2.91513e-16
2.91782e-16
2.98477e-16
2.98312e-16
2.98214e-16
2.98482e-16
2.5539e-21
2.5539e-21
2.5539e-21
2.5539e-21
1.48091e-20
1.48091e-20
1.48091e-20
1.48091e-20
4.3517e-20
4.35171e-20
4.35171e-20
4.3517e-20
9.26003e-20
9.26003e-20
9.26003e-20
9.26003e-20
1.64173e-19
1.64174e-19
1.64173e-19
1.64174e-19
2.58166e-19
2.58167e-19
2.58166e-19
2.58168e-19
3.74619e-19
3.74622e-19
3.74619e-19
3.74622e-19
5.13564e-19
5.13569e-19
5.13562e-19
5.13569e-19
6.75011e-19
6.75021e-19
6.75009e-19
6.75019e-19
8.58958e-19
8.58976e-19
8.58957e-19
8.58971e-19
1.06539e-18
1.06542e-18
1.06539e-18
1.06541e-18
1.29426e-18
1.29431e-18
1.29426e-18
1.29429e-18
1.5455e-18
1.54558e-18
1.54552e-18
1.54555e-18
1.81902e-18
1.81913e-18
1.81905e-18
1.81908e-18
2.11464e-18
2.1148e-18
2.1147e-18
2.11472e-18
2.43218e-18
2.4324e-18
2.43227e-18
2.43228e-18
2.7713e-18
2.77158e-18
2.77142e-18
2.77142e-18
3.13156e-18
3.13191e-18
3.13171e-18
3.13171e-18
3.51238e-18
3.51281e-18
3.51256e-18
3.51256e-18
3.913e-18
3.91353e-18
3.91323e-18
3.91321e-18
4.33248e-18
4.3331e-18
4.33276e-18
4.33272e-18
4.76961e-18
4.77034e-18
4.76995e-18
4.76988e-18
5.22294e-18
5.22377e-18
5.22333e-18
5.22323e-18
5.83912e-18
5.84103e-18
5.83466e-18
5.83263e-18
6.90082e-18
6.90313e-18
6.89456e-18
6.89172e-18
8.17239e-18
8.17512e-18
8.16396e-18
8.16016e-18
9.68437e-18
9.68752e-18
9.67332e-18
9.66838e-18
1.14697e-17
1.14732e-17
1.14555e-17
1.14492e-17
1.35634e-17
1.35674e-17
1.35456e-17
1.35378e-17
1.60028e-17
1.6007e-17
1.59806e-17
1.59712e-17
1.88434e-17
1.88478e-17
1.88161e-17
1.88048e-17
2.21258e-17
2.21301e-17
2.20922e-17
2.20791e-17
2.58868e-17
2.58909e-17
2.58461e-17
2.58309e-17
3.01702e-17
3.01738e-17
3.01214e-17
3.0104e-17
3.50191e-17
3.5022e-17
3.49611e-17
3.49414e-17
4.04753e-17
4.0477e-17
4.04069e-17
4.03847e-17
4.65777e-17
4.65778e-17
4.64978e-17
4.64731e-17
5.33617e-17
5.33599e-17
5.32692e-17
5.32417e-17
6.08573e-17
6.08531e-17
6.07511e-17
6.07208e-17
6.9088e-17
6.90808e-17
6.89669e-17
6.89337e-17
7.80686e-17
7.80578e-17
7.79317e-17
7.78954e-17
8.78037e-17
8.77888e-17
8.76503e-17
8.76106e-17
9.82859e-17
9.82664e-17
9.81153e-17
9.8072e-17
1.09494e-16
1.09469e-16
1.09306e-16
1.09258e-16
1.2139e-16
1.2136e-16
1.21184e-16
1.21133e-16
1.33897e-16
1.33861e-16
1.33676e-16
1.3362e-16
1.47011e-16
1.46969e-16
1.46776e-16
1.46716e-16
1.60565e-16
1.60517e-16
1.60319e-16
1.60254e-16
1.74423e-16
1.74368e-16
1.74167e-16
1.74098e-16
1.88425e-16
1.88364e-16
1.88163e-16
1.8809e-16
2.02397e-16
2.02329e-16
2.02131e-16
2.02057e-16
2.16153e-16
2.16079e-16
2.15885e-16
2.15812e-16
2.29505e-16
2.29422e-16
2.29238e-16
2.2917e-16
2.42269e-16
2.42175e-16
2.42004e-16
2.41946e-16
2.54274e-16
2.54168e-16
2.54014e-16
2.5397e-16
2.65374e-16
2.65253e-16
2.65119e-16
2.65096e-16
2.75454e-16
2.75309e-16
2.75199e-16
2.75202e-16
2.84429e-16
2.84251e-16
2.84167e-16
2.84201e-16
2.92249e-16
2.92031e-16
2.91971e-16
2.9204e-16
2.98902e-16
2.98632e-16
2.98594e-16
2.98699e-16
1.89439e-16
1.91694e-16
1.94527e-16
1.93698e-16
1.3374e-16
1.34466e-16
1.35312e-16
1.35344e-16
1.47415e-16
1.47234e-16
1.46893e-16
1.47585e-16
1.60842e-16
1.60834e-16
1.60662e-16
1.61266e-16
1.66811e-16
1.66905e-16
1.66857e-16
1.6735e-16
1.68374e-16
1.68468e-16
1.68483e-16
1.68981e-16
1.68604e-16
1.68643e-16
1.68683e-16
1.69218e-16
1.69822e-16
1.69786e-16
1.69824e-16
1.7043e-16
1.73356e-16
1.73181e-16
1.73227e-16
1.73956e-16
1.79486e-16
1.79131e-16
1.79219e-16
1.80039e-16
1.87668e-16
1.87197e-16
1.87384e-16
1.88186e-16
1.97101e-16
1.9663e-16
1.9701e-16
1.97699e-16
2.07232e-16
2.06906e-16
2.07398e-16
2.07875e-16
2.17929e-16
2.17825e-16
2.18261e-16
2.18565e-16
2.29205e-16
2.29425e-16
2.29746e-16
2.29911e-16
2.41094e-16
2.41812e-16
2.41947e-16
2.41946e-16
2.53671e-16
2.5512e-16
2.54949e-16
2.54618e-16
2.4414e-16
2.43393e-16
2.43397e-16
2.4355e-16
2.25437e-16
2.24802e-16
2.2476e-16
2.24894e-16
2.0612e-16
2.05594e-16
2.05518e-16
2.05634e-16
1.86663e-16
1.8624e-16
1.86139e-16
1.86235e-16
1.67489e-16
1.67159e-16
1.67039e-16
1.67116e-16
1.48954e-16
1.48706e-16
1.48573e-16
1.48633e-16
1.31344e-16
1.31165e-16
1.31025e-16
1.3107e-16
1.14871e-16
1.14748e-16
1.14606e-16
1.14637e-16
9.96763e-17
9.95961e-17
9.94576e-17
9.94773e-17
8.58398e-17
8.57903e-17
8.56586e-17
8.5666e-17
7.33837e-17
7.33564e-17
7.3234e-17
7.32285e-17
6.22889e-17
6.22772e-17
6.21658e-17
6.21465e-17
5.25036e-17
5.25023e-17
5.24033e-17
5.23688e-17
4.39514e-17
4.39567e-17
4.38698e-17
4.38429e-17
3.65405e-17
3.65501e-17
3.64749e-17
3.64538e-17
3.01727e-17
3.01854e-17
3.01213e-17
3.01048e-17
2.47449e-17
2.47603e-17
2.47064e-17
2.46935e-17
2.01552e-17
2.01731e-17
2.01284e-17
2.01182e-17
1.63048e-17
1.63259e-17
1.6289e-17
1.62809e-17
1.31082e-17
1.31252e-17
1.30951e-17
1.30886e-17
1.04716e-17
1.04846e-17
1.04604e-17
1.04552e-17
8.31498e-18
8.32477e-18
8.30574e-18
8.30163e-18
6.56675e-18
6.57415e-18
6.55948e-18
6.55622e-18
5.16303e-18
5.16862e-18
5.15761e-18
5.15501e-18
4.04727e-18
4.05153e-18
4.04354e-18
4.04142e-18
3.16997e-18
3.17326e-18
3.16772e-18
3.16593e-18
2.71977e-18
2.71979e-18
2.71924e-18
2.71941e-18
2.38667e-18
2.38664e-18
2.38618e-18
2.38636e-18
2.07388e-18
2.07382e-18
2.07347e-18
2.07363e-18
1.78357e-18
1.78351e-18
1.78324e-18
1.78338e-18
1.5162e-18
1.51614e-18
1.51596e-18
1.51607e-18
1.27127e-18
1.27122e-18
1.2711e-18
1.27118e-18
1.04837e-18
1.04833e-18
1.04825e-18
1.04831e-18
8.47164e-19
8.47143e-19
8.47098e-19
8.47135e-19
6.67465e-19
6.67454e-19
6.6743e-19
6.67449e-19
5.09189e-19
5.09183e-19
5.09171e-19
5.0918e-19
3.72382e-19
3.72379e-19
3.72374e-19
3.72378e-19
2.57196e-19
2.57195e-19
2.57193e-19
2.57193e-19
1.63836e-19
1.63836e-19
1.63835e-19
1.63835e-19
9.25136e-20
9.25134e-20
9.25133e-20
9.25132e-20
4.3504e-20
4.3504e-20
4.3504e-20
4.35039e-20
1.48084e-20
1.48084e-20
1.48084e-20
1.48084e-20
2.5539e-21
2.5539e-21
2.5539e-21
2.5539e-21
1.91004e-16
1.87577e-16
1.89978e-16
1.90333e-16
1.34633e-16
1.33507e-16
1.34137e-16
1.34297e-16
1.48215e-16
1.48523e-16
1.47911e-16
1.4802e-16
1.61771e-16
1.61863e-16
1.61485e-16
1.61538e-16
1.67796e-16
1.67743e-16
1.67502e-16
1.67501e-16
1.69406e-16
1.69259e-16
1.69118e-16
1.68987e-16
1.69578e-16
1.69392e-16
1.693e-16
1.69083e-16
1.70703e-16
1.70574e-16
1.70483e-16
1.70119e-16
1.74148e-16
1.74085e-16
1.73921e-16
1.73454e-16
1.80119e-16
1.80065e-16
1.7982e-16
1.79391e-16
1.88124e-16
1.88084e-16
1.8773e-16
1.87396e-16
1.9745e-16
1.97428e-16
1.96916e-16
1.96628e-16
2.07549e-16
2.07562e-16
2.0701e-16
2.06687e-16
2.1839e-16
2.18334e-16
2.17896e-16
2.17513e-16
2.29932e-16
2.29648e-16
2.29445e-16
2.29031e-16
2.42337e-16
2.41703e-16
2.41755e-16
2.41281e-16
2.556e-16
2.5446e-16
2.54961e-16
2.54462e-16
2.43722e-16
2.43572e-16
2.4342e-16
2.43457e-16
2.25056e-16
2.2494e-16
2.24789e-16
2.24842e-16
2.05788e-16
2.05701e-16
2.05564e-16
2.05612e-16
1.86383e-16
1.86329e-16
1.86191e-16
1.8624e-16
1.67259e-16
1.67233e-16
1.67089e-16
1.67143e-16
1.48769e-16
1.48765e-16
1.48613e-16
1.48677e-16
1.31198e-16
1.31209e-16
1.31043e-16
1.31126e-16
1.14755e-16
1.1478e-16
1.14589e-16
1.14703e-16
9.95837e-17
9.96185e-17
9.94758e-17
9.95463e-17
8.57637e-17
8.5805e-17
8.57001e-17
8.57392e-17
7.33225e-17
7.33649e-17
7.32891e-17
7.33059e-17
6.22406e-17
6.22813e-17
6.22273e-17
6.22287e-17
5.24669e-17
5.25039e-17
5.24658e-17
5.24573e-17
4.39227e-17
4.39567e-17
4.393e-17
4.39151e-17
3.6518e-17
3.65491e-17
3.65304e-17
3.65122e-17
3.01559e-17
3.01838e-17
3.01708e-17
3.01515e-17
2.47337e-17
2.47582e-17
2.47493e-17
2.47305e-17
2.01495e-17
2.01706e-17
2.01645e-17
2.01473e-17
1.63048e-17
1.63226e-17
1.63186e-17
1.63036e-17
1.31067e-17
1.31215e-17
1.3119e-17
1.31062e-17
1.04687e-17
1.04808e-17
1.04792e-17
1.04687e-17
8.31144e-18
8.32121e-18
8.32018e-18
8.31181e-18
6.56332e-18
6.571e-18
6.5703e-18
6.56373e-18
5.16007e-18
5.16597e-18
5.16544e-18
5.16039e-18
4.04498e-18
4.04939e-18
4.04892e-18
4.04515e-18
3.16838e-18
3.17157e-18
3.17115e-18
3.16843e-18
2.71965e-18
2.71977e-18
2.71984e-18
2.71928e-18
2.3865e-18
2.38661e-18
2.38666e-18
2.38622e-18
2.07369e-18
2.07379e-18
2.07383e-18
2.07349e-18
1.7834e-18
1.78349e-18
1.78352e-18
1.78326e-18
1.51607e-18
1.51613e-18
1.51616e-18
1.51596e-18
1.27117e-18
1.27121e-18
1.27124e-18
1.27109e-18
1.04829e-18
1.04832e-18
1.04834e-18
1.04824e-18
8.47117e-19
8.47137e-19
8.4715e-19
8.47082e-19
6.67436e-19
6.6745e-19
6.67458e-19
6.67416e-19
5.09172e-19
5.09182e-19
5.09186e-19
5.09161e-19
3.72373e-19
3.7238e-19
3.72382e-19
3.72368e-19
2.57192e-19
2.57196e-19
2.57196e-19
2.57189e-19
1.63834e-19
1.63836e-19
1.63836e-19
1.63834e-19
9.25131e-20
9.25138e-20
9.25137e-20
9.2513e-20
4.35039e-20
4.3504e-20
4.3504e-20
4.35039e-20
1.48084e-20
1.48084e-20
1.48084e-20
1.48084e-20
2.5539e-21
2.5539e-21
2.5539e-21
2.5539e-21
)
;

boundaryField
{
    topWall
    {
        type            nutkWallFunction;
        Cmu             0.09;
        kappa           0.41;
        E               9.8;
        value           uniform 0;
    }
    botWall
    {
        type            nutkWallFunction;
        Cmu             0.09;
        kappa           0.41;
        E               9.8;
        value           uniform 0;
    }
    inlet
    {
        type            cyclic;
    }
    outlet
    {
        type            cyclic;
    }
    fixWall
    {
        type            empty;
    }
}


// ************************************************************************* //
