/*--------------------------------*- C++ -*----------------------------------*\
  =========                 |
  \\      /  F ield         | OpenFOAM: The Open Source CFD Toolbox
   \\    /   O peration     | Website:  https://openfoam.org
    \\  /    A nd           | Version:  dev
     \\/     M anipulation  |

   OpenFOAM for Windows 20.09 (v1)
   Built by CFD Support, www.cfdsupport.com (based on Symscape).
\*---------------------------------------------------------------------------*/
FoamFile
{
    version     2.0;
    format      ascii;
    class       volScalarField;
    location    "8";
    object      omega;
}
// * * * * * * * * * * * * * * * * * * * * * * * * * * * * * * * * * * * * * //

dimensions      [0 0 -1 0 0 0 0];

internalField   nonuniform List<scalar> 
960
(
86943.4
86943.4
86943.4
86943.4
14993.8
14993.8
14993.8
14993.8
5102.45
5102.47
5102.47
5102.47
2397.87
2397.87
2397.88
2397.88
1352.5
1352.49
1352.5
1352.5
860.083
860.078
860.084
860.084
592.72
592.715
592.721
592.722
432.36
432.357
432.361
432.363
328.949
328.947
328.951
328.953
258.504
258.503
258.506
258.509
208.416
208.416
208.418
208.421
171.56
171.56
171.563
171.566
143.669
143.671
143.672
143.675
122.066
122.068
122.069
122.072
105.001
105.003
105.003
105.007
91.2915
91.2943
91.2944
91.2978
80.1199
80.1227
80.123
80.126
70.9025
70.9053
70.9056
70.9083
63.2149
63.2177
63.2179
63.2203
56.7427
56.7452
56.7455
56.7477
51.2487
51.2511
51.2513
51.2533
46.5518
46.554
46.5542
46.5559
42.5113
42.5132
42.5134
42.515
39.017
39.0186
39.0188
39.0202
35.9814
35.9825
35.9827
35.984
33.3341
33.3349
33.335
33.3362
31.0185
31.0188
31.0188
31.02
28.9882
28.9881
28.988
28.9892
27.2052
27.2046
27.2044
27.2056
25.638
25.6368
25.6365
25.6378
24.2386
24.2372
24.2368
24.2379
22.997
22.9953
22.9949
22.9958
21.9047
21.9028
21.9023
21.9031
20.9464
20.9444
20.9437
20.9444
20.1093
20.1072
20.1063
20.107
19.3827
19.3804
19.3794
19.38
18.7576
18.7552
18.754
18.7547
18.2267
18.2242
18.2229
18.2237
17.7843
17.7817
17.7802
17.7811
17.4256
17.423
17.4214
17.4225
17.1476
17.1449
17.1432
17.1445
16.9479
16.9453
16.9435
16.9451
16.8257
16.8232
16.8213
16.8234
16.7811
16.7787
16.7769
16.7794
16.8156
16.8135
16.8116
16.8148
16.9344
16.9325
16.9308
16.9352
17.1329
17.1314
17.13
17.1358
17.4262
17.425
17.4239
17.4316
17.8234
17.8226
17.8219
17.8316
18.3355
18.3351
18.3349
18.3472
18.976
18.9759
18.9763
18.9916
19.7608
19.7609
19.762
19.781
20.7088
20.7091
20.7108
20.7342
21.8427
21.843
21.8453
21.874
23.1894
23.1896
23.1924
23.2273
24.7812
24.781
24.7841
24.8264
26.6571
26.6563
26.6593
26.7101
28.8643
28.8619
28.8647
28.9251
31.4603
31.4556
31.4574
31.5288
34.5154
34.5076
34.5075
34.5911
86943.4
86943.4
86943.4
86943.4
14993.8
14993.8
14993.8
14993.8
5102.48
5102.47
5102.47
5102.48
2397.88
2397.88
2397.88
2397.88
1352.5
1352.5
1352.5
1352.5
860.084
860.081
860.084
860.079
592.721
592.717
592.721
592.716
432.361
432.356
432.361
432.356
328.95
328.945
328.95
328.946
258.505
258.499
258.505
258.501
208.417
208.411
208.417
208.413
171.561
171.555
171.561
171.557
143.671
143.664
143.67
143.667
122.068
122.061
122.066
122.064
105.004
104.995
105
105
91.2946
91.2863
91.2912
91.2909
80.123
80.1148
80.1196
80.1193
70.9055
70.8975
70.9021
70.902
63.2178
63.2099
63.2144
63.2145
56.7453
56.7377
56.742
56.7423
51.2512
51.2438
51.2479
51.2483
46.554
46.5469
46.5508
46.5514
42.5133
42.5065
42.5101
42.5109
39.0188
39.0123
39.0156
39.0166
35.9828
35.9767
35.9797
35.9808
33.3352
33.3295
33.3322
33.3334
31.0192
31.0139
31.0163
31.0177
28.9886
28.9836
28.9858
28.9872
27.2053
27.2007
27.2025
27.204
25.6377
25.6334
25.6349
25.6366
24.2379
24.2341
24.2354
24.237
22.9959
22.9924
22.9937
22.9951
21.9031
21.9001
21.9013
21.9026
20.9445
20.9418
20.943
20.9442
20.107
20.1047
20.1058
20.1069
19.3801
19.378
19.3791
19.3801
18.7547
18.7529
18.754
18.7548
18.2236
18.2221
18.2231
18.2238
17.781
17.7796
17.7806
17.7812
17.4222
17.4211
17.422
17.4225
17.1441
17.1432
17.1441
17.1444
16.9445
16.9437
16.9446
16.9448
16.8225
16.8219
16.8227
16.8228
16.7784
16.7779
16.7786
16.7785
16.8135
16.8131
16.8138
16.8134
16.9337
16.9333
16.9338
16.9329
17.134
17.1338
17.1339
17.1325
17.4295
17.4294
17.429
17.4269
17.8294
17.8293
17.8284
17.8255
18.3448
18.3448
18.3432
18.3392
18.9892
18.9893
18.9869
18.9814
19.7787
19.7788
19.7756
19.7682
20.7324
20.7327
20.7283
20.7185
21.873
21.8738
21.8679
21.8548
23.2277
23.2293
23.2216
23.2044
24.8293
24.8321
24.822
24.7995
26.7162
26.7215
26.7084
26.6792
28.936
28.945
28.9283
28.8908
31.5461
31.5608
31.5396
31.4921
34.6172
34.64
34.6134
34.554
38.5912
38.5805
38.5706
38.664
42.583
42.5924
42.5963
42.6833
44.676
44.7373
44.783
44.8342
45.1053
45.2015
45.2659
45.2845
44.3742
44.4904
44.559
44.5504
42.8669
42.9932
43.0572
43.0316
40.8743
41.0035
41.0601
41.0242
38.6126
38.74
38.7884
38.7478
36.2399
36.3624
36.4028
36.3619
33.8694
33.9847
34.0176
33.98
31.5799
31.6857
31.7119
31.6801
29.423
29.5175
29.538
29.5131
27.4294
27.5115
27.5275
27.5095
25.6147
25.6836
25.6965
25.6846
23.9827
24.0386
24.0489
24.0421
22.7614
22.8052
22.8166
22.8111
21.8768
21.9131
21.9234
21.9203
21.1662
21.1962
21.2052
21.2037
20.6251
20.6496
20.6575
20.6568
20.2477
20.2676
20.2745
20.2742
20.0282
20.0442
20.0501
20.0498
19.9609
19.9735
19.9783
19.978
20.0411
20.051
20.0548
20.0543
20.2656
20.2732
20.2761
20.2755
20.6332
20.6387
20.641
20.6402
21.1445
21.1481
21.1501
21.1491
21.8021
21.8043
21.8063
21.8051
22.612
22.6128
22.6152
22.6138
23.5826
23.5821
23.585
23.5834
24.7253
24.7236
24.7271
24.7253
26.0561
26.0534
26.0578
26.0562
27.5956
27.592
27.5975
27.5961
29.3679
29.3636
29.3702
29.3689
31.4043
31.3993
31.407
31.4058
33.743
33.7376
33.7462
33.745
36.4312
36.4252
36.4348
36.4335
39.5264
39.5198
39.5302
39.5289
43.1
43.0929
43.104
43.1026
47.2405
47.2332
47.245
47.2436
52.0591
52.0523
52.0648
52.0633
57.6976
57.6917
57.705
57.7032
64.3374
64.333
64.3472
64.3447
72.2147
72.2122
72.2274
72.2238
81.6411
81.6405
81.6568
81.6518
93.0353
93.0364
93.0542
93.0476
107.067
107.07
107.089
107.08
124.494
124.499
124.517
124.508
146.448
146.454
146.472
146.461
174.663
174.67
174.687
174.676
211.801
211.808
211.823
211.812
262.103
262.11
262.124
262.113
332.668
332.674
332.686
332.676
436.075
436.08
436.09
436.082
596.282
596.286
596.294
596.289
863.33
863.333
863.34
863.337
1355.29
1355.29
1355.29
1355.29
2400.13
2400.13
2400.14
2400.14
5104.01
5104.01
5104.01
5104.02
14994.5
14994.5
14994.5
14994.5
86943.4
86943.4
86943.4
86943.4
38.7061
38.7451
38.7076
38.6418
42.7128
42.7363
42.7155
42.651
44.8106
44.7773
44.8039
44.7634
45.2342
45.1683
45.2182
45.2104
44.4927
44.4115
44.4712
44.4911
42.9752
42.8901
42.9505
42.9924
40.9748
40.8924
40.9493
41.0048
38.7076
38.6312
38.6833
38.7448
36.3309
36.2622
36.3096
36.3706
33.957
33.8969
33.9396
33.9956
31.6633
31.612
31.6501
31.6988
29.5007
29.4582
29.4914
29.532
27.5
27.4661
27.4939
27.5264
25.6766
25.651
25.673
25.698
24.0352
24.0174
24.0335
24.0516
22.8063
22.7937
22.8038
22.8182
21.916
21.907
21.913
21.9236
21.2002
21.194
21.1964
21.2041
20.6543
20.6504
20.6498
20.6552
20.2724
20.2705
20.2663
20.2715
20.0485
20.0473
20.0417
20.0465
19.9769
19.976
19.97
19.9745
20.053
20.0522
20.0464
20.0507
20.2737
20.2729
20.2677
20.2718
20.6378
20.637
20.6325
20.6365
21.1458
21.1453
21.1416
21.1456
21.801
21.8006
21.7977
21.8014
22.6087
22.6087
22.6064
22.6098
23.5774
23.5777
23.576
23.5793
24.7185
24.7191
24.718
24.7213
26.0485
26.049
26.0484
26.0523
27.5876
27.5879
27.5878
27.5926
29.3595
29.3597
29.3601
29.366
31.3956
31.3955
31.3964
31.4036
33.7339
33.7337
33.735
33.7436
36.4216
36.4212
36.4229
36.433
39.5164
39.516
39.5178
39.5294
43.0898
43.0894
43.091
43.104
47.2308
47.2301
47.2314
47.2456
52.051
52.0499
52.0506
52.0656
57.6918
57.6902
57.6901
57.7056
64.3345
64.3323
64.3315
64.3472
72.215
72.2121
72.2103
72.2266
81.6447
81.6409
81.6388
81.6556
93.0421
93.0378
93.0357
93.0529
107.077
107.072
107.07
107.087
124.506
124.5
124.498
124.516
146.461
146.455
146.452
146.472
174.677
174.672
174.668
174.688
211.815
211.81
211.806
211.826
262.118
262.112
262.108
262.129
332.683
332.676
332.672
332.693
436.09
436.081
436.078
436.099
596.296
596.285
596.283
596.304
863.343
863.329
863.329
863.35
1355.3
1355.28
1355.28
1355.3
2400.14
2400.13
2400.13
2400.15
5104.02
5104
5104
5104.02
14994.5
14994.5
14994.5
14994.5
86943.4
86943.4
86943.4
86943.4
)
;

boundaryField
{
    topWall
    {
        type            omegaWallFunction;
        beta1           0.075;
        blended         0;
        value           uniform 86943.4;
    }
    botWall
    {
        type            omegaWallFunction;
        beta1           0.075;
        blended         0;
        value           uniform 86943.4;
    }
    inlet
    {
        type            cyclic;
    }
    outlet
    {
        type            cyclic;
    }
    fixWall
    {
        type            empty;
    }
}


// ************************************************************************* //
