/*--------------------------------*- C++ -*----------------------------------*\
  =========                 |
  \\      /  F ield         | OpenFOAM: The Open Source CFD Toolbox
   \\    /   O peration     | Website:  https://openfoam.org
    \\  /    A nd           | Version:  dev
     \\/     M anipulation  |

   OpenFOAM for Windows 20.09 (v1)
   Built by CFD Support, www.cfdsupport.com (based on Symscape).
\*---------------------------------------------------------------------------*/
FoamFile
{
    version     2.0;
    format      ascii;
    class       volScalarField;
    location    "8";
    object      p;
}
// * * * * * * * * * * * * * * * * * * * * * * * * * * * * * * * * * * * * * //

dimensions      [1 -1 -2 0 0 0 0];

internalField   nonuniform List<scalar> 
960
(
0
-0.0791056
-0.145172
-0.20657
-0.102356
-0.163218
-0.227135
-0.288317
-0.184108
-0.244968
-0.308885
-0.37007
-0.265861
-0.326678
-0.390634
-0.45182
-0.347616
-0.408471
-0.472387
-0.53357
-0.429377
-0.490237
-0.55414
-0.615321
-0.511132
-0.571978
-0.635889
-0.697062
-0.592887
-0.653719
-0.717638
-0.778818
-0.674641
-0.735477
-0.799387
-0.860569
-0.756384
-0.81723
-0.881136
-0.94232
-0.838147
-0.898982
-0.962885
-1.02407
-0.919902
-0.980711
-1.04461
-1.10582
-1.00166
-1.06246
-1.12636
-1.18754
-1.08341
-1.14418
-1.20809
-1.26928
-1.16503
-1.22593
-1.28984
-1.35101
-1.24651
-1.30706
-1.37073
-1.43266
-1.32847
-1.38973
-1.45411
-1.51527
-1.41021
-1.47148
-1.53586
-1.59702
-1.49196
-1.55323
-1.61761
-1.67877
-1.57372
-1.63497
-1.69936
-1.76051
-1.65547
-1.71672
-1.78112
-1.84226
-1.73722
-1.79846
-1.86287
-1.92401
-1.81897
-1.88021
-1.94462
-2.00575
-1.90072
-1.96196
-2.02636
-2.0875
-1.98248
-2.04371
-2.10812
-2.16925
-2.06423
-2.12546
-2.18987
-2.251
-2.14598
-2.2072
-2.27163
-2.33275
-2.22773
-2.28895
-2.35338
-2.4145
-2.30948
-2.3707
-2.43513
-2.49625
-2.38964
-2.45045
-2.51534
-2.57617
-2.4724
-2.53365
-2.59757
-2.65865
-2.55415
-2.6154
-2.67932
-2.74039
-2.63589
-2.69715
-2.76107
-2.82214
-2.71765
-2.77889
-2.84282
-2.90388
-2.7994
-2.86064
-2.92458
-2.98563
-2.88115
-2.94239
-3.00633
-3.06738
-2.9629
-3.02414
-3.08808
-3.14912
-3.04465
-3.10588
-3.16983
-3.23086
-3.1264
-3.18763
-3.25158
-3.31261
-3.20815
-3.26938
-3.33333
-3.39436
-3.2899
-3.35113
-3.41508
-3.4761
-3.37165
-3.43287
-3.49683
-3.55784
-3.4534
-3.51462
-3.57858
-3.63958
-3.53515
-3.59637
-3.66029
-3.72133
-3.61626
-3.67687
-3.74151
-3.80307
-3.69891
-3.76068
-3.82205
-3.88432
-3.78093
-3.84326
-3.90449
-3.96729
-3.86274
-3.92503
-3.98624
-4.04903
-3.94451
-4.00678
-4.068
-4.13077
-4.02627
-4.08853
-4.14975
-4.21252
-4.10803
-4.17027
-4.2315
-4.29426
-4.18978
-4.25202
-4.31326
-4.37601
-4.27154
-4.33375
-4.39501
-4.45775
-4.3533
-4.41551
-4.47676
-4.53949
-4.43505
-4.49725
-4.5585
-4.62124
-4.51681
-4.57899
-4.64025
-4.70298
-4.59857
-4.66073
-4.72198
-4.78468
-4.68032
-4.74245
-4.80369
-4.86641
-4.76208
-4.82419
-4.88544
-4.94816
-4.84237
-4.90462
-4.96612
-5.0288
-0.270223
-0.332195
-0.394726
-0.45592
-0.352005
-0.413963
-0.476482
-0.537669
-0.43375
-0.495705
-0.558232
-0.619415
-0.515519
-0.577464
-0.639982
-0.701165
-0.597269
-0.659233
-0.721733
-0.78292
-0.679019
-0.740984
-0.803483
-0.864671
-0.760769
-0.822734
-0.885232
-0.946421
-0.84252
-0.904485
-0.966982
-1.02817
-0.92427
-0.986235
-1.04873
-1.10992
-1.00602
-1.06799
-1.13047
-1.19165
-1.08777
-1.14973
-1.21222
-1.27341
-1.16952
-1.23148
-1.29397
-1.35516
-1.25127
-1.31323
-1.37572
-1.43687
-1.33302
-1.39499
-1.45742
-1.51861
-1.41477
-1.47555
-1.53907
-1.60035
-1.49632
-1.55771
-1.62028
-1.68196
-1.57839
-1.63947
-1.70243
-1.76461
-1.66015
-1.72122
-1.78419
-1.84637
-1.74191
-1.80298
-1.86595
-1.92813
-1.82367
-1.88473
-1.9477
-2.00988
-1.90542
-1.96648
-2.02945
-2.09163
-1.98717
-2.04823
-2.11119
-2.17338
-2.06892
-2.12999
-2.19295
-2.25514
-2.15068
-2.21174
-2.2747
-2.33689
-2.23243
-2.2935
-2.35645
-2.41864
-2.31419
-2.37525
-2.43819
-2.50039
-2.39594
-2.457
-2.51994
-2.58214
-2.47769
-2.53876
-2.6017
-2.66389
-2.55944
-2.62051
-2.68344
-2.74564
-2.64022
-2.70226
-2.76482
-2.82717
-2.72214
-2.7835
-2.84716
-2.90889
-2.8039
-2.86607
-2.92913
-2.99086
-2.88564
-2.94783
-3.01087
-3.07262
-2.96739
-3.0296
-3.09262
-3.15437
-3.04914
-3.11135
-3.17437
-3.23613
-3.1309
-3.19311
-3.25611
-3.31788
-3.21265
-3.27486
-3.33786
-3.39964
-3.2944
-3.35661
-3.4196
-3.4814
-3.37615
-3.43837
-3.50135
-3.56315
-3.45791
-3.52012
-3.58309
-3.64491
-3.53966
-3.60188
-3.66484
-3.72666
-3.62139
-3.68362
-3.74657
-3.80842
-3.70315
-3.76539
-3.82833
-3.89015
-3.7849
-3.84715
-3.91008
-3.97189
-3.86665
-3.9289
-3.99182
-4.05299
-3.94761
-4.01033
-4.07275
-4.13585
-4.03029
-4.09335
-4.15527
-4.2181
-4.11205
-4.1751
-4.23702
-4.29995
-4.1938
-4.25686
-4.31877
-4.3817
-4.27555
-4.33861
-4.40052
-4.46345
-4.3573
-4.42037
-4.48227
-4.5452
-4.43905
-4.5021
-4.56401
-4.62695
-4.52079
-4.58389
-4.64577
-4.7087
-4.60255
-4.66565
-4.72752
-4.79045
-4.6843
-4.7474
-4.80927
-4.8722
-4.76606
-4.82916
-4.89102
-4.95396
-4.84777
-4.9109
-4.97275
-5.03571
-4.92952
-4.99267
-5.05453
-5.11747
-5.01128
-5.07443
-5.13628
-5.19922
-5.09184
-5.15481
-5.21672
-5.27969
-4.88691
-4.94959
-5.01175
-5.07426
-4.89626
-4.95911
-5.02148
-5.08388
-4.90444
-4.96728
-5.02966
-5.09206
-4.91261
-4.97546
-5.03783
-5.10023
-4.92079
-4.98363
-5.04601
-5.1084
-4.92896
-4.99181
-5.05418
-5.11658
-4.93714
-4.99998
-5.06236
-5.12475
-4.94531
-5.00816
-5.07053
-5.13293
-4.95349
-5.01633
-5.07871
-5.1411
-4.96167
-5.02451
-5.08688
-5.14927
-4.96984
-5.03268
-5.09506
-5.15745
-4.97802
-5.04086
-5.10323
-5.16562
-4.98619
-5.04903
-5.11141
-5.1738
-4.99437
-5.05721
-5.11958
-5.18197
-5.00255
-5.06538
-5.12776
-5.19014
-5.01072
-5.07355
-5.13593
-5.19832
-5.0189
-5.08173
-5.14411
-5.20649
-5.02708
-5.0899
-5.15228
-5.21467
-5.03526
-5.09808
-5.16046
-5.22284
-5.04343
-5.10625
-5.16863
-5.23101
-5.05161
-5.11442
-5.17681
-5.23919
-5.05979
-5.1226
-5.18498
-5.24736
-5.06797
-5.13077
-5.19316
-5.25553
-5.07615
-5.13895
-5.20133
-5.26371
-5.08432
-5.14712
-5.20951
-5.27188
-5.0925
-5.1553
-5.21768
-5.28006
-5.10068
-5.16347
-5.22586
-5.28823
-5.10886
-5.17164
-5.23403
-5.2964
-5.11704
-5.17982
-5.24221
-5.30458
-5.12522
-5.18799
-5.25038
-5.31275
-5.13339
-5.19617
-5.25856
-5.32093
-5.14157
-5.20434
-5.26673
-5.3291
-5.14974
-5.21251
-5.27491
-5.33728
-5.15792
-5.22069
-5.28308
-5.34545
-5.16609
-5.22886
-5.29126
-5.35363
-5.17427
-5.23704
-5.29943
-5.3618
-5.18245
-5.24521
-5.3076
-5.36997
-5.19062
-5.25338
-5.31578
-5.37815
-5.1988
-5.26156
-5.32395
-5.38632
-5.20697
-5.26973
-5.33213
-5.3945
-5.21515
-5.27791
-5.3403
-5.40267
-5.22332
-5.28608
-5.34848
-5.41085
-5.2315
-5.29425
-5.35665
-5.41902
-5.23967
-5.30243
-5.36483
-5.4272
-5.24785
-5.3106
-5.373
-5.43537
-5.25602
-5.31878
-5.38118
-5.44355
-5.2642
-5.32695
-5.38935
-5.45172
-5.27237
-5.33513
-5.39753
-5.4599
-5.28055
-5.3433
-5.4057
-5.46807
-5.28872
-5.35148
-5.41387
-5.47625
-5.2969
-5.35965
-5.42205
-5.48442
-5.30507
-5.36783
-5.43022
-5.4926
-5.31324
-5.376
-5.4384
-5.50077
-5.32142
-5.38418
-5.44657
-5.50895
-5.32959
-5.39235
-5.45475
-5.51712
-5.33777
-5.40052
-5.46292
-5.5253
-5.34594
-5.4087
-5.4711
-5.53347
-5.35412
-5.41687
-5.47927
-5.54165
-5.36229
-5.42505
-5.48745
-5.54982
-5.37047
-5.43322
-5.49562
-5.558
-5.13678
-5.1992
-5.26157
-5.32459
-5.14617
-5.20834
-5.27092
-5.33396
-5.15435
-5.21652
-5.2791
-5.34213
-5.16252
-5.2247
-5.28727
-5.3503
-5.17069
-5.23287
-5.29545
-5.35848
-5.17887
-5.24105
-5.30363
-5.36665
-5.18704
-5.24923
-5.3118
-5.37483
-5.19522
-5.2574
-5.31998
-5.383
-5.2034
-5.26558
-5.32815
-5.39117
-5.21157
-5.27375
-5.33633
-5.39935
-5.21975
-5.28193
-5.3445
-5.40752
-5.22792
-5.29011
-5.35268
-5.4157
-5.2361
-5.29828
-5.36085
-5.42387
-5.24427
-5.30646
-5.36903
-5.43204
-5.25245
-5.31463
-5.3772
-5.44022
-5.26062
-5.32281
-5.38538
-5.44839
-5.2688
-5.33098
-5.39356
-5.45656
-5.27697
-5.33916
-5.40173
-5.46473
-5.28515
-5.34733
-5.40991
-5.4729
-5.29332
-5.35551
-5.41809
-5.48108
-5.3015
-5.36368
-5.42627
-5.48925
-5.30967
-5.37185
-5.43444
-5.49742
-5.31785
-5.38003
-5.44262
-5.50559
-5.32602
-5.3882
-5.4508
-5.51376
-5.3342
-5.39638
-5.45897
-5.52193
-5.34237
-5.40455
-5.46715
-5.53011
-5.35055
-5.41272
-5.47533
-5.53828
-5.35872
-5.4209
-5.4835
-5.54645
-5.3669
-5.42907
-5.49168
-5.55462
-5.37507
-5.43725
-5.49986
-5.56279
-5.38325
-5.44542
-5.50804
-5.57096
-5.39142
-5.4536
-5.51621
-5.57914
-5.3996
-5.46177
-5.52439
-5.58731
-5.40777
-5.46995
-5.53256
-5.59548
-5.41595
-5.47813
-5.54074
-5.60366
-5.42413
-5.4863
-5.54891
-5.61183
-5.4323
-5.49448
-5.55709
-5.62001
-5.44048
-5.50265
-5.56527
-5.62818
-5.44865
-5.51083
-5.57344
-5.63635
-5.45683
-5.51901
-5.58162
-5.64453
-5.46501
-5.52718
-5.58979
-5.6527
-5.47318
-5.53536
-5.59797
-5.66087
-5.48136
-5.54354
-5.60614
-5.66905
-5.48953
-5.55171
-5.61432
-5.67722
-5.49771
-5.55989
-5.62249
-5.68539
-5.50588
-5.56806
-5.63067
-5.69357
-5.51406
-5.57624
-5.63885
-5.70174
-5.52224
-5.58442
-5.64702
-5.70992
-5.53041
-5.59259
-5.6552
-5.71809
-5.53859
-5.60077
-5.66337
-5.72627
-5.54676
-5.60894
-5.67155
-5.73444
-5.55494
-5.61712
-5.67972
-5.74262
-5.56311
-5.62529
-5.6879
-5.75079
-5.57129
-5.63347
-5.69607
-5.75896
-5.57946
-5.64164
-5.70425
-5.76714
-5.58764
-5.64982
-5.71242
-5.77531
-5.59581
-5.65799
-5.7206
-5.78349
-5.60399
-5.66617
-5.72877
-5.79166
-5.61216
-5.67434
-5.73695
-5.79984
-5.62034
-5.68252
-5.74512
-5.80801
)
;

boundaryField
{
    topWall
    {
        type            calculated;
        value           nonuniform List<scalar> 8(-5.37456 -5.43731 -5.49971 -5.56209 -5.62442 -5.68661 -5.74921 -5.8121);
    }
    botWall
    {
        type            calculated;
        value           nonuniform List<scalar> 8(0.0408931 -0.0382285 -0.104297 -0.165695 -0.229349 -0.29132 -0.353851 -0.415044);
    }
    inlet
    {
        type            cyclic;
    }
    outlet
    {
        type            cyclic;
    }
    fixWall
    {
        type            empty;
    }
}


// ************************************************************************* //
