/*--------------------------------*- C++ -*----------------------------------*\
  =========                 |
  \\      /  F ield         | OpenFOAM: The Open Source CFD Toolbox
   \\    /   O peration     | Website:  https://openfoam.org
    \\  /    A nd           | Version:  dev
     \\/     M anipulation  |

   OpenFOAM for Windows 20.09 (v1)
   Built by CFD Support, www.cfdsupport.com (based on Symscape).
\*---------------------------------------------------------------------------*/
FoamFile
{
    version     2.0;
    format      ascii;
    class       volScalarField;
    location    "8";
    object      p_rgh;
}
// * * * * * * * * * * * * * * * * * * * * * * * * * * * * * * * * * * * * * //

dimensions      [1 -1 -2 0 0 0 0];

internalField   nonuniform List<scalar> 
960
(
0.0408931
-0.0382285
-0.104297
-0.165695
0.0202696
-0.0405934
-0.10451
-0.165692
0.0202668
-0.0405933
-0.10451
-0.165695
0.0202643
-0.040553
-0.104509
-0.165695
0.020259
-0.0405957
-0.104513
-0.165695
0.0202482
-0.0406119
-0.104515
-0.165696
0.0202425
-0.0406034
-0.104515
-0.165687
0.0202379
-0.0405941
-0.104514
-0.165693
0.0202328
-0.0406021
-0.104512
-0.165695
0.0202404
-0.040605
-0.104511
-0.165695
0.0202266
-0.0406076
-0.10451
-0.165695
0.0202221
-0.0405861
-0.104484
-0.165692
0.0202177
-0.040589
-0.104483
-0.165666
0.0202131
-0.040557
-0.104461
-0.165657
0.0203436
-0.0405545
-0.104451
-0.165623
0.0206146
-0.0399274
-0.103578
-0.165522
0.0204052
-0.0408572
-0.105236
-0.166394
0.0204167
-0.0408541
-0.105237
-0.166392
0.02041
-0.0408507
-0.105239
-0.166391
0.0204069
-0.0408477
-0.10524
-0.16639
0.0204044
-0.0408446
-0.105242
-0.166389
0.0204022
-0.0408415
-0.105244
-0.166388
0.0204057
-0.0408382
-0.105245
-0.166379
0.0204044
-0.0408327
-0.105241
-0.166381
0.0203974
-0.0408381
-0.105249
-0.166381
0.0203958
-0.0408348
-0.10525
-0.16638
0.0203944
-0.0408309
-0.105251
-0.16638
0.020393
-0.0408271
-0.105252
-0.16638
0.0203923
-0.040823
-0.105252
-0.166379
0.0220275
-0.0387681
-0.103674
-0.164496
0.0209876
-0.0402599
-0.104167
-0.165243
0.0209708
-0.0402715
-0.104196
-0.165268
0.0209818
-0.04027
-0.104198
-0.165263
0.0209787
-0.0402634
-0.104199
-0.165252
0.0209772
-0.0402656
-0.104209
-0.165258
0.020977
-0.0402628
-0.104209
-0.165251
0.020977
-0.0402598
-0.104208
-0.165245
0.020977
-0.0402568
-0.104208
-0.165237
0.020977
-0.0402535
-0.104203
-0.165231
0.0209795
-0.0402501
-0.104206
-0.16523
0.0209749
-0.0402505
-0.104207
-0.165225
0.0209739
-0.0402486
-0.104207
-0.165219
0.0209729
-0.0402472
-0.104208
-0.165202
0.0209701
-0.0402473
-0.104168
-0.165201
0.021589
-0.0390417
-0.10366
-0.165167
0.0207263
-0.0410195
-0.102396
-0.164648
0.02044
-0.041887
-0.103115
-0.165911
0.0203858
-0.0419068
-0.103118
-0.165906
0.0203642
-0.0419051
-0.103125
-0.165901
0.0203536
-0.0419074
-0.103127
-0.165895
0.0203474
-0.0419011
-0.103131
-0.16589
0.020341
-0.041895
-0.103134
-0.165883
0.0203341
-0.0418812
-0.103137
-0.165877
0.0203264
-0.0418883
-0.10314
-0.165867
0.0203189
-0.0418832
-0.103128
-0.165868
0.0203109
-0.0418653
-0.10313
-0.165861
0.0203029
-0.0418601
-0.103108
-0.165806
0.0202953
-0.0418295
-0.10307
-0.165789
0.0201999
-0.0419806
-0.103203
-0.165849
-0.152412
-0.196251
-0.229395
-0.295522
-0.229349
-0.29132
-0.353851
-0.415044
-0.22938
-0.291338
-0.353857
-0.415044
-0.229375
-0.29133
-0.353857
-0.41504
-0.229394
-0.291339
-0.353857
-0.41504
-0.229394
-0.291358
-0.353857
-0.415044
-0.229394
-0.291359
-0.353857
-0.415045
-0.229395
-0.291359
-0.353858
-0.415046
-0.229395
-0.29136
-0.353858
-0.415047
-0.229395
-0.291361
-0.353858
-0.415048
-0.229396
-0.291361
-0.353846
-0.415029
-0.229396
-0.291358
-0.35385
-0.415034
-0.229397
-0.291358
-0.35385
-0.415035
-0.229398
-0.29136
-0.35385
-0.414998
-0.229399
-0.291361
-0.353798
-0.414981
-0.2294
-0.290157
-0.353698
-0.414988
-0.229195
-0.29058
-0.353165
-0.414848
-0.229516
-0.290594
-0.353552
-0.415739
-0.229529
-0.290597
-0.353564
-0.415742
-0.22954
-0.290601
-0.353577
-0.41576
-0.229542
-0.290606
-0.353577
-0.415761
-0.229545
-0.290609
-0.353575
-0.415761
-0.229546
-0.290608
-0.35357
-0.415759
-0.229549
-0.290617
-0.353576
-0.415765
-0.229559
-0.29062
-0.353574
-0.415765
-0.229561
-0.290623
-0.353572
-0.415766
-0.229562
-0.290626
-0.35357
-0.415766
-0.229564
-0.290628
-0.353566
-0.415766
-0.229566
-0.290632
-0.353576
-0.415767
-0.229568
-0.290635
-0.353564
-0.415766
-0.228567
-0.290631
-0.353202
-0.415537
-0.22874
-0.290103
-0.353781
-0.415516
-0.228771
-0.290946
-0.354
-0.415734
-0.228763
-0.290956
-0.353995
-0.41574
-0.228766
-0.290973
-0.353997
-0.415746
-0.228768
-0.290976
-0.353991
-0.415753
-0.22877
-0.290979
-0.353986
-0.415759
-0.228771
-0.290981
-0.35398
-0.415766
-0.22877
-0.290987
-0.35397
-0.415771
-0.228778
-0.290992
-0.353972
-0.415778
-0.22878
-0.290996
-0.353967
-0.415784
-0.228782
-0.291
-0.353963
-0.415783
-0.228767
-0.290993
-0.353949
-0.415789
-0.228774
-0.291016
-0.353958
-0.415773
-0.228773
-0.291017
-0.353952
-0.415764
-0.22877
-0.290985
-0.353947
-0.41514
-0.227944
-0.290652
-0.353091
-0.416202
-0.228918
-0.29197
-0.353895
-0.416724
-0.228922
-0.291979
-0.353897
-0.416826
-0.228925
-0.291986
-0.353898
-0.41683
-0.228928
-0.291992
-0.353898
-0.416832
-0.228931
-0.291998
-0.353897
-0.416834
-0.228933
-0.291984
-0.353896
-0.416826
-0.228924
-0.292024
-0.353903
-0.416832
-0.228932
-0.292028
-0.353901
-0.416833
-0.228933
-0.292032
-0.353898
-0.416831
-0.228934
-0.292035
-0.353895
-0.416837
-0.228891
-0.292021
-0.353872
-0.416843
-0.228897
-0.29205
-0.353904
-0.416847
-0.228945
-0.292128
-0.354041
-0.41697
-0.36936
-0.455323
-0.507553
-0.567753
-4.24954
-4.29193
-4.32919
-4.40589
-4.39337
-4.45628
-4.51864
-4.58093
-4.3935
-4.45635
-4.51872
-4.58112
-4.3935
-4.45635
-4.51872
-4.58112
-4.3935
-4.45635
-4.51872
-4.58112
-4.3935
-4.45635
-4.51872
-4.58112
-4.3935
-4.45635
-4.51872
-4.58111
-4.3935
-4.45634
-4.51872
-4.58111
-4.3935
-4.45634
-4.51872
-4.58111
-4.3935
-4.45634
-4.51872
-4.58111
-4.3935
-4.45634
-4.51872
-4.58111
-4.39351
-4.45634
-4.51872
-4.58111
-4.39351
-4.45634
-4.51872
-4.58111
-4.39351
-4.45634
-4.51872
-4.58111
-4.39351
-4.45634
-4.51872
-4.58111
-4.39351
-4.45634
-4.51872
-4.58111
-4.39351
-4.45634
-4.51872
-4.58111
-4.39352
-4.45634
-4.51872
-4.5811
-4.39352
-4.45634
-4.51872
-4.5811
-4.39352
-4.45634
-4.51872
-4.5811
-4.39352
-4.45634
-4.51872
-4.5811
-4.39353
-4.45634
-4.51872
-4.5811
-4.39353
-4.45633
-4.51872
-4.5811
-4.39353
-4.45633
-4.51872
-4.5811
-4.39354
-4.45633
-4.51872
-4.58109
-4.39354
-4.45633
-4.51872
-4.58109
-4.39354
-4.45633
-4.51872
-4.58109
-4.39355
-4.45633
-4.51872
-4.58109
-4.39355
-4.45633
-4.51872
-4.58109
-4.39355
-4.45633
-4.51872
-4.58109
-4.39355
-4.45633
-4.51872
-4.58109
-4.39356
-4.45633
-4.51872
-4.58109
-4.39356
-4.45633
-4.51872
-4.58109
-4.39356
-4.45633
-4.51872
-4.58109
-4.39356
-4.45632
-4.51872
-4.58109
-4.39356
-4.45632
-4.51872
-4.58109
-4.39356
-4.45632
-4.51872
-4.58109
-4.39356
-4.45632
-4.51872
-4.58109
-4.39356
-4.45632
-4.51872
-4.58109
-4.39356
-4.45632
-4.51872
-4.58109
-4.39356
-4.45632
-4.51872
-4.58109
-4.39356
-4.45632
-4.51872
-4.58109
-4.39356
-4.45632
-4.51871
-4.58109
-4.39356
-4.45632
-4.51871
-4.58109
-4.39356
-4.45632
-4.51871
-4.58109
-4.39356
-4.45632
-4.51871
-4.58109
-4.39356
-4.45631
-4.51871
-4.58109
-4.39356
-4.45631
-4.51871
-4.58109
-4.39356
-4.45631
-4.51871
-4.58109
-4.39356
-4.45631
-4.51871
-4.58109
-4.39356
-4.45631
-4.51871
-4.58109
-4.39356
-4.45631
-4.51871
-4.58109
-4.39356
-4.45631
-4.51871
-4.58109
-4.39356
-4.45631
-4.51871
-4.58109
-4.39356
-4.45631
-4.51871
-4.58109
-4.39356
-4.45631
-4.51871
-4.58109
-4.39356
-4.45631
-4.51871
-4.58109
-4.39356
-4.45631
-4.51871
-4.58109
-4.39356
-4.45631
-4.51871
-4.58109
-4.39356
-4.45631
-4.51871
-4.58109
-4.49602
-4.58726
-4.62379
-4.68599
-4.64318
-4.70538
-4.76807
-4.83106
-4.64341
-4.70558
-4.76816
-4.83119
-4.64341
-4.70558
-4.76816
-4.83119
-4.64341
-4.70558
-4.76816
-4.83119
-4.64341
-4.70559
-4.76816
-4.83119
-4.64341
-4.70559
-4.76816
-4.83119
-4.64341
-4.70559
-4.76816
-4.83119
-4.64341
-4.70559
-4.76816
-4.83119
-4.64341
-4.70559
-4.76816
-4.83119
-4.64341
-4.70559
-4.76817
-4.83118
-4.64341
-4.70559
-4.76817
-4.83118
-4.64341
-4.70559
-4.76817
-4.83118
-4.64341
-4.7056
-4.76817
-4.83118
-4.64341
-4.7056
-4.76817
-4.83118
-4.64341
-4.7056
-4.76817
-4.83118
-4.64341
-4.7056
-4.76817
-4.83117
-4.64341
-4.7056
-4.76817
-4.83117
-4.64341
-4.70559
-4.76817
-4.83117
-4.64341
-4.70559
-4.76818
-4.83116
-4.64341
-4.70559
-4.76818
-4.83116
-4.64341
-4.70559
-4.76818
-4.83116
-4.64341
-4.70559
-4.76818
-4.83115
-4.64341
-4.70559
-4.76818
-4.83115
-4.64341
-4.70559
-4.76819
-4.83115
-4.64341
-4.70559
-4.76819
-4.83114
-4.64341
-4.70559
-4.76819
-4.83114
-4.64341
-4.70559
-4.76819
-4.83114
-4.64341
-4.70558
-4.76819
-4.83113
-4.64341
-4.70558
-4.7682
-4.83113
-4.64341
-4.70558
-4.7682
-4.83113
-4.64341
-4.70558
-4.7682
-4.83112
-4.64341
-4.70559
-4.7682
-4.83112
-4.64341
-4.70559
-4.7682
-4.83112
-4.64341
-4.70559
-4.7682
-4.83112
-4.64341
-4.70559
-4.7682
-4.83112
-4.64341
-4.70559
-4.7682
-4.83112
-4.64342
-4.70559
-4.7682
-4.83112
-4.64342
-4.70559
-4.7682
-4.83112
-4.64342
-4.70559
-4.7682
-4.83111
-4.64342
-4.7056
-4.76821
-4.83111
-4.64342
-4.7056
-4.76821
-4.83111
-4.64342
-4.7056
-4.76821
-4.83111
-4.64342
-4.7056
-4.76821
-4.83111
-4.64342
-4.7056
-4.76821
-4.83111
-4.64342
-4.7056
-4.76821
-4.83111
-4.64342
-4.7056
-4.76821
-4.83111
-4.64342
-4.7056
-4.76821
-4.8311
-4.64342
-4.7056
-4.76821
-4.8311
-4.64342
-4.7056
-4.76821
-4.8311
-4.64342
-4.7056
-4.76821
-4.8311
-4.64342
-4.70561
-4.76821
-4.8311
-4.64342
-4.70561
-4.76821
-4.8311
-4.64342
-4.70561
-4.76821
-4.8311
-4.64342
-4.70561
-4.76821
-4.8311
-4.64342
-4.70561
-4.76821
-4.8311
-4.64342
-4.70561
-4.76821
-4.8311
-4.64342
-4.70561
-4.76821
-4.8311
-4.64342
-4.70561
-4.76821
-4.8311
-4.64342
-4.70561
-4.76821
-4.8311
)
;

boundaryField
{
    topWall
    {
        type            zeroGradient;
    }
    botWall
    {
        type            zeroGradient;
    }
    inlet
    {
        type            fixedJump;
        patchType       cyclic;
        jump            uniform -0.5;
        value           nonuniform List<scalar> 
120
(
-4.36221
-4.21776
-0.110082
0.051615
0.0517241
0.0517298
0.0517371
0.0517442
0.0517465
0.0517509
0.0517576
0.0517567
0.051761
0.0517673
0.0517797
0.0518578
0.0522623
0.0532247
0.052603
0.0526001
0.0525922
0.0525958
0.0525976
0.0525995
0.0526028
0.0526057
0.0526092
0.0526121
0.0526161
0.052621
0.0526186
0.0527356
0.0532452
0.0523132
0.0523132
0.052314
0.0523148
0.0523158
0.0523195
0.0523203
0.0523215
0.0523216
0.052323
0.0523249
0.0523374
0.0523332
0.0528835
0.0526777
0.0526161
0.0526097
0.0525937
0.0525965
0.0526057
0.0525924
0.0525953
0.0525981
0.0526014
0.0526073
0.0526124
0.0526135
0.0526128
0.0629243
-4.36235
-4.36235
-4.36235
-4.36235
-4.36235
-4.36235
-4.36234
-4.36234
-4.36234
-4.36234
-4.36234
-4.36234
-4.36234
-4.36234
-4.36234
-4.36234
-4.36234
-4.36234
-4.36234
-4.36234
-4.36234
-4.36234
-4.36234
-4.36234
-4.36234
-4.36234
-4.36234
-4.36234
-4.36234
-4.36234
-4.36234
-4.36234
-4.36234
-4.36234
-4.36234
-4.36234
-4.36234
-4.36234
-4.36234
-4.36233
-4.36233
-4.36233
-4.36233
-4.36233
-4.36233
-4.36233
-4.36233
-4.36233
-4.36233
-4.36233
-4.36233
-4.36233
-4.36233
-4.36233
-4.36233
-4.36233
-4.36233
-4.36233
)
;
    }
    outlet
    {
        type            fixedJump;
        patchType       cyclic;
        value           nonuniform List<scalar> 
120
(
-4.86221
-4.71776
-0.610082
-0.448385
-0.448276
-0.44827
-0.448263
-0.448256
-0.448253
-0.448249
-0.448242
-0.448243
-0.448239
-0.448233
-0.44822
-0.448142
-0.447738
-0.446775
-0.447397
-0.4474
-0.447408
-0.447404
-0.447402
-0.447401
-0.447397
-0.447394
-0.447391
-0.447388
-0.447384
-0.447379
-0.447381
-0.447264
-0.446755
-0.447687
-0.447687
-0.447686
-0.447685
-0.447684
-0.447681
-0.44768
-0.447678
-0.447678
-0.447677
-0.447675
-0.447663
-0.447667
-0.447117
-0.447322
-0.447384
-0.44739
-0.447406
-0.447404
-0.447394
-0.447408
-0.447405
-0.447402
-0.447399
-0.447393
-0.447388
-0.447387
-0.447387
-0.437076
-4.86235
-4.86235
-4.86235
-4.86235
-4.86235
-4.86235
-4.86234
-4.86234
-4.86234
-4.86234
-4.86234
-4.86234
-4.86234
-4.86234
-4.86234
-4.86234
-4.86234
-4.86234
-4.86234
-4.86234
-4.86234
-4.86234
-4.86234
-4.86234
-4.86234
-4.86234
-4.86234
-4.86234
-4.86234
-4.86234
-4.86234
-4.86234
-4.86234
-4.86234
-4.86234
-4.86234
-4.86234
-4.86234
-4.86234
-4.86233
-4.86233
-4.86233
-4.86233
-4.86233
-4.86233
-4.86233
-4.86233
-4.86233
-4.86233
-4.86233
-4.86233
-4.86233
-4.86233
-4.86233
-4.86233
-4.86233
-4.86233
-4.86233
)
;
    }
    fixWall
    {
        type            empty;
    }
}


// ************************************************************************* //
