/*--------------------------------*- C++ -*----------------------------------*\
  =========                 |
  \\      /  F ield         | OpenFOAM: The Open Source CFD Toolbox
   \\    /   O peration     | Website:  https://openfoam.org
    \\  /    A nd           | Version:  dev
     \\/     M anipulation  |

   OpenFOAM for Windows 20.09 (v1)
   Built by CFD Support, www.cfdsupport.com (based on Symscape).
\*---------------------------------------------------------------------------*/
FoamFile
{
    version     2.0;
    format      ascii;
    class       surfaceScalarField;
    location    "8";
    object      phi;
}
// * * * * * * * * * * * * * * * * * * * * * * * * * * * * * * * * * * * * * //

dimensions      [0 3 -1 0 0 0 0];

internalField   nonuniform List<scalar> 
1792
(
2.02198e-09
-4.19135e-11
2.06463e-09
-4.26578e-11
2.06734e-09
-2.70646e-12
-3.46257e-12
2.0708e-09
5.8177e-09
-2.07266e-11
5.83602e-09
-6.09889e-11
5.8394e-09
-6.09298e-12
-5.51639e-12
5.84145e-09
9.24749e-09
-4.2193e-12
9.26326e-09
-7.67799e-11
9.26305e-09
-5.89154e-12
-2.91485e-12
9.26045e-09
1.23505e-08
7.67537e-12
1.2363e-08
-8.93163e-11
1.23585e-08
-1.38429e-12
4.12644e-12
1.23514e-08
1.51466e-08
1.61668e-11
1.51564e-08
-9.91141e-11
1.51477e-08
7.31499e-12
1.49262e-11
1.51369e-08
1.76587e-08
2.19588e-11
1.76652e-08
-1.05638e-10
1.7653e-08
1.94634e-11
2.88943e-11
1.76391e-08
1.99067e-08
2.54641e-11
1.99105e-08
-1.09505e-10
1.98951e-08
3.48691e-11
4.50389e-11
1.9879e-08
2.19117e-08
2.74788e-11
2.19129e-08
-1.10736e-10
2.18949e-08
5.28336e-11
6.24028e-11
2.18776e-08
2.36936e-08
2.79013e-11
2.36924e-08
-1.09488e-10
2.36716e-08
7.35883e-11
8.00649e-11
2.36539e-08
2.52714e-08
2.75389e-11
2.52678e-08
-1.05914e-10
2.52447e-08
9.67141e-11
9.72482e-11
2.52275e-08
2.66639e-08
2.56594e-11
2.66577e-08
-9.974e-11
2.66315e-08
1.22915e-10
1.13351e-10
2.66154e-08
2.78876e-08
2.29186e-11
2.78793e-08
-9.13628e-11
2.78502e-08
1.51919e-10
1.27957e-10
2.78356e-08
2.89592e-08
1.91713e-11
2.89485e-08
-8.06637e-11
2.89164e-08
1.83974e-10
1.41345e-10
2.8903e-08
2.9894e-08
1.43589e-11
2.98818e-08
-6.84151e-11
2.98455e-08
2.20247e-10
1.53377e-10
2.98335e-08
3.07071e-08
6.62208e-12
3.06934e-08
-5.40409e-11
3.06512e-08
2.63147e-10
1.65849e-10
3.06397e-08
3.14099e-08
-3.96169e-12
3.13992e-08
-4.31727e-11
3.13469e-08
3.15754e-10
1.75648e-10
3.13382e-08
3.2019e-08
-1.8223e-11
3.20027e-08
-2.68659e-11
3.19494e-08
3.69078e-10
1.87341e-10
3.19377e-08
3.25402e-08
-3.3207e-11
3.25221e-08
-8.75043e-12
3.24658e-08
4.254e-10
1.97062e-10
3.24561e-08
3.29864e-08
-4.92733e-11
3.29665e-08
1.11764e-11
3.29072e-08
4.84753e-10
2.03826e-10
3.29004e-08
3.33662e-08
-6.54781e-11
3.3345e-08
3.23781e-11
3.32844e-08
5.45358e-10
2.0723e-10
3.3281e-08
3.36892e-08
-8.20994e-11
3.36669e-08
5.46722e-11
3.36052e-08
6.07095e-10
2.06783e-10
3.36056e-08
3.39628e-08
-9.85973e-11
3.39398e-08
7.7659e-11
3.38782e-08
6.68687e-10
2.02374e-10
3.38826e-08
3.41948e-08
-1.15285e-10
3.41713e-08
1.01194e-10
3.41102e-08
7.29788e-10
1.93742e-10
3.41188e-08
3.4391e-08
-1.31739e-10
3.43672e-08
1.25008e-10
3.43078e-08
7.89244e-10
1.80854e-10
3.43207e-08
3.45577e-08
-1.48077e-10
3.45343e-08
1.48321e-10
3.44767e-08
8.46868e-10
1.63428e-10
3.44941e-08
3.46996e-08
-1.63992e-10
3.46769e-08
1.71022e-10
3.46223e-08
9.01472e-10
1.41473e-10
3.46443e-08
3.48222e-08
-1.79938e-10
3.48004e-08
1.92798e-10
3.47495e-08
9.52338e-10
1.14572e-10
3.47764e-08
3.49292e-08
-1.95096e-10
3.49084e-08
2.13623e-10
3.48622e-08
9.98511e-10
8.24437e-11
3.48944e-08
3.50252e-08
-2.10226e-10
3.50059e-08
2.32964e-10
3.49653e-08
1.03906e-09
4.45928e-11
3.50031e-08
3.5114e-08
-2.2442e-10
3.50945e-08
2.51714e-10
3.5063e-08
1.07182e-09
2.72198e-12
3.51037e-08
3.51979e-08
-2.45321e-10
3.51819e-08
2.67703e-10
3.51564e-08
1.09743e-09
-4.91534e-11
3.5208e-08
3.52826e-08
-2.63208e-10
3.52701e-08
2.80178e-10
3.52515e-08
1.11606e-09
-1.06614e-10
3.53089e-08
3.53729e-08
-2.82254e-10
3.53638e-08
2.89304e-10
3.53513e-08
1.12851e-09
-1.68653e-10
3.54133e-08
3.54718e-08
-3.01992e-10
3.54659e-08
2.95259e-10
3.54585e-08
1.13589e-09
-2.33416e-10
3.55232e-08
3.55835e-08
-3.22865e-10
3.55808e-08
2.97978e-10
3.55775e-08
1.13912e-09
-2.99546e-10
3.56437e-08
3.57116e-08
-3.4478e-10
3.57119e-08
2.9766e-10
3.57118e-08
1.13918e-09
-3.65454e-10
3.57778e-08
3.58607e-08
-3.67814e-10
3.5864e-08
2.9433e-10
3.58664e-08
1.13672e-09
-4.30007e-10
3.5931e-08
3.60351e-08
-3.918e-10
3.60412e-08
2.88189e-10
3.60455e-08
1.1324e-09
-4.9199e-10
3.61075e-08
3.62399e-08
-4.16421e-10
3.6249e-08
2.79125e-10
3.6255e-08
1.12643e-09
-5.50542e-10
3.63135e-08
3.64806e-08
-4.41083e-10
3.64924e-08
2.67352e-10
3.65e-08
1.11881e-09
-6.04725e-10
3.65542e-08
3.67634e-08
-4.65659e-10
3.67778e-08
2.53033e-10
3.67873e-08
1.10921e-09
-6.5398e-10
3.68366e-08
3.70948e-08
-4.89012e-10
3.71111e-08
2.36716e-10
3.7123e-08
1.09728e-09
-6.98188e-10
3.71672e-08
3.74823e-08
-5.10345e-10
3.7501e-08
2.1801e-10
3.75158e-08
1.08248e-09
-7.36784e-10
3.75544e-08
3.79334e-08
-5.28189e-10
3.79528e-08
1.98588e-10
3.7972e-08
1.06322e-09
-7.70607e-10
3.80059e-08
3.84585e-08
-5.43311e-10
3.84773e-08
1.79704e-10
3.85035e-08
1.03763e-09
-7.97831e-10
3.85308e-08
3.90643e-08
-5.51586e-10
3.90753e-08
1.68368e-10
3.91199e-08
9.93659e-10
-8.12902e-10
3.91353e-08
3.97646e-08
-5.58504e-10
3.97753e-08
1.57658e-10
3.98229e-08
9.46002e-10
-8.25857e-10
3.98359e-08
4.05687e-08
-5.60952e-10
4.05795e-08
1.46893e-10
4.06308e-08
8.94673e-10
-8.3443e-10
4.06394e-08
4.14898e-08
-5.60052e-10
4.1502e-08
1.34684e-10
4.15555e-08
8.41103e-10
-8.37889e-10
4.1559e-08
4.25409e-08
-5.56294e-10
4.25547e-08
1.20899e-10
4.26096e-08
7.86238e-10
-8.36334e-10
4.2608e-08
4.37355e-08
-5.50568e-10
4.37512e-08
1.05178e-10
4.3807e-08
7.30454e-10
-8.29766e-10
4.38004e-08
4.50893e-08
-5.44072e-10
4.51064e-08
8.81357e-11
4.51623e-08
6.74569e-10
-8.18453e-10
4.5151e-08
4.6616e-08
-5.37216e-10
4.66352e-08
6.89787e-11
4.6691e-08
6.18713e-10
-8.02772e-10
4.66753e-08
4.83336e-08
-5.31049e-10
4.83542e-08
4.83305e-11
4.84098e-08
5.63072e-10
-7.82562e-10
4.83896e-08
5.0256e-08
-5.26298e-10
5.02794e-08
2.49166e-11
5.03355e-08
5.06998e-10
-7.58012e-10
5.03109e-08
5.24027e-08
-5.23971e-10
5.2429e-08
-1.3558e-12
5.24855e-08
4.50534e-10
-7.29078e-10
5.24565e-08
5.47887e-08
-5.24915e-10
5.48197e-08
-3.24031e-11
5.48779e-08
3.92318e-10
-6.95915e-10
5.48448e-08
5.7434e-08
-5.29705e-10
5.74701e-08
-6.85125e-11
5.75312e-08
3.31249e-10
-6.58741e-10
5.7494e-08
6.03521e-08
-5.38517e-10
6.03947e-08
-1.11194e-10
6.0461e-08
2.6494e-10
-6.1899e-10
6.04213e-08
6.3618e-08
-5.50762e-10
6.36607e-08
-1.55135e-10
6.3728e-08
1.98135e-10
6.36861e-08
-5.78364e-10
2.0671e-09
3.69044e-12
2.06777e-09
-6.67325e-13
2.06424e-09
3.53827e-12
-7.33729e-12
5.8358e-09
9.33809e-12
5.83692e-09
-1.78414e-12
5.83092e-09
9.55145e-12
-1.52988e-11
9.25498e-09
1.47991e-11
9.25751e-09
-4.29883e-12
9.25039e-09
1.66971e-11
-2.89104e-11
1.23462e-08
2.00219e-11
1.23515e-08
-9.61875e-12
1.23441e-08
2.41586e-11
-4.71772e-11
1.51319e-08
2.50124e-11
1.51407e-08
-1.8432e-11
1.51334e-08
3.14886e-11
-6.88676e-11
1.76343e-08
2.98031e-11
1.76467e-08
-3.08834e-11
1.76401e-08
3.80891e-11
-9.31975e-11
1.98746e-08
3.41313e-11
1.98906e-08
-4.68067e-11
1.98844e-08
4.42231e-11
-1.18922e-10
2.18737e-08
3.80244e-11
2.18927e-08
-6.58264e-11
2.18872e-08
4.97636e-11
-1.45454e-10
2.36511e-08
4.08362e-11
2.36728e-08
-8.75362e-11
2.36674e-08
5.51839e-11
-1.72066e-10
2.52259e-08
4.24098e-11
2.525e-08
-1.11606e-10
2.52448e-08
6.04219e-11
-1.98333e-10
2.66163e-08
4.15553e-11
2.66425e-08
-1.37797e-10
2.66365e-08
6.63537e-11
-2.23819e-10
2.78386e-08
3.85864e-11
2.78673e-08
-1.665e-10
2.78609e-08
7.27409e-11
-2.47781e-10
2.89097e-08
3.19098e-11
2.89415e-08
-1.98254e-10
2.89336e-08
8.06393e-11
-2.6964e-10
2.98438e-08
2.15324e-11
2.98799e-08
-2.3433e-10
2.9871e-08
8.94997e-11
-2.87773e-10
3.06558e-08
5.39213e-12
3.06973e-08
-2.7565e-10
3.06874e-08
9.94245e-11
-2.99652e-10
3.13534e-08
-8.98452e-12
3.14087e-08
-3.30675e-10
3.13981e-08
1.10714e-10
-2.98844e-10
3.19625e-08
-3.38126e-11
3.2018e-08
-3.86136e-10
3.20059e-08
1.22748e-10
-2.97632e-10
3.24849e-08
-6.26025e-11
3.25426e-08
-4.43859e-10
3.25287e-08
1.36647e-10
-2.94181e-10
3.29337e-08
-9.59129e-11
3.29922e-08
-5.02343e-10
3.29757e-08
1.53102e-10
-2.88815e-10
3.33174e-08
-1.32391e-10
3.33757e-08
-5.60624e-10
3.33572e-08
1.71641e-10
-2.81596e-10
3.36452e-08
-1.71934e-10
3.37022e-08
-6.17648e-10
3.36813e-08
1.92554e-10
-2.72903e-10
3.3924e-08
-2.13363e-10
3.39793e-08
-6.72852e-10
3.39565e-08
2.15365e-10
-2.6275e-10
3.41617e-08
-2.56227e-10
3.42141e-08
-7.25316e-10
3.41892e-08
2.4027e-10
-2.51642e-10
3.4364e-08
-2.99549e-10
3.44131e-08
-7.74447e-10
3.43865e-08
2.66872e-10
-2.39715e-10
3.45372e-08
-3.42631e-10
3.45822e-08
-8.19373e-10
3.45537e-08
2.953e-10
-2.27304e-10
3.46862e-08
-3.84558e-10
3.47262e-08
-8.59431e-10
3.46964e-08
3.25189e-10
-2.14643e-10
3.48163e-08
-4.24484e-10
3.48505e-08
-8.93587e-10
3.48188e-08
3.56853e-10
-2.02024e-10
3.49316e-08
-4.6169e-10
3.49591e-08
-9.2112e-10
3.49262e-08
3.89764e-10
-1.89927e-10
3.50369e-08
-4.95426e-10
3.50567e-08
-9.41024e-10
3.50217e-08
4.2478e-10
-1.7824e-10
3.51366e-08
-5.28466e-10
3.51477e-08
-9.51978e-10
3.51097e-08
4.619e-10
-1.69183e-10
3.52333e-08
-5.53483e-10
3.52349e-08
-9.53339e-10
3.51936e-08
5.03355e-10
-1.53218e-10
3.53324e-08
-5.76941e-10
3.53225e-08
-9.43502e-10
3.52769e-08
5.48976e-10
-1.40976e-10
3.5433e-08
-5.96616e-10
3.5415e-08
-9.25515e-10
3.5366e-08
5.9803e-10
-1.28824e-10
3.55395e-08
-6.12835e-10
3.55149e-08
-9.00991e-10
3.54637e-08
6.4925e-10
-1.17177e-10
3.56566e-08
-6.25761e-10
3.56268e-08
-8.71208e-10
3.55736e-08
7.02506e-10
-1.06244e-10
3.57879e-08
-6.35944e-10
3.57541e-08
-8.37356e-10
3.56994e-08
7.57217e-10
-9.65416e-11
3.59386e-08
-6.43529e-10
3.59015e-08
-8.00239e-10
3.58457e-08
8.12977e-10
-8.84573e-11
3.61128e-08
-6.48758e-10
3.60732e-08
-7.60686e-10
3.6017e-08
8.69171e-10
-8.25399e-11
3.63161e-08
-6.51334e-10
3.62746e-08
-7.19223e-10
3.62188e-08
9.25037e-10
-7.90833e-11
3.6554e-08
-6.51212e-10
3.6511e-08
-6.76143e-10
3.6456e-08
9.80006e-10
-7.90148e-11
3.6833e-08
-6.47554e-10
3.67883e-08
-6.31543e-10
3.67354e-08
1.03293e-09
-8.24513e-11
3.71597e-08
-6.40057e-10
3.71133e-08
-5.85089e-10
3.70631e-08
1.08314e-09
-9.07941e-11
3.75418e-08
-6.27472e-10
3.74934e-08
-5.36642e-10
3.74472e-08
1.12929e-09
-1.04537e-10
3.79878e-08
-6.09381e-10
3.79368e-08
-4.85627e-10
3.78952e-08
1.17088e-09
-1.24885e-10
3.85061e-08
-5.83916e-10
3.84523e-08
-4.31683e-10
3.84171e-08
1.20667e-09
-1.51153e-10
3.91111e-08
-5.58514e-10
3.9047e-08
-3.67037e-10
3.9025e-08
1.22874e-09
-1.7951e-10
3.98041e-08
-5.26751e-10
3.97409e-08
-3.03788e-10
3.97242e-08
1.24543e-09
-2.12966e-10
4.06037e-08
-4.91043e-10
4.05395e-08
-2.39616e-10
4.05279e-08
1.25702e-09
-2.51318e-10
4.15195e-08
-4.51493e-10
4.1455e-08
-1.75198e-10
4.14486e-08
1.26344e-09
-2.93365e-10
4.25656e-08
-4.09069e-10
4.25011e-08
-1.10669e-10
4.24985e-08
1.26598e-09
-3.3952e-10
4.3755e-08
-3.63663e-10
4.36908e-08
-4.64528e-11
4.36922e-08
1.26456e-09
-3.88507e-10
4.5103e-08
-3.15682e-10
4.50389e-08
1.75591e-11
4.50435e-08
1.26001e-09
-4.40833e-10
4.66241e-08
-2.64465e-10
4.65604e-08
8.12589e-11
4.65685e-08
1.25195e-09
-4.95217e-10
4.83349e-08
-2.09705e-10
4.82714e-08
1.44736e-10
4.82825e-08
1.2408e-09
-5.52391e-10
5.02518e-08
-1.506e-10
5.01884e-08
2.08098e-10
5.02022e-08
1.22707e-09
-6.10948e-10
5.2392e-08
-8.6111e-11
5.23285e-08
2.71635e-10
5.23447e-08
1.2109e-09
-6.71339e-10
5.47739e-08
-1.52747e-11
5.47099e-08
3.35672e-10
5.47274e-08
1.19336e-09
-7.31622e-10
5.74158e-08
6.29581e-11
5.73517e-08
3.99812e-10
5.73697e-08
1.17529e-09
-7.91119e-10
6.03352e-08
1.49054e-10
6.02718e-08
4.6322e-10
6.02884e-08
1.15868e-09
-8.45958e-10
6.35961e-08
2.39511e-10
6.3536e-08
5.24389e-10
6.35507e-08
1.14357e-09
-8.98886e-10
6.97575e-08
-5.67209e-10
6.97639e-08
-1.61198e-10
6.98252e-08
1.38487e-10
-5.61691e-10
6.98092e-08
9.7636e-08
-4.02709e-10
9.71981e-08
2.76646e-10
9.71897e-08
1.46881e-10
-9.87185e-10
9.76152e-08
1.26928e-07
-2.79761e-10
1.26605e-07
6.00209e-10
1.26665e-07
8.64325e-11
-1.35223e-09
1.2703e-07
1.53468e-07
-1.93881e-10
1.53248e-07
8.20386e-10
1.53355e-07
-2.08111e-11
-1.64666e-09
1.5365e-07
1.77419e-07
-1.38626e-10
1.77281e-07
9.59198e-10
1.7742e-07
-1.59842e-10
-1.87928e-09
1.77652e-07
1.98961e-07
-1.05842e-10
1.98887e-07
1.03325e-09
1.99042e-07
-3.14659e-10
-2.05015e-09
1.99213e-07
2.18267e-07
-9.24096e-11
2.18243e-07
1.05732e-09
2.18397e-07
-4.69109e-10
-2.16292e-09
2.1851e-07
2.35505e-07
-9.03937e-11
2.3552e-07
1.04314e-09
2.35668e-07
-6.17064e-10
-2.22955e-09
2.35734e-07
2.50841e-07
-9.55525e-11
2.50883e-07
1.0008e-09
2.51016e-07
-7.49991e-10
-2.25601e-09
2.51043e-07
2.64429e-07
-1.06167e-10
2.64497e-07
9.33546e-10
2.6461e-07
-8.63177e-10
-2.24873e-09
2.64603e-07
2.76419e-07
-1.22285e-10
2.76506e-07
8.46882e-10
2.76597e-07
-9.53844e-10
-2.21699e-09
2.76565e-07
2.86958e-07
-1.3909e-10
2.87057e-07
7.47941e-10
2.87128e-07
-1.02433e-09
-2.17234e-09
2.87083e-07
2.96188e-07
-1.50513e-10
2.96287e-07
6.48589e-10
2.96336e-07
-1.07369e-09
-2.12572e-09
2.9629e-07
3.0424e-07
-1.5435e-10
3.04335e-07
5.52681e-10
3.04375e-07
-1.11297e-09
-2.08158e-09
3.04331e-07
3.11235e-07
-1.47718e-10
3.11324e-07
4.64646e-10
3.11354e-07
-1.14253e-09
-2.03257e-09
3.1131e-07
3.17287e-07
-1.33395e-10
3.17366e-07
3.87506e-10
3.17397e-07
-1.16828e-09
-1.98393e-09
3.17353e-07
3.225e-07
-1.14304e-10
3.22566e-07
3.21372e-10
3.22599e-07
-1.20137e-09
-1.93516e-09
3.2255e-07
3.2697e-07
-8.65139e-11
3.27021e-07
2.70285e-10
3.27067e-07
-1.24735e-09
-1.88362e-09
3.27015e-07
3.30788e-07
-5.23851e-11
3.30813e-07
2.45377e-10
3.30868e-07
-1.30257e-09
-1.8327e-09
3.30817e-07
3.34018e-07
-1.02513e-11
3.34025e-07
2.38754e-10
3.34094e-07
-1.3719e-09
-1.78812e-09
3.3405e-07
3.36731e-07
4.32318e-11
3.36725e-07
2.45228e-10
3.3681e-07
-1.4573e-09
-1.74093e-09
3.36763e-07
3.39e-07
1.08236e-10
3.38981e-07
2.64587e-10
3.39082e-07
-1.5587e-09
-1.70237e-09
3.39044e-07
3.40891e-07
1.8859e-10
3.40851e-07
3.04242e-10
3.40962e-07
-1.66901e-09
-1.65365e-09
3.40913e-07
3.42442e-07
2.77037e-10
3.42385e-07
3.60577e-10
3.425e-07
-1.78328e-09
-1.61541e-09
3.42462e-07
3.43693e-07
3.72108e-10
3.43623e-07
4.31029e-10
3.43734e-07
-1.89463e-09
-1.55737e-09
3.43676e-07
3.44679e-07
4.65702e-10
3.44598e-07
5.12642e-10
3.44702e-07
-1.99884e-09
-1.51903e-09
3.44664e-07
3.45428e-07
5.58343e-10
3.45337e-07
6.03745e-10
3.45427e-07
-2.08931e-09
-1.464e-09
3.45372e-07
3.45961e-07
6.41385e-10
3.45862e-07
7.02153e-10
3.45935e-07
-2.16209e-09
-1.43121e-09
3.45902e-07
3.46293e-07
7.15757e-10
3.46188e-07
8.07011e-10
3.46237e-07
-2.21077e-09
-1.392e-09
3.46198e-07
3.46435e-07
7.71899e-10
3.46326e-07
9.17914e-10
3.46346e-07
-2.23022e-09
-1.37388e-09
3.46328e-07
3.46391e-07
8.05362e-10
3.4629e-07
1.02101e-09
3.46285e-07
-2.22774e-09
-1.35157e-09
3.46264e-07
3.4616e-07
8.14053e-10
3.4608e-07
1.10157e-09
3.46043e-07
-2.19142e-09
-1.30271e-09
3.45994e-07
3.4572e-07
8.03958e-10
3.45659e-07
1.16309e-09
3.45598e-07
-2.1309e-09
-1.24423e-09
3.4554e-07
3.45059e-07
7.76178e-10
3.45012e-07
1.21034e-09
3.44927e-07
-2.04603e-09
-1.15365e-09
3.44836e-07
3.44156e-07
7.38988e-10
3.44121e-07
1.24588e-09
3.44021e-07
-1.946e-09
-1.06486e-09
3.43932e-07
3.42985e-07
6.93961e-10
3.42953e-07
1.27729e-09
3.42835e-07
-1.82792e-09
-9.60249e-10
3.42731e-07
3.41518e-07
6.40296e-10
3.41493e-07
1.30225e-09
3.41369e-07
-1.70326e-09
-8.82631e-10
3.41291e-07
3.39699e-07
5.78941e-10
3.39694e-07
1.3072e-09
3.39566e-07
-1.57551e-09
-8.00832e-10
3.39484e-07
3.37475e-07
5.13916e-10
3.37505e-07
1.27657e-09
3.37387e-07
-1.45738e-09
-7.4713e-10
3.37333e-07
3.3483e-07
4.45294e-10
3.34892e-07
1.21513e-09
3.34772e-07
-1.33778e-09
-6.92657e-10
3.34718e-07
3.31691e-07
3.72588e-10
3.31776e-07
1.12975e-09
3.31657e-07
-1.21918e-09
-6.47779e-10
3.31612e-07
3.2799e-07
3.01084e-10
3.28101e-07
1.01922e-09
3.27972e-07
-1.09031e-09
-5.91387e-10
3.27915e-07
3.23625e-07
2.29848e-10
3.23746e-07
8.98395e-10
3.23618e-07
-9.62912e-10
-5.37263e-10
3.23564e-07
3.18513e-07
1.82009e-10
3.18637e-07
7.74282e-10
3.18508e-07
-8.34612e-10
-4.79933e-10
3.18451e-07
3.1254e-07
1.31403e-10
3.12661e-07
6.57172e-10
3.1254e-07
-7.12803e-10
-4.2559e-10
3.12487e-07
3.05608e-07
1.02197e-10
3.0572e-07
5.46547e-10
3.05602e-07
-5.89501e-10
-3.71637e-10
3.05549e-07
2.97577e-07
6.69768e-11
2.9768e-07
4.43418e-10
2.97572e-07
-4.82025e-10
-3.2477e-10
2.97525e-07
2.88331e-07
5.39576e-11
2.8842e-07
3.55376e-10
2.8832e-07
-3.82052e-10
-2.80229e-10
2.88275e-07
2.77707e-07
3.94717e-11
2.7778e-07
2.81929e-10
2.77698e-07
-2.99495e-10
-2.46268e-10
2.77664e-07
2.65578e-07
4.24805e-11
2.65637e-07
2.23003e-10
2.65563e-07
-2.25987e-10
-2.1421e-10
2.65531e-07
2.51757e-07
4.00465e-11
2.51807e-07
1.72903e-10
2.51749e-07
-1.67886e-10
-1.87433e-10
2.51722e-07
2.36095e-07
4.69537e-11
2.36135e-07
1.32683e-10
2.36085e-07
-1.18004e-10
-1.60205e-10
2.36058e-07
2.18388e-07
4.68452e-11
2.18423e-07
9.76657e-11
2.18387e-07
-8.21682e-11
-1.35005e-10
2.18362e-07
1.98466e-07
5.00903e-11
1.98494e-07
6.92118e-11
1.98466e-07
-5.38226e-11
-1.08725e-10
1.9844e-07
1.76115e-07
4.5985e-11
1.7614e-07
4.39374e-11
1.76123e-07
-3.66491e-11
-8.463e-11
1.76099e-07
1.51142e-07
4.17906e-11
1.51162e-07
2.44537e-11
1.51148e-07
-2.31318e-11
-6.11207e-11
1.51125e-07
1.23326e-07
3.16469e-11
1.23342e-07
9.14127e-12
1.23332e-07
-1.39659e-11
-3.89254e-11
1.2331e-07
9.24571e-08
2.06708e-11
9.24661e-08
1.53187e-13
9.24584e-08
-6.30691e-12
-1.95475e-11
9.2439e-08
5.83098e-08
7.67161e-12
5.83125e-08
-2.55839e-12
5.83081e-08
-1.92196e-12
-5.59578e-12
5.82941e-08
2.06626e-08
2.066e-08
2.06581e-08
2.06525e-08
6.97508e-08
3.01412e-10
6.9708e-08
5.67138e-10
6.96997e-08
1.15272e-09
-9.37501e-10
9.81383e-08
-2.217e-10
9.81573e-08
5.48212e-10
9.78327e-08
1.47734e-09
-9.05425e-10
1.27422e-07
-6.13535e-10
1.27454e-07
5.15807e-10
1.27153e-07
1.77912e-09
-8.03996e-10
1.53919e-07
-8.82612e-10
1.53947e-07
4.87406e-10
1.53684e-07
2.04218e-09
-6.73809e-10
1.77818e-07
-1.04814e-09
1.77842e-07
4.63256e-10
1.7762e-07
2.26431e-09
-5.28478e-10
1.99291e-07
-1.12564e-09
1.99307e-07
4.47162e-10
1.99134e-07
2.43684e-09
-3.88346e-10
2.18522e-07
-1.13739e-09
2.18533e-07
4.36608e-10
2.18407e-07
2.56275e-09
-2.62004e-10
2.35699e-07
-1.1021e-09
2.35702e-07
4.33156e-10
2.35618e-07
2.64673e-09
-1.50866e-10
2.50972e-07
-1.03128e-09
2.50967e-07
4.38005e-10
2.50926e-07
2.68738e-09
-6.01138e-11
2.64508e-07
-9.36403e-10
2.64499e-07
4.46126e-10
2.64497e-07
2.68984e-09
1.83649e-11
2.76457e-07
-8.28924e-10
2.76449e-07
4.55021e-10
2.76475e-07
2.6629e-09
9.07877e-11
2.86969e-07
-7.14877e-10
2.86963e-07
4.60554e-10
2.87016e-07
2.61014e-09
1.65632e-10
2.96177e-07
-6.02189e-10
2.96177e-07
4.60286e-10
2.96255e-07
2.53237e-09
2.44561e-10
3.04216e-07
-4.87168e-10
3.04218e-07
4.57979e-10
3.04316e-07
2.43485e-09
3.24205e-10
3.11195e-07
-3.69841e-10
3.112e-07
4.55338e-10
3.11312e-07
2.32619e-09
3.98659e-10
3.17239e-07
-2.50151e-10
3.17245e-07
4.48754e-10
3.17364e-07
2.2114e-09
4.69966e-10
3.22436e-07
-1.35739e-10
3.22446e-07
4.38102e-10
3.22571e-07
2.08668e-09
5.22279e-10
3.269e-07
-2.06947e-11
3.26912e-07
4.26255e-10
3.27033e-07
1.96612e-09
5.57394e-10
3.30698e-07
9.80244e-11
3.3071e-07
4.14649e-10
3.30831e-07
1.84543e-09
5.66072e-10
3.3394e-07
2.08284e-10
3.33945e-07
4.09316e-10
3.3405e-07
1.74002e-09
5.55805e-10
3.36648e-07
3.23013e-10
3.36647e-07
4.1021e-10
3.36752e-07
1.63563e-09
5.22832e-10
3.38951e-07
4.15893e-10
3.3894e-07
4.2094e-10
3.39017e-07
1.55839e-09
4.74976e-10
3.40811e-07
5.1762e-10
3.40801e-07
4.31508e-10
3.40892e-07
1.46649e-09
3.9616e-10
3.42391e-07
5.88421e-10
3.42375e-07
4.46993e-10
3.4244e-07
1.40213e-09
3.05512e-10
3.43571e-07
6.93161e-10
3.43556e-07
4.62615e-10
3.43663e-07
1.29493e-09
1.80138e-10
3.44605e-07
7.52069e-10
3.44581e-07
4.85857e-10
3.44648e-07
1.22868e-09
5.48997e-11
3.4528e-07
8.44643e-10
3.45254e-07
5.11235e-10
3.45366e-07
1.11665e-09
-9.93297e-11
3.4586e-07
8.86474e-10
3.45829e-07
5.42034e-10
3.45898e-07
1.04798e-09
-2.44933e-10
3.46131e-07
9.5331e-10
3.46092e-07
5.80745e-10
3.462e-07
9.39471e-10
-4.11876e-10
3.46309e-07
9.71047e-10
3.46271e-07
6.21173e-10
3.46341e-07
8.68133e-10
-5.62268e-10
3.46224e-07
1.01212e-09
3.46166e-07
6.79769e-10
3.46264e-07
7.70147e-10
-7.32881e-10
3.45971e-07
1.03567e-09
3.4594e-07
7.10784e-10
3.46023e-07
6.87027e-10
-8.7865e-10
3.45506e-07
1.07008e-09
3.45455e-07
7.60985e-10
3.45554e-07
5.87987e-10
-1.0345e-09
3.44812e-07
1.09395e-09
3.44798e-07
7.75861e-10
3.44893e-07
4.92863e-10
-1.17303e-09
3.43905e-07
1.12049e-09
3.43868e-07
8.13247e-10
3.43971e-07
3.89467e-10
-1.32073e-09
3.42728e-07
1.12316e-09
3.42724e-07
8.1728e-10
3.42813e-07
2.99918e-10
-1.44695e-09
3.41309e-07
1.1048e-09
3.41276e-07
8.50512e-10
3.41342e-07
2.33595e-10
-1.5691e-09
3.39513e-07
1.07594e-09
3.39501e-07
8.62239e-10
3.39552e-07
1.8246e-10
-1.65398e-09
3.37389e-07
1.02014e-09
3.37354e-07
8.97193e-10
3.37365e-07
1.71928e-10
-1.69878e-09
3.34785e-07
9.53106e-10
3.34764e-07
9.17381e-10
3.34761e-07
1.74907e-10
-1.69893e-09
3.31697e-07
8.69016e-10
3.3167e-07
9.4372e-10
3.31645e-07
2.00163e-10
-1.67183e-09
3.28004e-07
7.80702e-10
3.27998e-07
9.49122e-10
3.2798e-07
2.18277e-10
-1.61025e-09
3.23664e-07
6.80792e-10
3.23664e-07
9.48844e-10
3.23633e-07
2.49342e-10
-1.53058e-09
3.18551e-07
5.80875e-10
3.1858e-07
9.20359e-10
3.18573e-07
2.56149e-10
-1.42265e-09
3.12601e-07
4.68419e-10
3.12636e-07
8.89579e-10
3.12604e-07
2.88412e-10
-1.30591e-09
3.05653e-07
3.65728e-10
3.05706e-07
8.3799e-10
3.05704e-07
2.90993e-10
-1.18284e-09
2.97639e-07
2.51625e-10
2.97698e-07
7.79256e-10
2.97669e-07
3.20493e-10
-1.05551e-09
2.88376e-07
1.50953e-10
2.88447e-07
7.07933e-10
2.88446e-07
3.21853e-10
-9.28334e-10
2.77762e-07
5.23355e-11
2.77837e-07
6.3361e-10
2.77818e-07
3.40093e-10
-8.02205e-10
2.65609e-07
-2.5702e-11
2.6569e-07
5.53174e-10
2.65701e-07
3.29279e-10
-6.82543e-10
2.51787e-07
-9.08405e-11
2.51866e-07
4.74261e-10
2.51869e-07
3.26426e-10
-5.6795e-10
2.36098e-07
-1.31102e-10
2.36177e-07
3.95744e-10
2.36205e-07
2.97544e-10
-4.64048e-10
2.18382e-07
-1.51594e-10
2.18455e-07
3.23396e-10
2.18482e-07
2.69952e-10
-3.69479e-10
1.98437e-07
-1.48376e-10
1.98504e-07
2.55593e-10
1.98552e-07
2.22729e-10
-2.8704e-10
1.76081e-07
-1.29951e-10
1.76141e-07
1.95349e-10
1.76185e-07
1.78844e-10
-2.13171e-10
1.51095e-07
-1.00191e-10
1.5115e-07
1.40181e-10
1.51202e-07
1.27338e-10
-1.49549e-10
1.23277e-07
-6.73215e-11
1.23327e-07
9.05291e-11
1.23371e-07
8.30041e-11
-9.42779e-11
9.24072e-08
-3.53817e-11
9.24497e-08
4.8032e-11
9.24908e-08
4.19081e-11
-4.96358e-11
5.82697e-08
-1.087e-11
5.8302e-08
1.57238e-11
5.83305e-08
1.35149e-11
-1.60088e-11
2.06417e-08
2.06574e-08
2.0671e-08
)
;

boundaryField
{
    topWall
    {
        type            calculated;
        value           uniform 0;
    }
    botWall
    {
        type            calculated;
        value           uniform 0;
    }
    inlet
    {
        type            cyclic;
        value           nonuniform List<scalar> 
120
(
-9.78005e-08
-6.97404e-08
-6.36032e-08
-6.03432e-08
-5.74292e-08
-5.47877e-08
-5.2405e-08
-5.02607e-08
-4.83397e-08
-4.66229e-08
-4.50958e-08
-4.37412e-08
-4.25447e-08
-4.14907e-08
-4.05663e-08
-3.97577e-08
-3.90543e-08
-3.8444e-08
-3.79155e-08
-3.7461e-08
-3.70714e-08
-3.67389e-08
-3.64559e-08
-3.62153e-08
-3.60111e-08
-3.58376e-08
-3.56897e-08
-3.55626e-08
-3.54521e-08
-3.53538e-08
-3.52647e-08
-3.51788e-08
-3.51015e-08
-3.501e-08
-3.49141e-08
-3.48062e-08
-3.46837e-08
-3.45413e-08
-3.43746e-08
-3.41781e-08
-3.39463e-08
-3.36726e-08
-3.335e-08
-3.29704e-08
-3.25252e-08
-3.20047e-08
-3.13976e-08
-3.06998e-08
-2.98892e-08
-2.89554e-08
-2.78849e-08
-2.6662e-08
-2.5271e-08
-2.3694e-08
-2.19137e-08
-1.99102e-08
-1.76645e-08
-1.51551e-08
-1.23623e-08
-9.26398e-09
-5.83887e-09
-2.07156e-09
-1.27051e-07
-1.53554e-07
-1.77474e-07
-1.98994e-07
-2.1828e-07
-2.35507e-07
-2.50836e-07
-2.64419e-07
-2.76403e-07
-2.86941e-07
-2.96176e-07
-3.04236e-07
-3.11238e-07
-3.17298e-07
-3.22519e-07
-3.26998e-07
-3.30822e-07
-3.34061e-07
-3.36785e-07
-3.39065e-07
-3.40971e-07
-3.4253e-07
-3.43788e-07
-3.44773e-07
-3.4552e-07
-3.46044e-07
-3.46367e-07
-3.46492e-07
-3.46429e-07
-3.46169e-07
-3.4571e-07
-3.45031e-07
-3.44119e-07
-3.4294e-07
-3.41465e-07
-3.39637e-07
-3.3741e-07
-3.34762e-07
-3.31618e-07
-3.27919e-07
-3.23553e-07
-3.18465e-07
-3.12488e-07
-3.0558e-07
-2.97541e-07
-2.88318e-07
-2.77692e-07
-2.65581e-07
-2.51755e-07
-2.36102e-07
-2.18388e-07
-1.98469e-07
-1.76111e-07
-1.51138e-07
-1.23316e-07
-9.24462e-08
-5.82968e-08
-2.06549e-08
)
;
    }
    outlet
    {
        type            cyclic;
        value           nonuniform List<scalar> 
120
(
9.78005e-08
6.97404e-08
6.36032e-08
6.03432e-08
5.74292e-08
5.47877e-08
5.2405e-08
5.02607e-08
4.83397e-08
4.66229e-08
4.50958e-08
4.37412e-08
4.25447e-08
4.14907e-08
4.05663e-08
3.97577e-08
3.90543e-08
3.8444e-08
3.79155e-08
3.7461e-08
3.70714e-08
3.67389e-08
3.64559e-08
3.62153e-08
3.60111e-08
3.58376e-08
3.56897e-08
3.55626e-08
3.54521e-08
3.53538e-08
3.52647e-08
3.51788e-08
3.51015e-08
3.501e-08
3.49141e-08
3.48062e-08
3.46837e-08
3.45413e-08
3.43746e-08
3.41781e-08
3.39463e-08
3.36726e-08
3.335e-08
3.29704e-08
3.25252e-08
3.20047e-08
3.13976e-08
3.06998e-08
2.98892e-08
2.89554e-08
2.78849e-08
2.6662e-08
2.5271e-08
2.3694e-08
2.19137e-08
1.99102e-08
1.76645e-08
1.51551e-08
1.23623e-08
9.26398e-09
5.83887e-09
2.07156e-09
1.27051e-07
1.53554e-07
1.77474e-07
1.98994e-07
2.1828e-07
2.35507e-07
2.50836e-07
2.64419e-07
2.76403e-07
2.86941e-07
2.96176e-07
3.04236e-07
3.11238e-07
3.17298e-07
3.22519e-07
3.26998e-07
3.30822e-07
3.34061e-07
3.36785e-07
3.39065e-07
3.40971e-07
3.4253e-07
3.43788e-07
3.44773e-07
3.4552e-07
3.46044e-07
3.46367e-07
3.46492e-07
3.46429e-07
3.46169e-07
3.4571e-07
3.45031e-07
3.44119e-07
3.4294e-07
3.41465e-07
3.39637e-07
3.3741e-07
3.34762e-07
3.31618e-07
3.27919e-07
3.23553e-07
3.18465e-07
3.12488e-07
3.0558e-07
2.97541e-07
2.88318e-07
2.77692e-07
2.65581e-07
2.51755e-07
2.36102e-07
2.18388e-07
1.98469e-07
1.76111e-07
1.51138e-07
1.23316e-07
9.24462e-08
5.82968e-08
2.06549e-08
)
;
    }
    fixWall
    {
        type            empty;
        value           nonuniform List<scalar> 0();
    }
}


// ************************************************************************* //
