/*--------------------------------*- C++ -*----------------------------------*\
  =========                 |
  \\      /  F ield         | OpenFOAM: The Open Source CFD Toolbox
   \\    /   O peration     | Website:  https://openfoam.org
    \\  /    A nd           | Version:  dev
     \\/     M anipulation  |

   OpenFOAM for Windows 20.09 (v1)
   Built by CFD Support, www.cfdsupport.com (based on Symscape).
\*---------------------------------------------------------------------------*/
FoamFile
{
    version     2.0;
    format      ascii;
    class       volVectorField;
    location    "8";
    object      U;
}
// * * * * * * * * * * * * * * * * * * * * * * * * * * * * * * * * * * * * * //

dimensions      [0 1 -1 0 0 0 0];

internalField   nonuniform List<vector> 
960
(
(0.00245575 -1.15098e-07 0)
(0.00244844 -3.93531e-07 0)
(0.00248222 3.79184e-08 0)
(0.00248341 -4.76793e-08 0)
(0.00699305 -1.48248e-06 0)
(0.00698208 -1.07894e-06 0)
(0.00701393 -1.2455e-07 0)
(0.00701001 -9.85206e-08 0)
(0.01111 7.37879e-07 0)
(0.0110967 -1.4324e-06 0)
(0.0111247 -1.33866e-07 0)
(0.011116 -1.06366e-07 0)
(0.0148343 -1.13975e-06 0)
(0.0148192 -1.67653e-06 0)
(0.0148415 -9.94248e-08 0)
(0.0148283 -7.92595e-09 0)
(0.0181903 1.29659e-06 0)
(0.0181743 -1.90266e-06 0)
(0.0181905 4.35668e-08 0)
(0.0181736 1.71781e-07 0)
(0.0212054 -3.83525e-07 0)
(0.021188 -2.05592e-06 0)
(0.021198 2.46901e-07 0)
(0.0211787 4.2601e-07 0)
(0.0239033 9.8633e-07 0)
(0.0238854 -2.16934e-06 0)
(0.0238894 5.33859e-07 0)
(0.0238683 7.27884e-07 0)
(0.0263096 2.4646e-07 0)
(0.0262912 -2.21421e-06 0)
(0.0262893 8.56313e-07 0)
(0.0262678 1.0735e-06 0)
(0.0284478 7.10157e-07 0)
(0.0284297 -2.21364e-06 0)
(0.0284216 1.26353e-06 0)
(0.0283997 1.42061e-06 0)
(0.0303412 4.92492e-07 0)
(0.0303232 -2.17124e-06 0)
(0.030309 1.67108e-06 0)
(0.0302876 1.78209e-06 0)
(0.0320114 5.49119e-07 0)
(0.0319947 -2.07074e-06 0)
(0.0319734 2.23316e-06 0)
(0.0319518 2.0986e-06 0)
(0.0334793 5.0863e-07 0)
(0.0334638 -1.92522e-06 0)
(0.0334357 2.65145e-06 0)
(0.0334146 2.43502e-06 0)
(0.0347639 3.88427e-07 0)
(0.0347511 -1.76959e-06 0)
(0.0347153 3.45914e-06 0)
(0.0346931 2.65584e-06 0)
(0.0358838 3.70596e-07 0)
(0.0358747 -1.55911e-06 0)
(0.035831 3.94837e-06 0)
(0.0358076 2.94505e-06 0)
(0.0368558 2.0152e-07 0)
(0.0368537 -1.20899e-06 0)
(0.0368001 4.8131e-06 0)
(0.0367724 3.20949e-06 0)
(0.037695 4.31186e-08 0)
(0.0377019 -1.00129e-06 0)
(0.0376395 5.82637e-06 0)
(0.0376073 3.39248e-06 0)
(0.0384229 -1.9297e-07 0)
(0.0384332 -6.60202e-07 0)
(0.0383619 6.71065e-06 0)
(0.0383259 3.69242e-06 0)
(0.0390474 -5.29722e-07 0)
(0.0390596 -3.08809e-07 0)
(0.038982 8.0062e-06 0)
(0.0389453 3.84876e-06 0)
(0.0395817 -7.67868e-07 0)
(0.0395962 -3.56271e-09 0)
(0.039512 9.04322e-06 0)
(0.0394746 4.03086e-06 0)
(0.0400367 -1.2159e-06 0)
(0.0400525 4.53546e-07 0)
(0.0399639 1.03112e-05 0)
(0.039928 4.12739e-06 0)
(0.0404236 -1.39042e-06 0)
(0.040441 8.49173e-07 0)
(0.0403481 1.15132e-05 0)
(0.0403138 4.165e-06 0)
(0.0407514 -1.88797e-06 0)
(0.0407698 1.33445e-06 0)
(0.0406742 1.27657e-05 0)
(0.040643 4.1065e-06 0)
(0.0410292 -2.0639e-06 0)
(0.0410488 1.77373e-06 0)
(0.0409507 1.39867e-05 0)
(0.0409231 3.9878e-06 0)
(0.0412643 -2.54009e-06 0)
(0.0412845 2.27499e-06 0)
(0.0411855 1.51959e-05 0)
(0.0411625 3.76154e-06 0)
(0.0414638 -2.7317e-06 0)
(0.0414851 2.72233e-06 0)
(0.0413857 1.63877e-05 0)
(0.041368 3.47548e-06 0)
(0.041634 -3.20285e-06 0)
(0.0416556 3.1821e-06 0)
(0.0415573 1.74595e-05 0)
(0.0415458 3.08686e-06 0)
(0.0417808 -3.36576e-06 0)
(0.041803 3.66111e-06 0)
(0.0417062 1.86634e-05 0)
(0.0417022 2.53906e-06 0)
(0.0419096 -3.82782e-06 0)
(0.0419312 4.07534e-06 0)
(0.0418373 1.93964e-05 0)
(0.0418417 1.9877e-06 0)
(0.0420247 -3.97905e-06 0)
(0.0420464 4.47031e-06 0)
(0.0419559 2.05326e-05 0)
(0.0419705 1.22272e-06 0)
(0.0421322 -4.39525e-06 0)
(0.0421519 4.89668e-06 0)
(0.0420661 2.10364e-05 0)
(0.0420913 4.77396e-07 0)
(0.0422287 -4.62154e-06 0)
(0.0422538 5.17848e-06 0)
(0.0421729 2.17213e-05 0)
(0.0422118 -3.40121e-07 0)
(0.0423302 -5.16423e-06 0)
(0.0423566 5.45423e-06 0)
(0.0422816 2.22625e-05 0)
(0.0423313 -1.57792e-06 0)
(0.0424374 -5.37202e-06 0)
(0.0424661 5.76647e-06 0)
(0.0423969 2.23737e-05 0)
(0.0424557 -2.59403e-06 0)
(0.0425554 -5.91589e-06 0)
(0.0425855 5.78149e-06 0)
(0.0425225 2.27747e-05 0)
(0.0425873 -4.07629e-06 0)
(0.0426886 -6.17984e-06 0)
(0.0427204 6.03245e-06 0)
(0.0426633 2.27214e-05 0)
(0.0427324 -5.29097e-06 0)
(0.0428417 -6.71692e-06 0)
(0.0428747 5.90939e-06 0)
(0.0428237 2.27907e-05 0)
(0.0428943 -6.6936e-06 0)
(0.0430201 -7.0627e-06 0)
(0.0430541 5.9987e-06 0)
(0.0430093 2.27921e-05 0)
(0.0430799 -7.92048e-06 0)
(0.0432293 -7.65661e-06 0)
(0.0432635 5.77467e-06 0)
(0.0432252 2.26695e-05 0)
(0.0432938 -9.28168e-06 0)
(0.0434752 -8.01252e-06 0)
(0.0435093 5.74798e-06 0)
(0.043478 2.26274e-05 0)
(0.0435437 -1.03996e-05 0)
(0.0437649 -8.63711e-06 0)
(0.0437973 5.42172e-06 0)
(0.043774 2.24371e-05 0)
(0.0438357 -1.16189e-05 0)
(0.0441053 -9.01338e-06 0)
(0.0441355 5.29967e-06 0)
(0.0441209 2.23067e-05 0)
(0.0441786 -1.25953e-05 0)
(0.0445054 -9.60877e-06 0)
(0.0445308 4.84021e-06 0)
(0.0445256 2.21047e-05 0)
(0.0445795 -1.35509e-05 0)
(0.044973 -9.93937e-06 0)
(0.0449933 4.54264e-06 0)
(0.0449989 2.17519e-05 0)
(0.045049 -1.43666e-05 0)
(0.0455192 -1.03988e-05 0)
(0.0455296 4.12294e-06 0)
(0.045547 2.16306e-05 0)
(0.0455959 -1.51072e-05 0)
(0.0461533 -1.0717e-05 0)
(0.0461534 3.71976e-06 0)
(0.0461842 2.09637e-05 0)
(0.0462322 -1.56941e-05 0)
(0.0468863 -1.09428e-05 0)
(0.0468695 3.52852e-06 0)
(0.0469158 2.03537e-05 0)
(0.0469673 -1.61683e-05 0)
(0.0477299 -1.11935e-05 0)
(0.0477041 3.28464e-06 0)
(0.0477611 1.95136e-05 0)
(0.0478115 -1.6418e-05 0)
(0.0486998 -1.11762e-05 0)
(0.048664 3.08919e-06 0)
(0.0487315 1.82626e-05 0)
(0.0487799 -1.66328e-05 0)
(0.0498077 -1.13175e-05 0)
(0.0497665 2.81241e-06 0)
(0.0498433 1.74819e-05 0)
(0.0498875 -1.6757e-05 0)
(0.0510721 -1.1075e-05 0)
(0.0510253 2.58621e-06 0)
(0.0511106 1.62058e-05 0)
(0.0511501 -1.67598e-05 0)
(0.0525067 -1.11865e-05 0)
(0.0524576 2.21048e-06 0)
(0.0525499 1.51905e-05 0)
(0.0525846 -1.66759e-05 0)
(0.0541325 -1.08287e-05 0)
(0.0540812 1.98887e-06 0)
(0.0541787 1.40386e-05 0)
(0.0542085 -1.65151e-05 0)
(0.0559643 -1.09345e-05 0)
(0.0559135 1.54599e-06 0)
(0.0560153 1.29415e-05 0)
(0.0560411 -1.62236e-05 0)
(0.0580251 -1.05611e-05 0)
(0.0579748 1.20358e-06 0)
(0.0580797 1.18043e-05 0)
(0.0581018 -1.5892e-05 0)
(0.0603305 -1.06751e-05 0)
(0.0602833 7.23892e-07 0)
(0.0603917 1.07125e-05 0)
(0.0604112 -1.54037e-05 0)
(0.0629048 -1.03714e-05 0)
(0.0628613 3.16116e-07 0)
(0.0629727 9.57202e-06 0)
(0.0629903 -1.49359e-05 0)
(0.0657652 -1.06033e-05 0)
(0.0657273 -4.1686e-07 0)
(0.0658442 8.46131e-06 0)
(0.0658608 -1.42486e-05 0)
(0.0689368 -1.04622e-05 0)
(0.0689046 -1.03727e-06 0)
(0.069028 7.02886e-06 0)
(0.0690449 -1.35892e-05 0)
(0.0724353 -1.08933e-05 0)
(0.0724094 -1.72959e-06 0)
(0.0725422 6.1701e-06 0)
(0.0725623 -1.24771e-05 0)
(0.0763537 -1.10414e-05 0)
(0.0763287 -2.58894e-06 0)
(0.0764616 4.5837e-06 0)
(0.0764836 -1.16461e-05 0)
(0.00248125 4.15897e-08 0)
(0.00248263 -3.58732e-09 0)
(0.0024776 2.28849e-08 0)
(0.00248322 -1.07749e-07 0)
(0.0070018 1.2583e-07 0)
(0.00700833 -2.03164e-08 0)
(0.00699666 1.2929e-07 0)
(0.00700662 -1.9241e-07 0)
(0.0111014 2.42731e-07 0)
(0.0111147 -4.47478e-08 0)
(0.0110998 2.55162e-07 0)
(0.01111 -4.30579e-07 0)
(0.0148075 3.48657e-07 0)
(0.0148275 -1.2527e-07 0)
(0.0148126 4.08581e-07 0)
(0.0148221 -7.26208e-07 0)
(0.0181472 4.51871e-07 0)
(0.0181735 -2.60464e-07 0)
(0.0181607 5.59641e-07 0)
(0.0181684 -1.16395e-06 0)
(0.0211474 5.48477e-07 0)
(0.021179 -4.77585e-07 0)
(0.0211696 6.98614e-07 0)
(0.0211757 -1.59044e-06 0)
(0.0238335 6.43428e-07 0)
(0.0238698 -7.58684e-07 0)
(0.0238641 8.24546e-07 0)
(0.0238676 -2.13676e-06 0)
(0.0262306 7.2235e-07 0)
(0.0262703 -1.11252e-06 0)
(0.0262686 9.44443e-07 0)
(0.0262695 -2.62346e-06 0)
(0.0283621 7.96408e-07 0)
(0.0284048 -1.52442e-06 0)
(0.0284065 1.04376e-06 0)
(0.0284043 -3.18956e-06 0)
(0.0302507 8.39803e-07 0)
(0.0302957 -1.97396e-06 0)
(0.0303008 1.16441e-06 0)
(0.0302955 -3.70158e-06 0)
(0.0319176 8.56515e-07 0)
(0.0319655 -2.48933e-06 0)
(0.031973 1.25091e-06 0)
(0.0319638 -4.22807e-06 0)
(0.0333832 8.18409e-07 0)
(0.0334336 -3.02152e-06 0)
(0.0334444 1.36927e-06 0)
(0.0334308 -4.74251e-06 0)
(0.0346665 7.05663e-07 0)
(0.0347211 -3.63622e-06 0)
(0.0347348 1.55886e-06 0)
(0.0347151 -5.16033e-06 0)
(0.0357849 5.79093e-07 0)
(0.0358445 -4.2486e-06 0)
(0.0358636 1.65234e-06 0)
(0.0358363 -5.64339e-06 0)
(0.0367553 2.80405e-07 0)
(0.0368225 -5.07631e-06 0)
(0.036848 1.93643e-06 0)
(0.0368103 -5.8721e-06 0)
(0.0375923 -9.43863e-09 0)
(0.0376682 -6.03616e-06 0)
(0.0377045 2.10437e-06 0)
(0.0376536 -6.00871e-06 0)
(0.0383172 -3.86876e-07 0)
(0.0384 -7.13997e-06 0)
(0.0384381 2.26584e-06 0)
(0.0383807 -6.02561e-06 0)
(0.0389419 -9.69252e-07 0)
(0.039029 -8.34675e-06 0)
(0.0390682 2.65915e-06 0)
(0.0390053 -5.87235e-06 0)
(0.039479 -1.5576e-06 0)
(0.0395693 -9.45155e-06 0)
(0.0396069 2.79853e-06 0)
(0.0395395 -5.88764e-06 0)
(0.0399389 -2.26969e-06 0)
(0.0400303 -1.06391e-05 0)
(0.0400664 3.2956e-06 0)
(0.0399954 -5.68369e-06 0)
(0.0403323 -3.03903e-06 0)
(0.0404235 -1.17937e-05 0)
(0.0404568 3.60247e-06 0)
(0.0403829 -5.55671e-06 0)
(0.0406678 -3.83785e-06 0)
(0.0407573 -1.29089e-05 0)
(0.0407879 4.09626e-06 0)
(0.040712 -5.36566e-06 0)
(0.0409546 -4.6938e-06 0)
(0.0410409 -1.40069e-05 0)
(0.041068 4.52309e-06 0)
(0.0409906 -5.14284e-06 0)
(0.0411996 -5.56086e-06 0)
(0.0412814 -1.50058e-05 0)
(0.0413051 5.07954e-06 0)
(0.0412271 -4.92319e-06 0)
(0.0414104 -6.41444e-06 0)
(0.0414863 -1.59702e-05 0)
(0.0415059 5.60703e-06 0)
(0.0414275 -4.66742e-06 0)
(0.0415929 -7.25299e-06 0)
(0.0416613 -1.67659e-05 0)
(0.0416767 6.25056e-06 0)
(0.041599 -4.42935e-06 0)
(0.0417536 -8.15364e-06 0)
(0.0418129 -1.76313e-05 0)
(0.0418233 6.6883e-06 0)
(0.0417463 -4.21151e-06 0)
(0.0418972 -8.83792e-06 0)
(0.0419459 -1.81297e-05 0)
(0.041951 7.5818e-06 0)
(0.0418763 -3.77264e-06 0)
(0.0420295 -9.63322e-06 0)
(0.0420663 -1.86963e-05 0)
(0.042065 7.95724e-06 0)
(0.0419916 -3.75831e-06 0)
(0.0421543 -1.02871e-05 0)
(0.0421789 -1.90057e-05 0)
(0.0421704 8.90948e-06 0)
(0.0421 -3.35827e-06 0)
(0.0422791 -1.07571e-05 0)
(0.042288 -1.90263e-05 0)
(0.0422709 9.71556e-06 0)
(0.0421966 -3.22379e-06 0)
(0.0424032 -1.13702e-05 0)
(0.0423985 -1.90587e-05 0)
(0.0423715 1.04231e-05 0)
(0.0422984 -3.1121e-06 0)
(0.0425296 -1.17081e-05 0)
(0.0425136 -1.8699e-05 0)
(0.0424785 1.15824e-05 0)
(0.0424052 -2.58691e-06 0)
(0.0426617 -1.2125e-05 0)
(0.0426369 -1.83077e-05 0)
(0.0425951 1.24093e-05 0)
(0.042523 -2.6116e-06 0)
(0.0428056 -1.24105e-05 0)
(0.0427741 -1.77465e-05 0)
(0.0427264 1.34902e-05 0)
(0.0426552 -2.12519e-06 0)
(0.0429654 -1.26427e-05 0)
(0.0429295 -1.71273e-05 0)
(0.0428765 1.46201e-05 0)
(0.042807 -2.07009e-06 0)
(0.0431476 -1.27882e-05 0)
(0.0431088 -1.63637e-05 0)
(0.043051 1.56771e-05 0)
(0.0429837 -1.7897e-06 0)
(0.0433573 -1.29573e-05 0)
(0.0433171 -1.56461e-05 0)
(0.0432549 1.68383e-05 0)
(0.0431909 -1.75054e-06 0)
(0.0436017 -1.29889e-05 0)
(0.0435608 -1.47833e-05 0)
(0.0434947 1.79317e-05 0)
(0.0434352 -1.55226e-06 0)
(0.0438872 -1.30664e-05 0)
(0.0438463 -1.39819e-05 0)
(0.0437764 1.9067e-05 0)
(0.0437228 -1.6127e-06 0)
(0.0442223 -1.3012e-05 0)
(0.0441806 -1.30983e-05 0)
(0.0441079 2.01168e-05 0)
(0.0440618 -1.50295e-06 0)
(0.0446148 -1.28919e-05 0)
(0.0445724 -1.21533e-05 0)
(0.0444962 2.11651e-05 0)
(0.0444598 -1.8037e-06 0)
(0.0450745 -1.26804e-05 0)
(0.0450296 -1.1216e-05 0)
(0.0449511 2.22257e-05 0)
(0.044927 -1.89187e-06 0)
(0.0456111 -1.23921e-05 0)
(0.0455633 -1.02285e-05 0)
(0.0454816 2.29986e-05 0)
(0.0454717 -2.33702e-06 0)
(0.0462356 -1.19134e-05 0)
(0.0461826 -9.18214e-06 0)
(0.0460995 2.39163e-05 0)
(0.0461066 -2.77475e-06 0)
(0.0469595 -1.14646e-05 0)
(0.0469023 -7.99115e-06 0)
(0.0468167 2.43404e-05 0)
(0.0468413 -3.21671e-06 0)
(0.0477943 -1.09353e-05 0)
(0.0477334 -6.82681e-06 0)
(0.0476484 2.47305e-05 0)
(0.0476878 -3.88222e-06 0)
(0.0487542 -1.01327e-05 0)
(0.0486924 -5.33387e-06 0)
(0.0486063 2.50515e-05 0)
(0.0486585 -4.60531e-06 0)
(0.0498536 -9.54158e-06 0)
(0.0497909 -4.27459e-06 0)
(0.0497052 2.51919e-05 0)
(0.0497693 -5.39021e-06 0)
(0.0511087 -8.52096e-06 0)
(0.0510465 -2.72288e-06 0)
(0.0509601 2.5311e-05 0)
(0.0510343 -6.35633e-06 0)
(0.052536 -7.81379e-06 0)
(0.0524738 -1.68731e-06 0)
(0.0523881 2.53762e-05 0)
(0.0524711 -7.25179e-06 0)
(0.0541533 -6.72477e-06 0)
(0.0540915 -1.53878e-07 0)
(0.0540059 2.52131e-05 0)
(0.0540966 -8.30276e-06 0)
(0.0559791 -5.90635e-06 0)
(0.0559165 8.45029e-07 0)
(0.0558327 2.51788e-05 0)
(0.0559296 -9.31562e-06 0)
(0.0580327 -4.669e-06 0)
(0.0579687 2.4133e-06 0)
(0.0578868 2.4903e-05 0)
(0.0579892 -1.0507e-05 0)
(0.0603344 -3.71594e-06 0)
(0.0602676 3.37753e-06 0)
(0.0601889 2.47292e-05 0)
(0.0602942 -1.15987e-05 0)
(0.0629048 -2.35359e-06 0)
(0.0628337 4.89674e-06 0)
(0.0627589 2.43323e-05 0)
(0.0628662 -1.27826e-05 0)
(0.0657661 -1.06412e-06 0)
(0.0656889 6.05105e-06 0)
(0.0656194 2.41061e-05 0)
(0.0657243 -1.40663e-05 0)
(0.0689402 5.51951e-07 0)
(0.0688553 7.52027e-06 0)
(0.0687931 2.37516e-05 0)
(0.0688922 -1.53294e-05 0)
(0.0724481 2.20057e-06 0)
(0.0723539 8.50792e-06 0)
(0.0723029 2.30918e-05 0)
(0.0723872 -1.63271e-05 0)
(0.0763619 3.90075e-06 0)
(0.0762665 9.52602e-06 0)
(0.076225 2.30959e-05 0)
(0.0762936 -1.76155e-05 0)
(0.0837374 -1.08387e-05 0)
(0.0836757 -2.3063e-06 0)
(0.0837623 4.25179e-06 0)
(0.0838163 -1.18177e-05 0)
(0.11743 -1.03046e-05 0)
(0.116879 -8.7034e-07 0)
(0.116405 2.7796e-06 0)
(0.116848 -1.41012e-05 0)
(0.152524 -6.52233e-06 0)
(0.152085 8.08609e-06 0)
(0.151775 1.05166e-06 0)
(0.152219 -2.29889e-05 0)
(0.184317 -5.12716e-06 0)
(0.183987 1.47453e-05 0)
(0.183817 1.83712e-06 0)
(0.184233 -3.0318e-05 0)
(0.213013 -2.54379e-06 0)
(0.212775 1.84866e-05 0)
(0.212707 -2.27796e-06 0)
(0.213097 -3.57358e-05 0)
(0.238824 -3.02293e-06 0)
(0.238664 1.98504e-05 0)
(0.238674 -4.40507e-06 0)
(0.239025 -3.93745e-05 0)
(0.261958 -1.10973e-06 0)
(0.261865 2.14979e-05 0)
(0.261927 -8.00437e-06 0)
(0.262224 -4.26801e-05 0)
(0.282618 -2.63948e-06 0)
(0.282577 2.08434e-05 0)
(0.282679 -1.08192e-05 0)
(0.282922 -4.38952e-05 0)
(0.301 -9.38503e-07 0)
(0.301 2.08125e-05 0)
(0.301128 -1.37631e-05 0)
(0.301309 -4.52399e-05 0)
(0.317284 -2.8803e-06 0)
(0.317328 1.92244e-05 0)
(0.317472 -1.62465e-05 0)
(0.317589 -4.50264e-05 0)
(0.331651 -1.42683e-06 0)
(0.331738 1.8293e-05 0)
(0.331885 -1.81029e-05 0)
(0.331945 -4.49178e-05 0)
(0.344279 -3.35839e-06 0)
(0.344403 1.56097e-05 0)
(0.344543 -2.01332e-05 0)
(0.344561 -4.38096e-05 0)
(0.355344 -2.31726e-06 0)
(0.355489 1.41287e-05 0)
(0.355608 -2.09236e-05 0)
(0.355598 -4.30834e-05 0)
(0.365002 -3.4049e-06 0)
(0.365155 1.17955e-05 0)
(0.365258 -2.20913e-05 0)
(0.365239 -4.2083e-05 0)
(0.373399 -2.67676e-06 0)
(0.373547 9.92546e-06 0)
(0.373638 -2.27633e-05 0)
(0.373611 -4.10605e-05 0)
(0.380672 -3.14395e-06 0)
(0.380799 8.64094e-06 0)
(0.380887 -2.26595e-05 0)
(0.380864 -4.02859e-05 0)
(0.386945 -2.27716e-06 0)
(0.387038 7.22224e-06 0)
(0.387128 -2.40489e-05 0)
(0.387107 -3.91078e-05 0)
(0.392334 -2.27913e-06 0)
(0.392377 5.71418e-06 0)
(0.392481 -2.39717e-05 0)
(0.392478 -3.81553e-05 0)
(0.396945 -1.54913e-06 0)
(0.39693 5.29212e-06 0)
(0.397029 -2.5701e-05 0)
(0.397053 -3.72231e-05 0)
(0.40085 -4.78135e-07 0)
(0.400779 4.63281e-06 0)
(0.400889 -2.64724e-05 0)
(0.400936 -3.61186e-05 0)
(0.404132 -1.15884e-08 0)
(0.404007 4.63938e-06 0)
(0.40414 -2.84458e-05 0)
(0.404203 -3.53367e-05 0)
(0.406884 1.78127e-06 0)
(0.406701 5.14803e-06 0)
(0.40686 -2.99056e-05 0)
(0.406936 -3.43545e-05 0)
(0.409185 2.59003e-06 0)
(0.408938 5.47502e-06 0)
(0.409112 -3.24136e-05 0)
(0.409194 -3.36451e-05 0)
(0.411071 4.91565e-06 0)
(0.410775 6.70518e-06 0)
(0.410958 -3.43963e-05 0)
(0.411041 -3.26368e-05 0)
(0.412588 6.17611e-06 0)
(0.412261 7.71942e-06 0)
(0.412441 -3.68526e-05 0)
(0.41252 -3.1743e-05 0)
(0.413781 8.58264e-06 0)
(0.413435 9.29634e-06 0)
(0.413607 -3.91657e-05 0)
(0.413677 -3.05921e-05 0)
(0.414681 1.00215e-05 0)
(0.414331 1.12277e-05 0)
(0.414484 -4.07177e-05 0)
(0.414541 -3.02291e-05 0)
(0.415318 1.21271e-05 0)
(0.414974 1.30119e-05 0)
(0.415102 -4.28414e-05 0)
(0.415142 -2.83733e-05 0)
(0.415705 1.3155e-05 0)
(0.415384 1.50348e-05 0)
(0.415474 -4.38251e-05 0)
(0.415494 -2.85701e-05 0)
(0.41586 1.53575e-05 0)
(0.415572 1.7654e-05 0)
(0.415616 -4.42391e-05 0)
(0.415614 -2.74604e-05 0)
(0.415781 1.56495e-05 0)
(0.415545 1.89877e-05 0)
(0.415557 -4.50005e-05 0)
(0.415527 -2.71227e-05 0)
(0.41547 1.65415e-05 0)
(0.415301 2.14371e-05 0)
(0.415297 -4.41275e-05 0)
(0.415207 -2.69656e-05 0)
(0.414915 1.63982e-05 0)
(0.414801 2.28001e-05 0)
(0.414786 -4.35667e-05 0)
(0.41465 -2.54493e-05 0)
(0.4141 1.5914e-05 0)
(0.414029 2.35761e-05 0)
(0.414006 -4.17968e-05 0)
(0.413819 -2.40894e-05 0)
(0.413 1.50833e-05 0)
(0.412963 2.48791e-05 0)
(0.412933 -4.00714e-05 0)
(0.412716 -2.24403e-05 0)
(0.411583 1.46153e-05 0)
(0.411567 2.52481e-05 0)
(0.411526 -3.76824e-05 0)
(0.411278 -2.00207e-05 0)
(0.40981 1.31962e-05 0)
(0.409821 2.58614e-05 0)
(0.409769 -3.53189e-05 0)
(0.409516 -1.84312e-05 0)
(0.407603 1.2385e-05 0)
(0.407661 2.62155e-05 0)
(0.407609 -3.27777e-05 0)
(0.407348 -1.67476e-05 0)
(0.404905 1.07954e-05 0)
(0.405022 2.59786e-05 0)
(0.404996 -3.02878e-05 0)
(0.404732 -1.54228e-05 0)
(0.4017 9.71802e-06 0)
(0.40188 2.5036e-05 0)
(0.401866 -2.79896e-05 0)
(0.401587 -1.44026e-05 0)
(0.397912 8.04609e-06 0)
(0.398134 2.35062e-05 0)
(0.398135 -2.5459e-05 0)
(0.397843 -1.33749e-05 0)
(0.393444 6.86748e-06 0)
(0.39372 2.16344e-05 0)
(0.393727 -2.32311e-05 0)
(0.393405 -1.24102e-05 0)
(0.388197 5.11392e-06 0)
(0.38849 1.92647e-05 0)
(0.388505 -2.05722e-05 0)
(0.388178 -1.12941e-05 0)
(0.382059 4.18927e-06 0)
(0.382359 1.66926e-05 0)
(0.382375 -1.80942e-05 0)
(0.382045 -1.01249e-05 0)
(0.374897 2.92817e-06 0)
(0.375187 1.43169e-05 0)
(0.375206 -1.53899e-05 0)
(0.37489 -9.08253e-06 0)
(0.366587 2.45182e-06 0)
(0.36686 1.19598e-05 0)
(0.366874 -1.3032e-05 0)
(0.366571 -7.94551e-06 0)
(0.356959 1.48931e-06 0)
(0.357213 9.83503e-06 0)
(0.357224 -1.05648e-05 0)
(0.356949 -6.9295e-06 0)
(0.34588 1.36553e-06 0)
(0.346104 7.9455e-06 0)
(0.346109 -8.53931e-06 0)
(0.345858 -6.06913e-06 0)
(0.333146 7.6953e-07 0)
(0.333338 6.26847e-06 0)
(0.33334 -6.72601e-06 0)
(0.333134 -5.21452e-06 0)
(0.318605 9.04598e-07 0)
(0.31877 5.00381e-06 0)
(0.318765 -5.20672e-06 0)
(0.318587 -4.5947e-06 0)
(0.30203 7.31227e-07 0)
(0.302175 3.88766e-06 0)
(0.302168 -3.85135e-06 0)
(0.302029 -4.00445e-06 0)
(0.283245 9.2632e-07 0)
(0.28337 3.03808e-06 0)
(0.283359 -2.83303e-06 0)
(0.283244 -3.47129e-06 0)
(0.262003 9.03853e-07 0)
(0.262116 2.25292e-06 0)
(0.262105 -1.91578e-06 0)
(0.262023 -2.9418e-06 0)
(0.238103 1.00846e-06 0)
(0.238203 1.65777e-06 0)
(0.23819 -1.34632e-06 0)
(0.238129 -2.44341e-06 0)
(0.211287 9.60929e-07 0)
(0.211378 1.09453e-06 0)
(0.211365 -8.40233e-07 0)
(0.21133 -1.91962e-06 0)
(0.181324 9.06875e-07 0)
(0.181405 6.7065e-07 0)
(0.181389 -5.98537e-07 0)
(0.181367 -1.46205e-06 0)
(0.14795 7.42461e-07 0)
(0.148021 3.00915e-07 0)
(0.148005 -3.36995e-07 0)
(0.147993 -9.77782e-07 0)
(0.110914 5.35938e-07 0)
(0.110971 7.27779e-08 0)
(0.110954 -2.01244e-07 0)
(0.110946 -5.75885e-07 0)
(0.0699464 2.65674e-07 0)
(0.069985 -5.80217e-08 0)
(0.069971 -8.89649e-08 0)
(0.069968 -2.14797e-07 0)
(0.0247842 9.0215e-08 0)
(0.024798 -3.65861e-08 0)
(0.0247902 1.50152e-08 0)
(0.024789 -3.4268e-08 0)
(0.0837254 4.11142e-06 0)
(0.0836767 1.01715e-05 0)
(0.0836263 2.29586e-05 0)
(0.0836456 -1.80837e-05 0)
(0.117428 3.42268e-06 0)
(0.118113 1.23825e-05 0)
(0.117465 2.457e-05 0)
(0.117313 -1.85888e-05 0)
(0.152653 -7.31581e-06 0)
(0.153169 1.10436e-05 0)
(0.152723 3.33577e-05 0)
(0.152422 -1.84264e-05 0)
(0.184526 -1.62166e-05 0)
(0.184889 9.67e-06 0)
(0.184585 3.75348e-05 0)
(0.184235 -1.40508e-05 0)
(0.213268 -1.91792e-05 0)
(0.213504 1.00789e-05 0)
(0.213317 4.38154e-05 0)
(0.212949 -1.25015e-05 0)
(0.239086 -2.28308e-05 0)
(0.23922 8.33422e-06 0)
(0.239117 4.7234e-05 0)
(0.238784 -8.98215e-06 0)
(0.2622 -2.22228e-05 0)
(0.262262 9.51917e-06 0)
(0.262217 5.00361e-05 0)
(0.261938 -6.55803e-06 0)
(0.282841 -2.33552e-05 0)
(0.282846 7.79878e-06 0)
(0.282841 5.25283e-05 0)
(0.282623 -3.82164e-06 0)
(0.301193 -2.07213e-05 0)
(0.301148 9.55073e-06 0)
(0.301174 5.33343e-05 0)
(0.301029 -2.27551e-06 0)
(0.317456 -2.0508e-05 0)
(0.317371 8.06492e-06 0)
(0.317429 5.41214e-05 0)
(0.317343 -1.06666e-07 0)
(0.331811 -1.71789e-05 0)
(0.331696 9.66001e-06 0)
(0.331781 5.31664e-05 0)
(0.331739 1.18472e-06 0)
(0.344437 -1.59594e-05 0)
(0.344297 8.48488e-06 0)
(0.344416 5.33661e-05 0)
(0.344402 2.53012e-06 0)
(0.355497 -1.26284e-05 0)
(0.355337 9.95722e-06 0)
(0.35549 5.12365e-05 0)
(0.355502 3.75054e-06 0)
(0.365153 -1.13876e-05 0)
(0.364973 8.41609e-06 0)
(0.365151 5.03695e-05 0)
(0.365186 5.7319e-06 0)
(0.373532 -7.83023e-06 0)
(0.373345 9.7509e-06 0)
(0.373536 4.76842e-05 0)
(0.373593 6.46809e-06 0)
(0.380783 -6.68679e-06 0)
(0.380599 8.82414e-06 0)
(0.38079 4.53166e-05 0)
(0.380864 9.53145e-06 0)
(0.387012 -3.79859e-06 0)
(0.386843 8.69177e-06 0)
(0.387029 4.25842e-05 0)
(0.387122 9.94043e-06 0)
(0.392358 -1.56755e-06 0)
(0.392212 9.03273e-06 0)
(0.392378 4.07092e-05 0)
(0.392481 1.1197e-05 0)
(0.396907 5.88917e-07 0)
(0.396778 8.1144e-06 0)
(0.396926 3.74695e-05 0)
(0.397048 1.14991e-05 0)
(0.400782 3.17204e-06 0)
(0.400682 8.33538e-06 0)
(0.400786 3.65005e-05 0)
(0.400916 1.11857e-05 0)
(0.404027 5.52542e-06 0)
(0.403938 8.30139e-06 0)
(0.404015 3.31946e-05 0)
(0.404171 1.07217e-05 0)
(0.406768 7.15336e-06 0)
(0.406724 7.98912e-06 0)
(0.406732 3.23527e-05 0)
(0.406891 1.02073e-05 0)
(0.408995 9.79051e-06 0)
(0.408961 9.12276e-06 0)
(0.40896 2.98754e-05 0)
(0.409165 8.74144e-06 0)
(0.410865 1.04734e-05 0)
(0.410882 7.70323e-06 0)
(0.410817 2.89236e-05 0)
(0.41102 7.23618e-06 0)
(0.412301 1.3621e-05 0)
(0.41228 1.05344e-05 0)
(0.412252 2.69417e-05 0)
(0.412521 4.85656e-06 0)
(0.413514 1.39266e-05 0)
(0.413548 8.06067e-06 0)
(0.413447 2.55615e-05 0)
(0.413691 2.44775e-06 0)
(0.414351 1.63688e-05 0)
(0.414331 1.12486e-05 0)
(0.414278 2.27408e-05 0)
(0.414585 -7.63795e-07 0)
(0.415022 1.70935e-05 0)
(0.415053 9.46058e-06 0)
(0.414936 2.23479e-05 0)
(0.415204 -2.55141e-06 0)
(0.415379 1.87027e-05 0)
(0.415346 1.23453e-05 0)
(0.415273 1.90176e-05 0)
(0.415592 -7.22274e-06 0)
(0.415572 1.86559e-05 0)
(0.415581 1.08816e-05 0)
(0.415468 1.81012e-05 0)
(0.415736 -8.8457e-06 0)
(0.415506 2.07166e-05 0)
(0.415442 1.40016e-05 0)
(0.415355 1.72059e-05 0)
(0.415665 -1.30706e-05 0)
(0.415178 1.99585e-05 0)
(0.415163 1.33146e-05 0)
(0.41509 1.38409e-05 0)
(0.415349 -1.69456e-05 0)
(0.414645 2.13408e-05 0)
(0.41458 1.47828e-05 0)
(0.414511 1.35522e-05 0)
(0.414805 -1.8559e-05 0)
(0.413787 2.16188e-05 0)
(0.413774 1.55575e-05 0)
(0.413738 1.04988e-05 0)
(0.41399 -2.28351e-05 0)
(0.412718 2.2154e-05 0)
(0.412665 1.55937e-05 0)
(0.412616 8.66517e-06 0)
(0.412901 -2.46635e-05 0)
(0.411274 2.23897e-05 0)
(0.411284 1.64877e-05 0)
(0.411251 6.8963e-06 0)
(0.411487 -2.76457e-05 0)
(0.409581 2.24368e-05 0)
(0.409572 1.64893e-05 0)
(0.409488 5.19403e-06 0)
(0.40972 -3.03477e-05 0)
(0.407411 2.1825e-05 0)
(0.40743 1.72722e-05 0)
(0.40737 4.04844e-06 0)
(0.407541 -3.24539e-05 0)
(0.404866 2.11073e-05 0)
(0.404879 1.7453e-05 0)
(0.404769 3.40988e-06 0)
(0.404893 -3.36315e-05 0)
(0.401733 1.97574e-05 0)
(0.40176 1.82639e-05 0)
(0.401672 3.41336e-06 0)
(0.401742 -3.42052e-05 0)
(0.398025 1.83195e-05 0)
(0.398057 1.85974e-05 0)
(0.397949 3.66081e-06 0)
(0.397985 -3.3791e-05 0)
(0.39359 1.65166e-05 0)
(0.39363 1.90289e-05 0)
(0.393564 4.27444e-06 0)
(0.393575 -3.30312e-05 0)
(0.388373 1.46009e-05 0)
(0.388431 1.89332e-05 0)
(0.388361 4.54067e-06 0)
(0.388345 -3.13342e-05 0)
(0.382235 1.26651e-05 0)
(0.382298 1.88409e-05 0)
(0.382291 5.33474e-06 0)
(0.38227 -2.98685e-05 0)
(0.375076 1.04649e-05 0)
(0.375176 1.81381e-05 0)
(0.375148 5.18977e-06 0)
(0.375088 -2.70237e-05 0)
(0.366745 8.35769e-06 0)
(0.366834 1.7349e-05 0)
(0.366857 5.985e-06 0)
(0.366818 -2.52926e-05 0)
(0.35711 6.2219e-06 0)
(0.357236 1.63105e-05 0)
(0.357238 5.99217e-06 0)
(0.357154 -2.20395e-05 0)
(0.346 3.95264e-06 0)
(0.346113 1.48599e-05 0)
(0.346158 6.50564e-06 0)
(0.346098 -2.01653e-05 0)
(0.333256 2.03509e-06 0)
(0.333384 1.34484e-05 0)
(0.333422 6.58447e-06 0)
(0.333329 -1.70141e-05 0)
(0.318686 1.41867e-07 0)
(0.318787 1.18782e-05 0)
(0.318866 6.83741e-06 0)
(0.318802 -1.50345e-05 0)
(0.302102 -1.2252e-06 0)
(0.302198 1.02449e-05 0)
(0.302278 6.4884e-06 0)
(0.302194 -1.22907e-05 0)
(0.283292 -2.36036e-06 0)
(0.283354 8.70935e-06 0)
(0.283467 6.40827e-06 0)
(0.283412 -1.04173e-05 0)
(0.262043 -2.8925e-06 0)
(0.262085 7.15088e-06 0)
(0.262204 5.62029e-06 0)
(0.262141 -8.17049e-06 0)
(0.238125 -3.12122e-06 0)
(0.238134 5.76519e-06 0)
(0.238274 5.05765e-06 0)
(0.238237 -6.60271e-06 0)
(0.211305 -2.81302e-06 0)
(0.211299 4.47505e-06 0)
(0.211437 3.95029e-06 0)
(0.211393 -4.8893e-06 0)
(0.181331 -2.3741e-06 0)
(0.181308 3.33327e-06 0)
(0.18145 3.13251e-06 0)
(0.181421 -3.63021e-06 0)
(0.14795 -1.64805e-06 0)
(0.147927 2.27041e-06 0)
(0.148056 2.01929e-06 0)
(0.148022 -2.35749e-06 0)
(0.110905 -1.03058e-06 0)
(0.110882 1.33937e-06 0)
(0.110994 1.24793e-06 0)
(0.11097 -1.40113e-06 0)
(0.0699358 -4.07189e-07 0)
(0.069922 6.04961e-07 0)
(0.0700003 4.87786e-07 0)
(0.0699795 -6.04857e-07 0)
(0.0247757 -8.32128e-08 0)
(0.0247715 8.36637e-08 0)
(0.0248047 8.20838e-08 0)
(0.0247967 -1.05864e-07 0)
)
;

boundaryField
{
    topWall
    {
        type            noSlip;
    }
    botWall
    {
        type            noSlip;
    }
    inlet
    {
        type            cyclic;
    }
    outlet
    {
        type            cyclic;
    }
    fixWall
    {
        type            empty;
    }
}


// ************************************************************************* //
