/*--------------------------------*- C++ -*----------------------------------*\
  =========                 |
  \\      /  F ield         | OpenFOAM: The Open Source CFD Toolbox
   \\    /   O peration     | Website:  https://openfoam.org
    \\  /    A nd           | Version:  dev
     \\/     M anipulation  |

   OpenFOAM for Windows 20.09 (v1)
   Built by CFD Support, www.cfdsupport.com (based on Symscape).
\*---------------------------------------------------------------------------*/
FoamFile
{
    version     2.0;
    format      ascii;
    class       volVectorField;
    location    "8";
    object      UMean;
}
// * * * * * * * * * * * * * * * * * * * * * * * * * * * * * * * * * * * * * //

dimensions      [0 1 -1 0 0 0 0];

internalField   nonuniform List<vector> 
960
(
(0.00190869 3.65159e-06 0)
(0.00190334 -1.36171e-07 0)
(0.00191886 7.1022e-09 0)
(0.0019176 -1.30641e-08 0)
(0.0053098 -5.43e-07 0)
(0.00530796 -5.68181e-07 0)
(0.00532598 -6.97873e-08 0)
(0.0053181 1.0413e-07 0)
(0.00830396 3.17225e-06 0)
(0.00830519 -7.91683e-07 0)
(0.00832601 -7.6803e-08 0)
(0.00831121 3.561e-07 0)
(0.0109263 2.70024e-07 0)
(0.0109298 -1.16744e-06 0)
(0.0109532 -9.0232e-08 0)
(0.0109321 7.45245e-07 0)
(0.0132109 2.25298e-06 0)
(0.013217 -1.453e-06 0)
(0.0132417 -1.34036e-08 0)
(0.0132151 1.25168e-06 0)
(0.015191 8.44168e-07 0)
(0.0151996 -1.92778e-06 0)
(0.0152247 7.1638e-09 0)
(0.015194 1.83506e-06 0)
(0.0168976 2.69923e-06 0)
(0.0169089 -2.22121e-06 0)
(0.0169341 1.86377e-07 0)
(0.0169003 2.4739e-06 0)
(0.0183609 1.48882e-06 0)
(0.0183747 -2.7736e-06 0)
(0.0183997 2.05232e-07 0)
(0.0183643 3.16313e-06 0)
(0.0196086 2.86883e-06 0)
(0.019625 -3.05486e-06 0)
(0.0196498 4.67753e-07 0)
(0.0196134 3.84082e-06 0)
(0.020667 2.03224e-06 0)
(0.0206857 -3.67409e-06 0)
(0.0207103 4.48925e-07 0)
(0.0206744 4.56661e-06 0)
(0.0215594 2.98619e-06 0)
(0.0215814 -3.96257e-06 0)
(0.0216054 7.75292e-07 0)
(0.0215702 5.21451e-06 0)
(0.0223084 2.49676e-06 0)
(0.0223328 -4.61282e-06 0)
(0.0223562 6.64766e-07 0)
(0.0223236 5.90064e-06 0)
(0.0229326 3.1148e-06 0)
(0.0229614 -4.93543e-06 0)
(0.0229832 1.01731e-06 0)
(0.0229529 6.42022e-06 0)
(0.0234498 2.89275e-06 0)
(0.023482 -5.51386e-06 0)
(0.0235029 9.23782e-07 0)
(0.0234768 7.02164e-06 0)
(0.023875 3.34035e-06 0)
(0.0239138 -6.11633e-06 0)
(0.0239324 1.0758e-06 0)
(0.0239091 7.43461e-06 0)
(0.0242226 3.16048e-06 0)
(0.024266 -6.64152e-06 0)
(0.0242827 1.20484e-06 0)
(0.0242655 7.72573e-06 0)
(0.0245116 3.5899e-06 0)
(0.0245585 -7.40493e-06 0)
(0.0245721 1.14708e-06 0)
(0.0245589 8.00555e-06 0)
(0.0247483 3.46256e-06 0)
(0.0247958 -7.89175e-06 0)
(0.0248085 1.36429e-06 0)
(0.0248002 7.9665e-06 0)
(0.0249413 3.82622e-06 0)
(0.0249904 -8.5711e-06 0)
(0.0250014 1.22921e-06 0)
(0.0249963 8.11454e-06 0)
(0.0250984 3.84078e-06 0)
(0.025147 -9.02974e-06 0)
(0.0251576 1.37562e-06 0)
(0.0251561 7.96341e-06 0)
(0.025226 4.09157e-06 0)
(0.0252746 -9.73558e-06 0)
(0.025284 1.23952e-06 0)
(0.0252851 7.99023e-06 0)
(0.0253294 4.14966e-06 0)
(0.0253768 -1.01981e-05 0)
(0.0253855 1.31497e-06 0)
(0.0253893 7.7582e-06 0)
(0.0254133 4.3733e-06 0)
(0.0254598 -1.08108e-05 0)
(0.0254671 1.20615e-06 0)
(0.0254735 7.70081e-06 0)
(0.0254814 4.47135e-06 0)
(0.0255261 -1.13111e-05 0)
(0.0255323 1.18764e-06 0)
(0.0255413 7.37095e-06 0)
(0.0255373 4.69107e-06 0)
(0.0255804 -1.17764e-05 0)
(0.0255846 1.13003e-06 0)
(0.0255965 7.26099e-06 0)
(0.0255834 4.83322e-06 0)
(0.0256241 -1.22834e-05 0)
(0.0256265 1.0182e-06 0)
(0.0256412 6.86627e-06 0)
(0.0256226 4.93253e-06 0)
(0.0256607 -1.27089e-05 0)
(0.0256607 1.01137e-06 0)
(0.0256789 6.60619e-06 0)
(0.0256565 5.15314e-06 0)
(0.0256909 -1.29878e-05 0)
(0.0256884 8.70499e-07 0)
(0.0257099 6.14934e-06 0)
(0.0256876 5.195e-06 0)
(0.0257178 -1.33697e-05 0)
(0.0257123 8.16991e-07 0)
(0.0257386 5.78618e-06 0)
(0.0257171 5.53783e-06 0)
(0.025741 -1.35822e-05 0)
(0.025732 6.78114e-07 0)
(0.0257634 5.34739e-06 0)
(0.0257445 5.69382e-06 0)
(0.0257637 -1.35927e-05 0)
(0.025753 4.53514e-07 0)
(0.0257889 4.96981e-06 0)
(0.0257715 5.89981e-06 0)
(0.0257858 -1.38232e-05 0)
(0.0257745 3.12609e-07 0)
(0.0258133 4.43996e-06 0)
(0.0258001 6.15035e-06 0)
(0.0258114 -1.37456e-05 0)
(0.0257989 -3.48006e-08 0)
(0.0258404 3.96332e-06 0)
(0.0258309 6.27023e-06 0)
(0.0258398 -1.36988e-05 0)
(0.025826 -1.64118e-07 0)
(0.0258691 3.37753e-06 0)
(0.0258668 6.45556e-06 0)
(0.025874 -1.37089e-05 0)
(0.0258587 -5.47015e-07 0)
(0.0259034 2.79586e-06 0)
(0.0259087 6.72663e-06 0)
(0.0259143 -1.35555e-05 0)
(0.025898 -6.68114e-07 0)
(0.0259434 2.26386e-06 0)
(0.0259596 6.87452e-06 0)
(0.0259637 -1.34905e-05 0)
(0.0259463 -1.03857e-06 0)
(0.0259925 1.74067e-06 0)
(0.0260215 7.10303e-06 0)
(0.026024 -1.3404e-05 0)
(0.026006 -1.19967e-06 0)
(0.0260522 1.06091e-06 0)
(0.0260978 7.30496e-06 0)
(0.0260986 -1.31698e-05 0)
(0.02608 -1.47359e-06 0)
(0.0261259 7.06805e-07 0)
(0.0261917 7.41733e-06 0)
(0.0261906 -1.31676e-05 0)
(0.0261716 -1.73293e-06 0)
(0.0262168 -1.81056e-07 0)
(0.0263078 7.69612e-06 0)
(0.0263045 -1.28588e-05 0)
(0.026285 -1.88857e-06 0)
(0.0263292 -4.13018e-07 0)
(0.0264507 7.78166e-06 0)
(0.0264447 -1.2734e-05 0)
(0.026425 -2.13508e-06 0)
(0.0264678 -1.09457e-06 0)
(0.0266268 7.95888e-06 0)
(0.0266175 -1.23625e-05 0)
(0.0265975 -2.27835e-06 0)
(0.0266383 -1.62783e-06 0)
(0.0268423 7.96493e-06 0)
(0.0268292 -1.21457e-05 0)
(0.0268091 -2.4598e-06 0)
(0.0268476 -1.97745e-06 0)
(0.0271052 8.29645e-06 0)
(0.0270884 -1.18401e-05 0)
(0.0270685 -2.56659e-06 0)
(0.0271035 -2.59808e-06 0)
(0.0274244 8.1084e-06 0)
(0.0274049 -1.15801e-05 0)
(0.0273856 -2.84238e-06 0)
(0.0274123 -3.09862e-06 0)
(0.0278083 8.38817e-06 0)
(0.0277844 -1.13527e-05 0)
(0.0277636 -2.81422e-06 0)
(0.027786 -3.1196e-06 0)
(0.0282695 8.21349e-06 0)
(0.0282412 -1.07123e-05 0)
(0.0282188 -2.93013e-06 0)
(0.028239 -3.48668e-06 0)
(0.0288209 8.22724e-06 0)
(0.028789 -1.04835e-05 0)
(0.0287653 -2.89736e-06 0)
(0.0287838 -3.73573e-06 0)
(0.0294778 8.03124e-06 0)
(0.0294428 -9.60852e-06 0)
(0.0294182 -2.86862e-06 0)
(0.0294357 -3.64161e-06 0)
(0.0302566 8.18772e-06 0)
(0.0302197 -9.37736e-06 0)
(0.0301942 -2.82307e-06 0)
(0.0302107 -4.24894e-06 0)
(0.0311767 7.78055e-06 0)
(0.0311382 -8.59101e-06 0)
(0.031112 -2.8881e-06 0)
(0.0311277 -4.09842e-06 0)
(0.0322572 8.16977e-06 0)
(0.0322189 -8.22079e-06 0)
(0.0321919 -2.64809e-06 0)
(0.0322064 -4.56994e-06 0)
(0.0335224 7.45985e-06 0)
(0.0334837 -7.43829e-06 0)
(0.0334562 -2.81202e-06 0)
(0.0334697 -4.5263e-06 0)
(0.0349933 8.1438e-06 0)
(0.0349564 -7.08569e-06 0)
(0.034929 -2.45263e-06 0)
(0.0349404 -4.89131e-06 0)
(0.0366993 7.04103e-06 0)
(0.036662 -5.99172e-06 0)
(0.0366353 -2.47965e-06 0)
(0.0366451 -4.87537e-06 0)
(0.0386625 8.16901e-06 0)
(0.0386274 -6.46438e-06 0)
(0.0386025 -2.47668e-06 0)
(0.0386092 -5.23279e-06 0)
(0.0409186 6.86224e-06 0)
(0.0408809 -5.1808e-06 0)
(0.0408577 -2.64593e-06 0)
(0.0408637 -5.45713e-06 0)
(0.0434875 8.05147e-06 0)
(0.0434505 -4.29402e-06 0)
(0.0434288 -1.48929e-06 0)
(0.0434337 -4.78271e-06 0)
(0.0464344 7.96031e-06 0)
(0.0463902 -4.46496e-06 0)
(0.0463649 -2.75731e-06 0)
(0.0463727 -5.28134e-06 0)
(0.0019101 3.34975e-08 0)
(0.00190728 -4.84047e-09 0)
(0.00191476 -4.66579e-08 0)
(0.00192451 -4.74598e-08 0)
(0.00529764 2.51497e-07 0)
(0.00529274 -6.65471e-08 0)
(0.00531092 -2.73511e-07 0)
(0.00532617 -2.29784e-07 0)
(0.00828012 5.36429e-07 0)
(0.0082748 -1.99181e-07 0)
(0.00830077 -6.57304e-07 0)
(0.00832026 -2.64552e-07 0)
(0.0108927 9.89135e-07 0)
(0.0108873 -3.89632e-07 0)
(0.0109198 -1.10091e-06 0)
(0.0109433 -4.32395e-07 0)
(0.0131698 1.38662e-06 0)
(0.0131644 -6.26663e-07 0)
(0.0132016 -1.68505e-06 0)
(0.0132281 -5.16882e-07 0)
(0.0151445 1.97369e-06 0)
(0.0151385 -9.03762e-07 0)
(0.0151797 -2.23984e-06 0)
(0.0152083 -7.49909e-07 0)
(0.0168482 2.41268e-06 0)
(0.0168413 -1.19024e-06 0)
(0.0168854 -2.94088e-06 0)
(0.0169152 -8.41388e-07 0)
(0.0183106 3.09214e-06 0)
(0.0183029 -1.50985e-06 0)
(0.0183492 -3.55053e-06 0)
(0.0183791 -1.09701e-06 0)
(0.0195594 3.54249e-06 0)
(0.0195508 -1.80432e-06 0)
(0.0195985 -4.30287e-06 0)
(0.0196275 -1.15571e-06 0)
(0.020621 4.26057e-06 0)
(0.0206118 -2.14673e-06 0)
(0.0206605 -4.92452e-06 0)
(0.0206873 -1.38547e-06 0)
(0.0215189 4.70962e-06 0)
(0.0215092 -2.442e-06 0)
(0.0215581 -5.63588e-06 0)
(0.0215814 -1.36753e-06 0)
(0.0222751 5.39003e-06 0)
(0.0222652 -2.77244e-06 0)
(0.0223147 -6.26296e-06 0)
(0.0223331 -1.49276e-06 0)
(0.022909 5.80055e-06 0)
(0.0228988 -3.10435e-06 0)
(0.0229485 -6.77432e-06 0)
(0.0229604 -1.351e-06 0)
(0.0234385 6.39104e-06 0)
(0.0234287 -3.41618e-06 0)
(0.0234797 -7.41793e-06 0)
(0.0234834 -1.14266e-06 0)
(0.0238783 6.74097e-06 0)
(0.0238692 -3.75538e-06 0)
(0.0239216 -7.77204e-06 0)
(0.0239152 -1.06713e-06 0)
(0.024246 7.08789e-06 0)
(0.0242372 -4.0877e-06 0)
(0.0242902 -8.24964e-06 0)
(0.024273 -4.63525e-07 0)
(0.0245467 7.32359e-06 0)
(0.0245379 -4.36055e-06 0)
(0.0245879 -8.64403e-06 0)
(0.0245631 7.94249e-09 0)
(0.0247931 7.45274e-06 0)
(0.0247844 -4.66728e-06 0)
(0.0248326 -8.79773e-06 0)
(0.0248021 7.22446e-07 0)
(0.0249936 7.67682e-06 0)
(0.0249845 -4.98328e-06 0)
(0.0250303 -9.07398e-06 0)
(0.0249957 1.48251e-06 0)
(0.0251566 7.70008e-06 0)
(0.0251477 -5.22453e-06 0)
(0.0251918 -9.13918e-06 0)
(0.025154 2.33888e-06 0)
(0.0252886 7.89473e-06 0)
(0.0252794 -5.50247e-06 0)
(0.0253216 -9.27949e-06 0)
(0.0252816 3.03229e-06 0)
(0.0253953 7.86511e-06 0)
(0.0253863 -5.73302e-06 0)
(0.0254271 -9.34628e-06 0)
(0.0253853 3.95605e-06 0)
(0.0254817 8.00911e-06 0)
(0.0254723 -5.95552e-06 0)
(0.0255116 -9.40488e-06 0)
(0.0254685 4.69616e-06 0)
(0.0255512 7.96929e-06 0)
(0.0255418 -6.19123e-06 0)
(0.0255801 -9.43074e-06 0)
(0.0255364 5.60808e-06 0)
(0.0256082 8.05824e-06 0)
(0.025598 -6.35506e-06 0)
(0.025635 -9.45269e-06 0)
(0.0255909 6.38676e-06 0)
(0.0256541 8.03253e-06 0)
(0.0256434 -6.61056e-06 0)
(0.02568 -9.45171e-06 0)
(0.0256359 7.32233e-06 0)
(0.0256932 8.04435e-06 0)
(0.0256809 -6.74501e-06 0)
(0.0257162 -9.5592e-06 0)
(0.0256727 7.89217e-06 0)
(0.025725 8.14519e-06 0)
(0.0257117 -6.84644e-06 0)
(0.0257466 -9.30111e-06 0)
(0.0257044 8.99225e-06 0)
(0.0257545 8.07606e-06 0)
(0.0257387 -7.09158e-06 0)
(0.0257716 -9.59682e-06 0)
(0.0257312 9.44873e-06 0)
(0.0257798 8.22702e-06 0)
(0.0257623 -7.04414e-06 0)
(0.0257937 -9.37954e-06 0)
(0.0257561 1.0305e-05 0)
(0.0258071 8.22109e-06 0)
(0.0257857 -7.26653e-06 0)
(0.0258127 -9.42457e-06 0)
(0.0257791 1.10549e-05 0)
(0.0258312 8.2153e-06 0)
(0.0258079 -7.21821e-06 0)
(0.0258334 -9.65772e-06 0)
(0.0258037 1.12571e-05 0)
(0.0258585 8.36283e-06 0)
(0.025833 -7.20224e-06 0)
(0.0258568 -9.3602e-06 0)
(0.0258295 1.20407e-05 0)
(0.0258872 8.38107e-06 0)
(0.0258606 -7.10289e-06 0)
(0.0258843 -9.58741e-06 0)
(0.0258589 1.22087e-05 0)
(0.0259217 8.51676e-06 0)
(0.025894 -7.12908e-06 0)
(0.0259168 -9.4795e-06 0)
(0.0258925 1.27243e-05 0)
(0.0259616 8.65065e-06 0)
(0.0259336 -6.86817e-06 0)
(0.0259561 -9.47572e-06 0)
(0.025933 1.30867e-05 0)
(0.0260107 8.67601e-06 0)
(0.0259828 -7.03141e-06 0)
(0.0260043 -9.59123e-06 0)
(0.0259819 1.34653e-05 0)
(0.0260702 8.85949e-06 0)
(0.026043 -6.70363e-06 0)
(0.0260635 -9.53064e-06 0)
(0.0260419 1.37601e-05 0)
(0.026144 8.87301e-06 0)
(0.026118 -6.87286e-06 0)
(0.0261366 -9.63382e-06 0)
(0.0261159 1.41601e-05 0)
(0.0262346 9.00842e-06 0)
(0.0262103 -6.52342e-06 0)
(0.026227 -9.55991e-06 0)
(0.0262071 1.42993e-05 0)
(0.0263468 9.02909e-06 0)
(0.0263248 -6.69125e-06 0)
(0.0263385 -9.58754e-06 0)
(0.0263199 1.47391e-05 0)
(0.0264847 9.22213e-06 0)
(0.0264654 -6.3111e-06 0)
(0.0264759 -9.57376e-06 0)
(0.0264587 1.48422e-05 0)
(0.0266549 8.93778e-06 0)
(0.026639 -6.58108e-06 0)
(0.0266449 -9.66186e-06 0)
(0.0266296 1.50289e-05 0)
(0.0268627 9.29629e-06 0)
(0.0268509 -6.11902e-06 0)
(0.0268519 -9.44315e-06 0)
(0.0268386 1.52309e-05 0)
(0.0271174 9.0519e-06 0)
(0.027111 -6.25201e-06 0)
(0.0271052 -9.57576e-06 0)
(0.0270939 1.51004e-05 0)
(0.0274228 9.00729e-06 0)
(0.0274263 -5.97274e-06 0)
(0.0274124 -9.1763e-06 0)
(0.0274023 1.50074e-05 0)
(0.0277967 9.14804e-06 0)
(0.0278075 -5.7615e-06 0)
(0.0277868 -8.93953e-06 0)
(0.0277783 1.49245e-05 0)
(0.0282495 8.52587e-06 0)
(0.0282653 -5.88848e-06 0)
(0.0282393 -8.8135e-06 0)
(0.0282325 1.45442e-05 0)
(0.0287945 8.57615e-06 0)
(0.0288141 -5.56125e-06 0)
(0.0287844 -8.30648e-06 0)
(0.0287795 1.41984e-05 0)
(0.0294462 8.07116e-06 0)
(0.0294685 -5.72572e-06 0)
(0.0294357 -8.22753e-06 0)
(0.0294321 1.4036e-05 0)
(0.0302215 7.85991e-06 0)
(0.0302458 -5.43244e-06 0)
(0.0302111 -7.75693e-06 0)
(0.030209 1.32489e-05 0)
(0.0311386 7.45263e-06 0)
(0.0311643 -5.47322e-06 0)
(0.0311276 -7.46906e-06 0)
(0.0311263 1.31962e-05 0)
(0.0322179 7.25752e-06 0)
(0.0322448 -5.30446e-06 0)
(0.0322073 -7.08472e-06 0)
(0.0322066 1.23288e-05 0)
(0.0334814 6.73893e-06 0)
(0.033509 -5.13838e-06 0)
(0.03347 -6.75941e-06 0)
(0.0334694 1.22731e-05 0)
(0.0349525 6.57615e-06 0)
(0.034981 -5.31193e-06 0)
(0.0349423 -6.44135e-06 0)
(0.0349418 1.133e-05 0)
(0.0366568 5.92414e-06 0)
(0.0366854 -4.64133e-06 0)
(0.036646 -6.0633e-06 0)
(0.0366453 1.0947e-05 0)
(0.0386203 6.03304e-06 0)
(0.0386495 -5.38889e-06 0)
(0.0386118 -5.56428e-06 0)
(0.0386115 1.10453e-05 0)
(0.0408719 5.31018e-06 0)
(0.0409 -4.4032e-06 0)
(0.0408634 -5.26899e-06 0)
(0.0408645 1.03457e-05 0)
(0.0434387 5.05695e-06 0)
(0.0434655 -5.08044e-06 0)
(0.0434348 -5.00939e-06 0)
(0.0434405 8.95585e-06 0)
(0.0463704 5.09758e-06 0)
(0.046399 -4.57976e-06 0)
(0.0463675 -4.90918e-06 0)
(0.0463754 1.07039e-05 0)
(0.0520876 7.02271e-06 0)
(0.0520462 -3.2524e-06 0)
(0.0519933 -1.64989e-06 0)
(0.0520205 -5.14445e-06 0)
(0.079079 4.8922e-06 0)
(0.0792508 -1.65332e-06 0)
(0.0789201 7.17775e-07 0)
(0.0791641 -5.7368e-06 0)
(0.104978 1.16588e-06 0)
(0.105096 -2.94776e-06 0)
(0.104804 -5.05758e-06 0)
(0.10503 -1.09872e-05 0)
(0.127681 3.80418e-06 0)
(0.127755 8.65979e-07 0)
(0.127519 3.33829e-06 0)
(0.127716 -9.28262e-06 0)
(0.147466 -3.5992e-06 0)
(0.147528 3.84089e-06 0)
(0.147342 -1.88803e-06 0)
(0.147503 -1.25512e-05 0)
(0.164637 2.68879e-06 0)
(0.164684 -1.3087e-07 0)
(0.164542 1.12527e-06 0)
(0.16467 -1.35852e-05 0)
(0.179441 -5.84674e-06 0)
(0.179493 6.08643e-06 0)
(0.17939 -6.109e-07 0)
(0.179481 -1.32005e-05 0)
(0.192164 8.05201e-07 0)
(0.192208 1.6476e-06 0)
(0.192132 1.60659e-06 0)
(0.192204 -1.49653e-05 0)
(0.203023 -6.34998e-06 0)
(0.203072 6.03066e-06 0)
(0.203019 -5.01752e-07 0)
(0.203069 -1.36037e-05 0)
(0.212256 -2.15354e-06 0)
(0.2123 2.17771e-06 0)
(0.212273 1.35826e-06 0)
(0.212312 -1.56659e-05 0)
(0.22006 -6.12702e-06 0)
(0.220106 5.07599e-06 0)
(0.2201 -3.01302e-07 0)
(0.220125 -1.37789e-05 0)
(0.226634 -4.21705e-06 0)
(0.226661 2.75511e-06 0)
(0.226681 1.17373e-06 0)
(0.226705 -1.33454e-05 0)
(0.232136 -6.22042e-06 0)
(0.232149 4.01476e-06 0)
(0.232188 -1.01412e-06 0)
(0.232208 -1.42401e-05 0)
(0.236726 -5.04e-06 0)
(0.236714 2.4346e-06 0)
(0.236774 1.77049e-07 0)
(0.236798 -1.07529e-05 0)
(0.240527 -5.7606e-06 0)
(0.240499 3.61781e-06 0)
(0.240573 -1.88046e-06 0)
(0.240596 -1.21102e-05 0)
(0.243674 -4.83798e-06 0)
(0.243613 8.71883e-07 0)
(0.243707 -2.39269e-06 0)
(0.243737 -1.16665e-05 0)
(0.246265 -4.47771e-06 0)
(0.246173 2.22624e-06 0)
(0.246282 -2.97942e-06 0)
(0.246314 -8.42259e-06 0)
(0.248386 -2.94386e-06 0)
(0.248265 1.9587e-06 0)
(0.248388 -4.54658e-06 0)
(0.248427 -9.49847e-06 0)
(0.250116 -2.5948e-06 0)
(0.249967 1.33332e-06 0)
(0.250102 -5.91567e-06 0)
(0.250145 -7.73568e-06 0)
(0.251517 -7.28374e-07 0)
(0.251345 3.39597e-06 0)
(0.251489 -6.94085e-06 0)
(0.251537 -5.32198e-06 0)
(0.252644 6.42661e-08 0)
(0.252453 2.04073e-06 0)
(0.252607 -9.31097e-06 0)
(0.252657 -7.09819e-06 0)
(0.253547 1.4278e-06 0)
(0.25334 3.58878e-06 0)
(0.253501 -1.05883e-05 0)
(0.253552 -3.86883e-06 0)
(0.254267 2.93719e-06 0)
(0.254046 3.30582e-06 0)
(0.254209 -1.24005e-05 0)
(0.254262 -4.99245e-06 0)
(0.254834 3.88135e-06 0)
(0.254603 4.36768e-06 0)
(0.254766 -1.43824e-05 0)
(0.254816 -3.2583e-06 0)
(0.255272 5.75809e-06 0)
(0.255039 4.93981e-06 0)
(0.255196 -1.57756e-05 0)
(0.255245 -3.65771e-06 0)
(0.255605 6.81418e-06 0)
(0.255372 5.79541e-06 0)
(0.255521 -1.78694e-05 0)
(0.255566 -2.78821e-06 0)
(0.255847 7.62676e-06 0)
(0.255622 5.94696e-06 0)
(0.255758 -1.90984e-05 0)
(0.255801 -3.43265e-06 0)
(0.256013 9.69624e-06 0)
(0.255798 7.98847e-06 0)
(0.255921 -2.04014e-05 0)
(0.255955 -2.58556e-06 0)
(0.256109 9.90895e-06 0)
(0.255913 7.35771e-06 0)
(0.256019 -2.18566e-05 0)
(0.256044 -3.35943e-06 0)
(0.256144 1.10772e-05 0)
(0.255968 9.37925e-06 0)
(0.256054 -2.24617e-05 0)
(0.256064 -2.78948e-06 0)
(0.256117 1.25e-05 0)
(0.255974 1.03408e-05 0)
(0.256039 -2.33668e-05 0)
(0.256037 -2.71488e-06 0)
(0.256029 1.17628e-05 0)
(0.255918 9.86139e-06 0)
(0.255968 -2.42117e-05 0)
(0.255935 -3.08789e-06 0)
(0.255874 1.28284e-05 0)
(0.255809 1.17036e-05 0)
(0.25584 -2.34551e-05 0)
(0.255782 -2.57303e-06 0)
(0.255643 1.22197e-05 0)
(0.255616 1.10668e-05 0)
(0.255633 -2.36394e-05 0)
(0.25554 -2.80049e-06 0)
(0.255332 1.20403e-05 0)
(0.25535 1.11919e-05 0)
(0.255352 -2.23106e-05 0)
(0.255233 -2.56866e-06 0)
(0.254927 1.13616e-05 0)
(0.254972 1.15332e-05 0)
(0.254965 -2.12561e-05 0)
(0.254827 -2.21107e-06 0)
(0.254409 1.09315e-05 0)
(0.254481 1.0738e-05 0)
(0.254468 -2.00899e-05 0)
(0.254319 -2.15223e-06 0)
(0.253744 9.93404e-06 0)
(0.253841 1.05432e-05 0)
(0.25383 -1.85503e-05 0)
(0.253672 -1.91378e-06 0)
(0.252917 9.44457e-06 0)
(0.253033 9.63064e-06 0)
(0.253026 -1.72897e-05 0)
(0.252864 -1.87516e-06 0)
(0.251891 8.71233e-06 0)
(0.252023 8.87355e-06 0)
(0.252017 -1.57189e-05 0)
(0.251851 -1.77385e-06 0)
(0.250624 8.3451e-06 0)
(0.250761 7.7827e-06 0)
(0.250758 -1.44365e-05 0)
(0.250594 -1.74845e-06 0)
(0.249056 7.93135e-06 0)
(0.249201 6.83841e-06 0)
(0.249198 -1.29211e-05 0)
(0.249032 -1.70346e-06 0)
(0.247128 7.64622e-06 0)
(0.247262 5.6236e-06 0)
(0.247261 -1.17289e-05 0)
(0.247107 -1.75278e-06 0)
(0.244755 7.62384e-06 0)
(0.244887 4.63944e-06 0)
(0.244884 -1.02736e-05 0)
(0.244735 -1.52181e-06 0)
(0.241855 7.3634e-06 0)
(0.241973 3.70843e-06 0)
(0.241971 -9.14281e-06 0)
(0.241835 -1.62823e-06 0)
(0.238314 7.21152e-06 0)
(0.238429 2.95519e-06 0)
(0.238424 -8.00961e-06 0)
(0.238296 -1.49008e-06 0)
(0.234022 7.13636e-06 0)
(0.234117 2.2232e-06 0)
(0.234114 -6.8611e-06 0)
(0.234003 -1.39783e-06 0)
(0.228828 6.77631e-06 0)
(0.228919 1.67821e-06 0)
(0.228911 -6.11601e-06 0)
(0.228812 -1.4109e-06 0)
(0.222588 6.68941e-06 0)
(0.222662 1.06642e-06 0)
(0.222653 -5.18499e-06 0)
(0.222573 -1.26248e-06 0)
(0.215112 6.42525e-06 0)
(0.215182 6.58216e-07 0)
(0.215167 -4.58135e-06 0)
(0.215101 -1.06229e-06 0)
(0.206207 5.96416e-06 0)
(0.206274 3.16747e-07 0)
(0.206252 -3.85921e-06 0)
(0.206201 -9.57259e-07 0)
(0.195654 5.39623e-06 0)
(0.195724 1.47997e-07 0)
(0.19569 -3.34891e-06 0)
(0.195652 -7.73676e-07 0)
(0.183215 4.65069e-06 0)
(0.183283 -5.93486e-08 0)
(0.183243 -2.6858e-06 0)
(0.183215 -6.25881e-07 0)
(0.168629 3.84311e-06 0)
(0.168697 -1.32662e-07 0)
(0.168652 -2.20567e-06 0)
(0.168631 -4.89895e-07 0)
(0.151616 3.01294e-06 0)
(0.151678 -2.27152e-07 0)
(0.151634 -1.61996e-06 0)
(0.151619 -3.56521e-07 0)
(0.131877 2.22605e-06 0)
(0.131933 -2.26166e-07 0)
(0.13189 -1.20895e-06 0)
(0.13188 -2.60882e-07 0)
(0.109096 1.48988e-06 0)
(0.109143 -2.23198e-07 0)
(0.109105 -7.53706e-07 0)
(0.109098 -1.67615e-07 0)
(0.0829413 8.73752e-07 0)
(0.0829789 -1.78977e-07 0)
(0.0829476 -4.44576e-07 0)
(0.0829423 -9.47671e-08 0)
(0.0530717 3.71447e-07 0)
(0.0530965 -1.2571e-07 0)
(0.0530748 -1.79394e-07 0)
(0.053071 -2.68469e-08 0)
(0.0191366 6.71348e-08 0)
(0.0191456 -3.36846e-08 0)
(0.0191359 -2.11162e-08 0)
(0.0191342 -2.42622e-09 0)
(0.0520076 4.49568e-06 0)
(0.052045 -4.81978e-06 0)
(0.0520182 -4.57334e-06 0)
(0.0520214 8.2602e-06 0)
(0.079208 3.74778e-06 0)
(0.0792575 -4.86219e-06 0)
(0.0792165 -3.59483e-06 0)
(0.0789031 4.52833e-06 0)
(0.105043 4.16753e-06 0)
(0.105064 -4.4332e-06 0)
(0.105074 -5.35127e-07 0)
(0.104864 1.54492e-05 0)
(0.127704 3.39669e-06 0)
(0.12771 -6.97645e-06 0)
(0.127745 1.02255e-06 0)
(0.127585 6.09967e-06 0)
(0.147478 2.74417e-06 0)
(0.14748 -3.20087e-06 0)
(0.147531 1.17014e-06 0)
(0.147409 1.25094e-05 0)
(0.164639 5.05428e-06 0)
(0.16464 -9.19614e-06 0)
(0.164686 3.04306e-06 0)
(0.164579 1.10751e-05 0)
(0.179448 2.71843e-06 0)
(0.179456 -4.01282e-06 0)
(0.1795 2.04901e-06 0)
(0.1794 1.21225e-05 0)
(0.192168 5.47909e-06 0)
(0.192177 -9.17422e-06 0)
(0.192216 3.9122e-06 0)
(0.192123 1.12268e-05 0)
(0.20303 3.33592e-06 0)
(0.203044 -6.04429e-06 0)
(0.20308 3.35219e-06 0)
(0.202994 1.38159e-05 0)
(0.212259 5.55088e-06 0)
(0.212272 -8.99149e-06 0)
(0.212311 4.60646e-06 0)
(0.212231 1.15518e-05 0)
(0.220056 4.25523e-06 0)
(0.220076 -7.84632e-06 0)
(0.220122 4.89079e-06 0)
(0.220046 1.5077e-05 0)
(0.226609 6.84276e-06 0)
(0.226632 -9.07748e-06 0)
(0.226686 4.63459e-06 0)
(0.226622 1.29282e-05 0)
(0.232096 4.66756e-06 0)
(0.232125 -1.05144e-05 0)
(0.232188 4.34152e-06 0)
(0.232134 1.47225e-05 0)
(0.236667 8.58419e-06 0)
(0.236695 -9.86308e-06 0)
(0.236762 4.82378e-06 0)
(0.236728 1.48894e-05 0)
(0.240457 6.83032e-06 0)
(0.240488 -1.24058e-05 0)
(0.24056 3.42659e-06 0)
(0.240541 1.4486e-05 0)
(0.243587 8.24129e-06 0)
(0.243613 -1.22134e-05 0)
(0.243681 4.91323e-06 0)
(0.243692 1.4876e-05 0)
(0.246157 1.13758e-05 0)
(0.246182 -1.24999e-05 0)
(0.24624 3.98398e-06 0)
(0.24628 1.5799e-05 0)
(0.248264 9.258e-06 0)
(0.248281 -1.44871e-05 0)
(0.248322 2.63917e-06 0)
(0.248393 1.39897e-05 0)
(0.249978 1.37947e-05 0)
(0.249991 -1.33849e-05 0)
(0.250014 2.11875e-06 0)
(0.250112 1.40074e-05 0)
(0.251375 1.26836e-05 0)
(0.251384 -1.50885e-05 0)
(0.251378 3.05794e-07 0)
(0.2515 1.34636e-05 0)
(0.252498 1.53321e-05 0)
(0.2525 -1.38274e-05 0)
(0.25247 -4.82242e-07 0)
(0.252614 1.05394e-05 0)
(0.253411 1.55345e-05 0)
(0.253411 -1.46384e-05 0)
(0.253344 -1.03963e-06 0)
(0.253505 1.07794e-05 0)
(0.254131 1.79499e-05 0)
(0.254125 -1.24438e-05 0)
(0.254038 -1.86195e-06 0)
(0.254216 7.69347e-06 0)
(0.254713 1.76567e-05 0)
(0.254714 -1.33785e-05 0)
(0.254592 -2.52861e-06 0)
(0.254775 6.61535e-06 0)
(0.255149 1.9829e-05 0)
(0.255138 -1.0321e-05 0)
(0.255013 -2.87893e-06 0)
(0.25521 3.96502e-06 0)
(0.255498 1.94673e-05 0)
(0.255498 -1.12657e-05 0)
(0.255348 -3.45047e-06 0)
(0.255538 2.74759e-06 0)
(0.255738 2.0542e-05 0)
(0.255723 -8.13778e-06 0)
(0.255582 -4.553e-06 0)
(0.25578 -1.36876e-06 0)
(0.25592 2.12863e-05 0)
(0.255918 -7.89419e-06 0)
(0.25576 -2.70754e-06 0)
(0.255945 -9.50659e-07 0)
(0.256011 2.1001e-05 0)
(0.255994 -6.17488e-06 0)
(0.255857 -5.60655e-06 0)
(0.256044 -5.47787e-06 0)
(0.256059 2.17354e-05 0)
(0.256056 -4.73872e-06 0)
(0.255912 -3.68763e-06 0)
(0.256081 -6.02163e-06 0)
(0.25604 2.22215e-05 0)
(0.256017 -3.67051e-06 0)
(0.255891 -4.85904e-06 0)
(0.256058 -6.95962e-06 0)
(0.255958 2.08366e-05 0)
(0.255954 -3.12367e-06 0)
(0.255829 -7.07244e-06 0)
(0.255976 -1.09956e-05 0)
(0.255823 2.23157e-05 0)
(0.255805 -1.19176e-06 0)
(0.255689 -4.50121e-06 0)
(0.255828 -1.00742e-05 0)
(0.255608 2.04769e-05 0)
(0.255611 -7.78151e-07 0)
(0.255493 -7.07755e-06 0)
(0.255608 -1.34539e-05 0)
(0.255325 2.07354e-05 0)
(0.255322 4.59591e-07 0)
(0.255205 -5.17028e-06 0)
(0.255305 -1.35397e-05 0)
(0.254937 1.95116e-05 0)
(0.25495 1.73954e-06 0)
(0.254836 -5.47087e-06 0)
(0.254913 -1.47e-05 0)
(0.254447 1.8486e-05 0)
(0.254459 2.06826e-06 0)
(0.254348 -5.1734e-06 0)
(0.25441 -1.50715e-05 0)
(0.25381 1.72011e-05 0)
(0.253829 3.15334e-06 0)
(0.253731 -4.74376e-06 0)
(0.253771 -1.54821e-05 0)
(0.253015 1.58265e-05 0)
(0.253034 3.53473e-06 0)
(0.252946 -4.23504e-06 0)
(0.252972 -1.51799e-05 0)
(0.252007 1.44008e-05 0)
(0.25203 4.17663e-06 0)
(0.251963 -3.79091e-06 0)
(0.251975 -1.47944e-05 0)
(0.250753 1.2805e-05 0)
(0.250777 4.30574e-06 0)
(0.250726 -3.4023e-06 0)
(0.25073 -1.38683e-05 0)
(0.249188 1.13895e-05 0)
(0.249215 4.62136e-06 0)
(0.24918 -2.97106e-06 0)
(0.249177 -1.28861e-05 0)
(0.247259 9.74878e-06 0)
(0.24729 4.40829e-06 0)
(0.247264 -2.80783e-06 0)
(0.247257 -1.18082e-05 0)
(0.244877 8.49781e-06 0)
(0.24491 4.53559e-06 0)
(0.244894 -2.43112e-06 0)
(0.24488 -1.03192e-05 0)
(0.241968 6.81553e-06 0)
(0.242006 4.29617e-06 0)
(0.241987 -2.36437e-06 0)
(0.241971 -9.21602e-06 0)
(0.238408 5.44589e-06 0)
(0.238443 4.02096e-06 0)
(0.238443 -2.21901e-06 0)
(0.238426 -8.04447e-06 0)
(0.234105 4.29482e-06 0)
(0.234144 3.90323e-06 0)
(0.234134 -2.03416e-06 0)
(0.234115 -6.69966e-06 0)
(0.228891 2.97936e-06 0)
(0.228927 3.42501e-06 0)
(0.228935 -1.97102e-06 0)
(0.228913 -6.06547e-06 0)
(0.222641 2.33653e-06 0)
(0.222679 3.21575e-06 0)
(0.222676 -1.71265e-06 0)
(0.222649 -4.93063e-06 0)
(0.215143 1.48966e-06 0)
(0.215177 2.81041e-06 0)
(0.215193 -1.57019e-06 0)
(0.215159 -4.24267e-06 0)
(0.206232 9.65107e-07 0)
(0.206267 2.47391e-06 0)
(0.206275 -1.39104e-06 0)
(0.206227 -3.47239e-06 0)
(0.195667 4.6557e-07 0)
(0.195692 2.04071e-06 0)
(0.195715 -1.11882e-06 0)
(0.195662 -2.88925e-06 0)
(0.183225 2.23745e-07 0)
(0.183248 1.71807e-06 0)
(0.183267 -8.54044e-07 0)
(0.183205 -2.27388e-06 0)
(0.168632 -3.24229e-08 0)
(0.168647 1.31016e-06 0)
(0.168675 -5.61398e-07 0)
(0.168615 -1.81787e-06 0)
(0.151618 -9.4868e-08 0)
(0.15163 1.01951e-06 0)
(0.151655 -3.34031e-07 0)
(0.151597 -1.3282e-06 0)
(0.131876 -1.7107e-07 0)
(0.13188 7.01607e-07 0)
(0.131909 -1.3435e-07 0)
(0.131859 -9.76932e-07 0)
(0.109093 -1.2752e-07 0)
(0.109095 4.75832e-07 0)
(0.109119 -2.55713e-08 0)
(0.109078 -6.30597e-07 0)
(0.0829363 -9.26422e-08 0)
(0.0829351 2.66627e-07 0)
(0.0829583 4.08873e-08 0)
(0.0829279 -3.92738e-07 0)
(0.0530667 -1.7942e-08 0)
(0.053066 1.08462e-07 0)
(0.0530826 2.85634e-08 0)
(0.0530626 -1.46334e-07 0)
(0.0191328 -5.97163e-09 0)
(0.0191328 2.90986e-08 0)
(0.01914 2.2302e-08 0)
(0.0191329 -6.00891e-08 0)
)
;

boundaryField
{
    topWall
    {
        type            calculated;
        value           uniform (0 0 0);
    }
    botWall
    {
        type            calculated;
        value           uniform (0 0 0);
    }
    inlet
    {
        type            cyclic;
    }
    outlet
    {
        type            cyclic;
    }
    fixWall
    {
        type            empty;
    }
}


// ************************************************************************* //
