/*--------------------------------*- C++ -*----------------------------------*\
  =========                 |
  \\      /  F ield         | OpenFOAM: The Open Source CFD Toolbox
   \\    /   O peration     | Website:  https://openfoam.org
    \\  /    A nd           | Version:  dev
     \\/     M anipulation  |

   OpenFOAM for Windows 20.09 (v1)
   Built by CFD Support, www.cfdsupport.com (based on Symscape).
\*---------------------------------------------------------------------------*/
FoamFile
{
    version     2.0;
    format      ascii;
    class       surfaceScalarField;
    location    "2";
    object      alphaPhi0.water;
}
// * * * * * * * * * * * * * * * * * * * * * * * * * * * * * * * * * * * * * //

dimensions      [0 3 -1 0 0 0 0];

internalField   nonuniform List<scalar> 
217
(
1.33075e-08
-3.5371e-10
1.3323e-08
-9.25914e-10
1.33279e-08
4.35051e-11
7.79868e-10
1.33243e-08
1.33068e-08
-3.51719e-10
1.33215e-08
-9.40657e-10
1.33267e-08
3.82787e-11
7.81885e-10
1.33247e-08
1.33067e-08
-3.46937e-10
1.33201e-08
-9.54076e-10
1.33257e-08
3.26473e-11
7.82114e-10
1.33255e-08
1.33076e-08
-3.40965e-10
1.33203e-08
-9.66832e-10
1.33261e-08
2.68706e-11
7.81444e-10
1.33268e-08
1.33081e-08
-3.33485e-10
1.33208e-08
-9.79542e-10
1.33271e-08
2.05679e-11
7.8008e-10
1.33285e-08
1.33098e-08
-3.25337e-10
1.3323e-08
-9.92657e-10
1.33293e-08
1.41929e-11
7.78235e-10
1.33312e-08
1.33123e-08
-3.16388e-10
1.33258e-08
-1.00618e-09
1.33325e-08
7.48045e-12
7.75976e-10
1.33348e-08
1.33167e-08
-3.07054e-10
1.33306e-08
-1.02005e-09
1.33376e-08
5.38215e-13
7.73527e-10
1.334e-08
1.33233e-08
-2.97287e-10
1.33375e-08
-1.03423e-09
1.33447e-08
-6.63139e-12
7.70847e-10
1.33474e-08
1.33335e-08
-2.87098e-10
1.33477e-08
-1.0485e-09
1.33552e-08
-1.41098e-11
7.67778e-10
1.33583e-08
1.33484e-08
-2.76551e-10
1.33625e-08
-1.06262e-09
1.337e-08
-2.16558e-11
7.64273e-10
1.33735e-08
1.33702e-08
-2.65802e-10
1.33833e-08
-1.0757e-09
1.33913e-08
-2.9704e-11
7.59889e-10
1.33957e-08
1.34014e-08
-2.54897e-10
1.34129e-08
-1.08722e-09
1.34208e-08
-3.76155e-11
7.54224e-10
1.34265e-08
1.34453e-08
-2.43482e-10
1.34539e-08
-1.09581e-09
1.34619e-08
-4.556e-11
7.46465e-10
1.34696e-08
1.35068e-08
1.35104e-08
1.35171e-08
1.35292e-08
1.33157e-08
1.54461e-10
1.33099e-08
-9.67885e-12
1.33096e-08
-3.0342e-10
6.05359e-10
1.33154e-08
1.63814e-10
1.33094e-08
-3.69146e-12
1.33085e-08
-3.02572e-10
6.05135e-10
1.33153e-08
1.73948e-10
1.33094e-08
2.20478e-12
1.33112e-08
-3.04367e-10
6.04937e-10
1.33156e-08
1.8509e-10
1.3309e-08
8.83575e-12
1.33132e-08
-3.08544e-10
6.04573e-10
1.33166e-08
1.96995e-10
1.331e-08
1.5362e-11
1.33158e-08
-3.14291e-10
6.04745e-10
1.33184e-08
2.09785e-10
1.33115e-08
2.22575e-11
1.33184e-08
-3.21215e-10
6.05109e-10
1.33215e-08
2.23052e-10
1.33146e-08
2.91736e-11
1.33222e-08
-3.288e-10
6.05983e-10
1.33265e-08
2.36555e-10
1.33193e-08
3.63349e-11
1.33272e-08
-3.36684e-10
6.07073e-10
1.33338e-08
2.50119e-10
1.33266e-08
4.35015e-11
1.33346e-08
-3.44667e-10
6.08522e-10
1.33448e-08
2.63634e-10
1.33374e-08
5.0804e-11
1.33452e-08
-3.52478e-10
6.10117e-10
1.33602e-08
2.76969e-10
1.33531e-08
5.79161e-11
1.33606e-08
-3.59939e-10
6.11737e-10
1.33828e-08
2.89853e-10
1.33756e-08
6.51938e-11
1.33827e-08
-3.67039e-10
6.13442e-10
1.3414e-08
3.02355e-10
1.34071e-08
7.21075e-11
1.34136e-08
-3.73515e-10
6.14719e-10
1.34584e-08
3.136e-10
1.34514e-08
7.90891e-11
1.34567e-08
-3.78831e-10
6.14729e-10
1.35186e-08
1.35115e-08
1.35156e-08
)
;

boundaryField
{
    topWall
    {
        type            calculated;
        value           nonuniform List<scalar> 0();
    }
    botWall
    {
        type            calculated;
        value           nonuniform List<scalar> 0();
    }
    inlet
    {
        type            cyclic;
        value           nonuniform List<scalar> 
15
(
-1.35178e-08
-1.34567e-08
-1.34123e-08
-1.3381e-08
-1.33589e-08
-1.33436e-08
-1.33331e-08
-1.33261e-08
-1.33213e-08
-1.3318e-08
-1.33156e-08
-1.33135e-08
-1.33114e-08
-1.33088e-08
-1.33025e-08
)
;
    }
    outlet
    {
        type            cyclic;
        value           nonuniform List<scalar> 
15
(
1.35178e-08
1.34567e-08
1.34123e-08
1.3381e-08
1.33589e-08
1.33436e-08
1.33331e-08
1.33261e-08
1.33213e-08
1.3318e-08
1.33156e-08
1.33135e-08
1.33114e-08
1.33088e-08
1.33025e-08
)
;
    }
    fixWall
    {
        type            empty;
        value           nonuniform List<scalar> 0();
    }
    procBoundary2to1
    {
        type            processor;
        value           nonuniform List<scalar> 8(3.48731e-10 9.10493e-10 -4.80225e-11 -7.75679e-10 -1.4739e-10 1.41371e-11 3.04599e-10 -5.97378e-10);
    }
    procBoundary2to3
    {
        type            processor;
        value           nonuniform List<scalar> 8(-2.32524e-10 -1.10017e-09 -5.23932e-11 7.34006e-10 3.23856e-10 8.55678e-11 -3.84687e-10 6.12892e-10);
    }
}


// ************************************************************************* //
