/*--------------------------------*- C++ -*----------------------------------*\
  =========                 |
  \\      /  F ield         | OpenFOAM: The Open Source CFD Toolbox
   \\    /   O peration     | Website:  https://openfoam.org
    \\  /    A nd           | Version:  dev
     \\/     M anipulation  |

   OpenFOAM for Windows 20.09 (v1)
   Built by CFD Support, www.cfdsupport.com (based on Symscape).
\*---------------------------------------------------------------------------*/
FoamFile
{
    version     2.0;
    format      ascii;
    class       volSymmTensorField;
    location    "2";
    object      devReff;
}
// * * * * * * * * * * * * * * * * * * * * * * * * * * * * * * * * * * * * * //

dimensions      [0 2 -2 0 0 0 0];

internalField   nonuniform List<symmTensor> 
120
(
(-4.21973e-09 -9.27607e-07 -0 -4.08915e-09 -0 8.30888e-09)
(-1.82715e-07 4.02196e-07 -0 2.1331e-07 -0 -3.0595e-08)
(-8.8031e-08 1.413e-06 -0 1.02319e-07 -0 -1.42879e-08)
(4.67007e-08 3.99182e-07 -0 -3.77769e-08 -0 -8.92387e-09)
(2.67133e-08 -6.78566e-07 -0 -4.07213e-08 -0 1.40081e-08)
(-1.18342e-07 2.28972e-07 -0 1.10849e-07 -0 7.493e-09)
(-6.99205e-08 5.4482e-07 -0 5.89875e-08 -0 1.0933e-08)
(2.68017e-08 -4.43433e-08 -0 -1.83919e-08 -0 -8.4098e-09)
(2.93108e-08 -4.7254e-07 -0 -3.09753e-08 -0 1.66455e-09)
(-1.02684e-07 1.42868e-08 -0 9.8257e-08 -0 4.4272e-09)
(-8.04018e-08 2.16811e-07 -0 7.81656e-08 -0 2.23617e-09)
(1.21553e-08 -1.95485e-07 -0 -5.81263e-09 -0 -6.34269e-09)
(4.84489e-08 -3.80291e-07 -0 -5.04102e-08 -0 1.96124e-09)
(-1.06428e-07 -1.86916e-07 -0 1.14233e-07 -0 -7.80466e-09)
(-8.86085e-08 -1.34382e-07 -0 8.96345e-08 -0 -1.02594e-09)
(-3.07101e-09 -3.85594e-07 -0 1.38861e-08 -0 -1.08151e-08)
(6.76045e-08 -4.75959e-07 -0 -7.97436e-08 -0 1.21391e-08)
(-8.49881e-08 -4.59292e-07 -0 7.53398e-08 -0 9.64827e-09)
(-8.15386e-08 -4.89482e-07 -0 7.41102e-08 -0 7.42832e-09)
(-5.15277e-09 -6.37169e-07 -0 1.04939e-08 -0 -5.34117e-09)
(7.00689e-08 -7.11571e-07 -0 -7.30855e-08 -0 3.01659e-09)
(-9.75719e-08 -7.60019e-07 -0 1.00353e-07 -0 -2.78091e-09)
(-9.64683e-08 -8.91518e-07 -0 9.97784e-08 -0 -3.31002e-09)
(-6.61123e-09 -9.68956e-07 -0 8.49625e-09 -0 -1.88503e-09)
(8.89033e-08 -1.15012e-06 -0 -1.05336e-07 -0 1.64325e-08)
(-1.08075e-07 -1.23852e-06 -0 1.19824e-07 -0 -1.1749e-08)
(-9.43763e-08 -1.38421e-06 -0 9.32153e-08 -0 1.16099e-09)
(-1.98103e-08 -1.41306e-06 -0 3.15657e-08 -0 -1.17554e-08)
(7.97264e-08 -1.80514e-06 -0 -8.07249e-08 -0 9.98471e-10)
(-9.16545e-08 -1.85309e-06 -0 8.50563e-08 -0 6.59829e-09)
(-9.84203e-08 -2.01671e-06 -0 9.83283e-08 -0 9.20583e-11)
(-1.11877e-08 -2.03535e-06 -0 1.17331e-08 -0 -5.45383e-10)
(9.66135e-08 -2.76989e-06 -0 -1.10725e-07 -0 1.41117e-08)
(-1.0827e-07 -2.77044e-06 -0 1.17529e-07 -0 -9.25927e-09)
(-9.86114e-08 -2.88241e-06 -0 9.61265e-08 -0 2.48489e-09)
(-2.59237e-08 -2.93273e-06 -0 3.84977e-08 -0 -1.2574e-08)
(9.00572e-08 -4.12872e-06 -0 -9.41254e-08 -0 4.0682e-09)
(-9.09529e-08 -4.02017e-06 -0 8.4287e-08 -0 6.66587e-09)
(-1.00324e-07 -4.0522e-06 -0 9.73008e-08 -0 3.02352e-09)
(-2.05615e-08 -4.20061e-06 -0 2.44128e-08 -0 -3.85128e-09)
(9.55848e-08 -6.03525e-06 -0 -1.0206e-07 -0 6.47501e-09)
(-9.90468e-08 -5.7814e-06 -0 1.06058e-07 -0 -7.01096e-09)
(-1.09527e-07 -5.64183e-06 -0 1.12584e-07 -0 -3.05709e-09)
(-3.08292e-08 -5.94159e-06 -0 3.84606e-08 -0 -7.63147e-09)
(1.06744e-07 -8.63623e-06 -0 -1.22722e-07 -0 1.59775e-08)
(-9.38587e-08 -8.15879e-06 -0 1.07634e-07 -0 -1.3775e-08)
(-1.07255e-07 -7.78378e-06 -0 1.06507e-07 -0 7.48166e-10)
(-3.55522e-08 -8.26964e-06 -0 3.8737e-08 -0 -3.18482e-09)
(8.61368e-08 -1.21508e-05 -0 -7.94308e-08 -0 -6.70597e-09)
(-4.25921e-08 -1.14102e-05 -0 2.6041e-08 -0 1.65511e-08)
(-1.04689e-07 -1.06638e-05 -0 9.99889e-08 -0 4.69976e-09)
(-5.10823e-08 -1.13729e-05 -0 5.27382e-08 -0 -1.6559e-09)
(1.14003e-07 -1.68381e-05 -0 -1.37451e-07 -0 2.34472e-08)
(-4.53691e-08 -1.57363e-05 -0 6.47053e-08 -0 -1.93362e-08)
(-1.09837e-07 -1.44659e-05 -0 1.13731e-07 -0 -3.89418e-09)
(-8.93197e-08 -1.54699e-05 -0 1.04455e-07 -0 -1.51355e-08)
(8.40925e-08 -2.2928e-05 -0 -8.07985e-08 -0 -3.29395e-09)
(5.04894e-08 -2.14515e-05 -0 -7.65801e-08 -0 2.60906e-08)
(-9.39753e-08 -1.96193e-05 -0 8.83151e-08 -0 5.66017e-09)
(-1.17015e-07 -2.07873e-05 -0 1.1782e-07 -0 -8.04303e-10)
(7.44571e-08 -5.05837e-07 -0 -6.71365e-08 -0 -7.32065e-09)
(4.9233e-08 -1.77317e-07 -0 -3.92484e-08 -0 -9.98459e-09)
(-7.43788e-09 -2.32862e-07 -0 1.93697e-08 -0 -1.19318e-08)
(4.28734e-08 -8.78971e-07 -0 -4.84691e-08 -0 5.59576e-09)
(8.91155e-08 -4.78178e-07 -0 -1.03681e-07 -0 1.45656e-08)
(5.08884e-08 -6.82933e-08 -0 -4.19774e-08 -0 -8.91098e-09)
(-9.00297e-10 -2.4808e-07 -0 -4.60094e-09 -0 5.50124e-09)
(2.59733e-08 -9.76903e-07 -0 -2.1122e-08 -0 -4.85129e-09)
(8.50011e-08 -5.16369e-07 -0 -9.07925e-08 -0 5.79139e-09)
(6.10822e-08 1.25558e-07 -0 -5.38478e-08 -0 -7.23444e-09)
(-1.10394e-08 -2.822e-07 -0 -2.13914e-09 -0 1.31785e-08)
(1.01655e-08 -9.99875e-07 -0 -3.42087e-11 -0 -1.01313e-08)
(8.58906e-08 -5.92486e-07 -0 -8.83687e-08 -0 2.4781e-09)
(6.4356e-08 4.81854e-08 -0 -5.96678e-08 -0 -4.68819e-09)
(-3.762e-08 -4.37654e-07 -0 3.29225e-08 -0 4.69759e-09)
(1.14125e-09 -1.02317e-06 -0 1.95528e-08 -0 -2.06941e-08)
(1.06634e-07 -7.72598e-07 -0 -1.21438e-07 -0 1.48048e-08)
(7.15519e-08 -1.80964e-07 -0 -6.82259e-08 -0 -3.32605e-09)
(-4.78288e-08 -6.16035e-07 -0 3.73302e-08 -0 1.04986e-08)
(1.13911e-08 -1.07878e-06 -0 -3.21227e-09 -0 -8.17885e-09)
(1.02877e-07 -1.04789e-06 -0 -1.09056e-07 -0 6.17948e-09)
(6.76763e-08 -6.10583e-07 -0 -5.9699e-08 -0 -7.97726e-09)
(-6.68928e-08 -9.61829e-07 -0 6.31945e-08 -0 3.69823e-09)
(1.9702e-08 -1.27417e-06 -0 -1.55403e-08 -0 -4.16167e-09)
(1.12854e-07 -1.47044e-06 -0 -1.23875e-07 -0 1.10213e-08)
(7.1565e-08 -1.14918e-06 -0 -6.40249e-08 -0 -7.5401e-09)
(-7.10844e-08 -1.38984e-06 -0 6.34027e-08 -0 7.68167e-09)
(1.43202e-08 -1.59397e-06 -0 -3.36483e-09 -0 -1.09554e-08)
(1.08864e-07 -2.08472e-06 -0 -1.14265e-07 -0 5.40197e-09)
(7.18658e-08 -1.90586e-06 -0 -6.40293e-08 -0 -7.83651e-09)
(-7.92255e-08 -2.04953e-06 -0 7.47738e-08 -0 4.45166e-09)
(2.36125e-08 -2.16127e-06 -0 -1.80321e-08 -0 -5.58037e-09)
(1.15628e-07 -2.97322e-06 -0 -1.27165e-07 -0 1.1537e-08)
(7.53498e-08 -2.87823e-06 -0 -6.91086e-08 -0 -6.2412e-09)
(-7.75711e-08 -2.95242e-06 -0 6.96453e-08 -0 7.92576e-09)
(2.0231e-08 -2.99621e-06 -0 -9.69314e-09 -0 -1.05379e-08)
(1.04518e-07 -4.25713e-06 -0 -1.05903e-07 -0 1.38494e-09)
(7.25632e-08 -4.23285e-06 -0 -6.33998e-08 -0 -9.16338e-09)
(-7.80738e-08 -4.24425e-06 -0 7.03729e-08 -0 7.70089e-09)
(2.32265e-08 -4.22903e-06 -0 -1.38506e-08 -0 -9.37588e-09)
(1.14861e-07 -6.02059e-06 -0 -1.28884e-07 -0 1.40225e-08)
(7.59325e-08 -6.04274e-06 -0 -6.85808e-08 -0 -7.35162e-09)
(-7.79209e-08 -6.00188e-06 -0 7.23629e-08 -0 5.55801e-09)
(2.61246e-08 -5.93562e-06 -0 -2.02998e-08 -0 -5.82487e-09)
(1.10045e-07 -8.48047e-06 -0 -1.22576e-07 -0 1.25311e-08)
(7.64373e-08 -8.60384e-06 -0 -6.92301e-08 -0 -7.20719e-09)
(-7.89116e-08 -8.41417e-06 -0 7.75461e-08 -0 1.3655e-09)
(2.57994e-08 -8.28474e-06 -0 -2.27923e-08 -0 -3.00711e-09)
(8.7218e-08 -1.18276e-05 -0 -8.70456e-08 -0 -1.72409e-10)
(7.22853e-08 -1.20408e-05 -0 -5.78558e-08 -0 -1.44295e-08)
(-6.27666e-08 -1.15988e-05 -0 5.46886e-08 -0 8.07807e-09)
(1.85348e-08 -1.14186e-05 -0 -1.52148e-08 -0 -3.32005e-09)
(9.2431e-08 -1.63805e-05 -0 -1.11984e-07 -0 1.95529e-08)
(9.7773e-08 -1.66907e-05 -0 -1.03022e-07 -0 5.24909e-09)
(-5.38566e-08 -1.58032e-05 -0 5.02216e-08 -0 3.63493e-09)
(-5.0439e-09 -1.55889e-05 -0 1.7781e-08 -0 -1.27371e-08)
(5.21615e-08 -2.1802e-05 -0 -6.00225e-08 -0 7.86095e-09)
(1.04223e-07 -2.22781e-05 -0 -1.01303e-07 -0 -2.9205e-09)
(-2.53501e-08 -2.11897e-05 -0 1.86486e-08 -0 6.70144e-09)
(-2.29761e-08 -2.10148e-05 -0 3.06209e-08 -0 -7.64481e-09)
)
;

boundaryField
{
    topWall
    {
        type            calculated;
        value           nonuniform List<symmTensor> 0();
    }
    botWall
    {
        type            calculated;
        value           nonuniform List<symmTensor> 0();
    }
    inlet
    {
        type            cyclic;
    }
    outlet
    {
        type            cyclic;
    }
    fixWall
    {
        type            empty;
    }
    procBoundary2to1
    {
        type            processor;
        value           nonuniform List<symmTensor> 8((-1.83865e-08 -1.14987e-06 -0 6.75442e-09 -0 1.1632e-08) (-1.93481e-07 3.40717e-07 -0 1.78938e-07 -0 1.45435e-08) (-8.19264e-08 1.77447e-06 -0 8.29111e-08 -0 -9.84698e-10) (1.10301e-07 6.167e-07 -0 -1.18426e-07 -0 8.12493e-09) (1.275e-07 -4.96519e-07 -0 -1.59472e-07 -0 3.19714e-08) (5.59543e-08 -3.27702e-07 -0 -6.26587e-08 -0 6.70438e-09) (9.20233e-09 -2.42847e-07 -0 -2.97363e-09 -0 -6.2287e-09) (8.96232e-08 -7.47479e-07 -0 -1.22648e-07 -0 3.30245e-08));
    }
    procBoundary2to3
    {
        type            processor;
        value           nonuniform List<symmTensor> 8((8.04789e-08 -2.99428e-05 -0 -8.55846e-08 -0 5.10566e-09) (9.99677e-08 -2.84469e-05 -0 -1.11191e-07 -0 1.12228e-08) (-8.27889e-08 -2.68451e-05 -0 8.27409e-08 -0 4.79681e-11) (-1.79308e-07 -2.78218e-05 -0 2.08721e-07 -0 -2.94133e-08) (1.18984e-08 -2.86887e-05 -0 -3.10386e-09 -0 -8.79456e-09) (1.13006e-07 -2.91914e-05 -0 -1.11925e-07 -0 -1.08094e-09) (8.42088e-09 -2.84394e-05 -0 -3.00712e-08 -0 2.16503e-08) (-7.7768e-08 -2.84424e-05 -0 1.02599e-07 -0 -2.48308e-08));
    }
}


// ************************************************************************* //
