/*--------------------------------*- C++ -*----------------------------------*\
  =========                 |
  \\      /  F ield         | OpenFOAM: The Open Source CFD Toolbox
   \\    /   O peration     | Website:  https://openfoam.org
    \\  /    A nd           | Version:  dev
     \\/     M anipulation  |

   OpenFOAM for Windows 20.09 (v1)
   Built by CFD Support, www.cfdsupport.com (based on Symscape).
\*---------------------------------------------------------------------------*/
FoamFile
{
    version     2.0;
    format      ascii;
    class       volScalarField;
    location    "2";
    object      epsilon;
}
// * * * * * * * * * * * * * * * * * * * * * * * * * * * * * * * * * * * * * //

dimensions      [0 2 -3 0 0 0 0];

internalField   nonuniform List<scalar> 
120
(
5.16387e-16
5.16316e-16
5.16346e-16
5.16377e-16
4.93191e-16
4.93114e-16
4.9314e-16
4.93171e-16
4.72995e-16
4.72911e-16
4.72933e-16
4.72965e-16
4.55463e-16
4.55374e-16
4.55391e-16
4.55425e-16
4.40313e-16
4.40217e-16
4.4023e-16
4.40265e-16
4.27299e-16
4.27198e-16
4.27206e-16
4.27243e-16
4.16216e-16
4.16108e-16
4.16113e-16
4.16151e-16
4.06885e-16
4.06771e-16
4.06771e-16
4.06811e-16
3.99157e-16
3.99036e-16
3.99032e-16
3.99074e-16
3.92902e-16
3.92776e-16
3.92767e-16
3.9281e-16
3.88015e-16
3.87883e-16
3.8787e-16
3.87915e-16
3.84407e-16
3.8427e-16
3.84252e-16
3.84299e-16
3.82009e-16
3.81867e-16
3.81843e-16
3.81893e-16
3.80767e-16
3.8062e-16
3.8059e-16
3.80642e-16
3.8064e-16
3.80488e-16
3.80451e-16
3.80507e-16
5.16342e-16
5.16321e-16
5.16328e-16
5.16355e-16
4.93139e-16
4.93119e-16
4.93126e-16
4.93151e-16
4.72934e-16
4.72915e-16
4.72922e-16
4.72947e-16
4.55394e-16
4.55377e-16
4.55384e-16
4.55407e-16
4.40235e-16
4.40219e-16
4.40226e-16
4.40249e-16
4.27213e-16
4.27198e-16
4.27206e-16
4.27228e-16
4.16122e-16
4.16108e-16
4.16116e-16
4.16137e-16
4.06783e-16
4.0677e-16
4.06779e-16
4.06799e-16
3.99046e-16
3.99034e-16
3.99044e-16
3.99063e-16
3.92783e-16
3.92773e-16
3.92782e-16
3.92802e-16
3.87888e-16
3.87879e-16
3.87889e-16
3.87908e-16
3.84273e-16
3.84265e-16
3.84275e-16
3.84294e-16
3.81867e-16
3.81861e-16
3.81871e-16
3.81889e-16
3.80617e-16
3.80613e-16
3.80622e-16
3.80641e-16
3.80483e-16
3.8048e-16
3.80489e-16
3.80508e-16
)
;

boundaryField
{
    topWall
    {
        type            epsilonWallFunction;
        value           nonuniform List<scalar> 0();
    }
    botWall
    {
        type            epsilonWallFunction;
        value           nonuniform List<scalar> 0();
    }
    inlet
    {
        type            cyclic;
    }
    outlet
    {
        type            cyclic;
    }
    fixWall
    {
        type            empty;
    }
    procBoundary2to1
    {
        type            processor;
        value           nonuniform List<scalar> 8(5.42384e-16 5.42318e-16 5.42353e-16 5.42385e-16 5.42348e-16 5.42326e-16 5.42332e-16 5.42362e-16);
    }
    procBoundary2to3
    {
        type            processor;
        value           nonuniform List<scalar> 8(3.79508e-16 3.79354e-16 3.79306e-16 3.79368e-16 3.79347e-16 3.79345e-16 3.79353e-16 3.79372e-16);
    }
}


// ************************************************************************* //
