/*--------------------------------*- C++ -*----------------------------------*\
  =========                 |
  \\      /  F ield         | OpenFOAM: The Open Source CFD Toolbox
   \\    /   O peration     | Website:  https://openfoam.org
    \\  /    A nd           | Version:  dev
     \\/     M anipulation  |

   OpenFOAM for Windows 20.09 (v1)
   Built by CFD Support, www.cfdsupport.com (based on Symscape).
\*---------------------------------------------------------------------------*/
FoamFile
{
    version     2.0;
    format      ascii;
    class       volVectorField;
    location    "2";
    object      gradp;
}
// * * * * * * * * * * * * * * * * * * * * * * * * * * * * * * * * * * * * * //

dimensions      [1 -2 -2 0 0 0 0];

internalField   nonuniform List<vector> 
120
(
(3.76355 -98.5425 0)
(-1.23054 -98.3253 0)
(-1.25157 -98.1413 0)
(-1.26154 -98.2689 0)
(3.74889 -98.568 0)
(-1.23356 -98.9704 0)
(-1.23703 -98.7742 0)
(-1.25055 -98.0975 0)
(3.74885 -98.0664 0)
(-1.23397 -98.1028 0)
(-1.23702 -98.1106 0)
(-1.2505 -98.0952 0)
(3.7487 -98.07 0)
(-1.2343 -98.1044 0)
(-1.2369 -98.1016 0)
(-1.25055 -98.0945 0)
(3.74857 -98.0747 0)
(-1.2345 -98.0992 0)
(-1.23686 -98.1014 0)
(-1.25066 -98.0951 0)
(3.74845 -98.0726 0)
(-1.23474 -98.0997 0)
(-1.23683 -98.101 0)
(-1.25072 -98.0967 0)
(3.74832 -98.0731 0)
(-1.23497 -98.0996 0)
(-1.23681 -98.1008 0)
(-1.25075 -98.0962 0)
(3.74818 -98.0737 0)
(-1.2352 -98.099 0)
(-1.23678 -98.1007 0)
(-1.25082 -98.0952 0)
(3.74806 -98.0728 0)
(-1.23542 -98.0988 0)
(-1.23674 -98.1004 0)
(-1.25088 -98.0952 0)
(3.74793 -98.0735 0)
(-1.23566 -98.0986 0)
(-1.23671 -98.0989 0)
(-1.25094 -98.0951 0)
(3.7478 -98.0758 0)
(-1.23585 -98.0976 0)
(-1.23669 -98.0958 0)
(-1.25102 -98.0948 0)
(3.74769 -98.0682 0)
(-1.236 -98.0983 0)
(-1.23667 -98.0998 0)
(-1.25113 -98.0945 0)
(3.74755 -98.0674 0)
(-1.23637 -98.083 0)
(-1.23662 -98.1032 0)
(-1.25116 -98.0944 0)
(3.74769 -98.0783 0)
(-1.23659 -98.0813 0)
(-1.23686 -98.1008 0)
(-1.25101 -97.5337 0)
(3.74171 -98.0032 0)
(-1.23675 -97.922 0)
(-1.2275 -97.7614 0)
(-1.23732 -97.7501 0)
(-1.25287 -98.4939 0)
(-1.24156 -98.1935 0)
(-1.25911 -98.8086 0)
(3.73363 -98.3828 0)
(-1.25297 -98.112 0)
(-1.25483 -98.1135 0)
(-1.2589 -98.9006 0)
(3.73894 -98.0886 0)
(-1.25313 -98.1107 0)
(-1.2547 -98.1123 0)
(-1.2587 -98.0988 0)
(3.73918 -98.091 0)
(-1.25326 -98.1115 0)
(-1.25463 -98.1093 0)
(-1.25854 -98.098 0)
(3.73948 -98.0873 0)
(-1.25338 -98.1117 0)
(-1.25448 -98.1086 0)
(-1.25833 -98.1003 0)
(3.73964 -98.0845 0)
(-1.25348 -98.1061 0)
(-1.25444 -98.1092 0)
(-1.25814 -98.1008 0)
(3.7399 -98.0846 0)
(-1.25359 -98.1068 0)
(-1.25439 -98.1093 0)
(-1.25792 -98.0982 0)
(3.74012 -98.0835 0)
(-1.2537 -98.1084 0)
(-1.2543 -98.1092 0)
(-1.25771 -98.0978 0)
(3.74032 -98.0834 0)
(-1.25382 -98.1078 0)
(-1.25422 -98.1092 0)
(-1.25749 -98.0941 0)
(3.74052 -98.0834 0)
(-1.25394 -98.1075 0)
(-1.25407 -98.1091 0)
(-1.25728 -98.095 0)
(3.74068 -98.0835 0)
(-1.25405 -98.1072 0)
(-1.25401 -98.1092 0)
(-1.25707 -98.0985 0)
(3.74088 -98.0832 0)
(-1.25418 -98.1083 0)
(-1.25393 -98.1092 0)
(-1.25685 -98.0971 0)
(3.74106 -98.0829 0)
(-1.2543 -98.0959 0)
(-1.25382 -98.1074 0)
(-1.25663 -98.07 0)
(3.74136 -98.0831 0)
(-1.25439 -97.2701 0)
(-1.2535 -98.0513 0)
(-1.25644 -98.1317 0)
(3.7411 -97.7312 0)
(-1.26292 -97.6377 0)
(-1.26818 -98.142 0)
(-1.25129 -97.9097 0)
(3.74225 -97.8764 0)
)
;

boundaryField
{
    topWall
    {
        type            extrapolatedCalculated;
        value           nonuniform List<vector> 0();
    }
    botWall
    {
        type            extrapolatedCalculated;
        value           nonuniform List<vector> 0();
    }
    inlet
    {
        type            cyclic;
    }
    outlet
    {
        type            cyclic;
    }
    fixWall
    {
        type            empty;
    }
    procBoundary2to1
    {
        type            processor;
        value           nonuniform List<vector> 8((3.74794 -98.0434 0) (-1.24024 -97.449 0) (-1.23797 -97.4817 0) (-1.24467 -97.591 0) (-1.25423 -97.7919 0) (-1.24959 -97.5341 0) (-1.25574 -98.0031 0) (3.7345 -97.6033 0));
    }
    procBoundary2to3
    {
        type            processor;
        value           nonuniform List<vector> 8((3.74693 -98.0715 0) (-1.23256 -98.6444 0) (-1.23399 -98.222 0) (-1.24895 -98.3128 0) (-1.26092 -98.4615 0) (-1.25803 -98.2319 0) (-1.25201 -98.131 0) (3.73954 -98.2324 0));
    }
}


// ************************************************************************* //
