/*--------------------------------*- C++ -*----------------------------------*\
  =========                 |
  \\      /  F ield         | OpenFOAM: The Open Source CFD Toolbox
   \\    /   O peration     | Website:  https://openfoam.org
    \\  /    A nd           | Version:  dev
     \\/     M anipulation  |

   OpenFOAM for Windows 20.09 (v1)
   Built by CFD Support, www.cfdsupport.com (based on Symscape).
\*---------------------------------------------------------------------------*/
FoamFile
{
    version     2.0;
    format      ascii;
    class       volTensorField;
    location    "2";
    object      gradU;
}
// * * * * * * * * * * * * * * * * * * * * * * * * * * * * * * * * * * * * * //

dimensions      [0 0 -1 0 0 0 0];

internalField   nonuniform List<tensor> 
120
(
(3.32008e-05 -0.000316038 0 0.00523236 3.28548e-05 0 0 0 0)
(0.000403118 5.57879e-05 0 -0.00218743 -0.000646348 0 0 0 0)
(0.000195419 0.000346806 0 -0.00783572 -0.000309008 0 0 0 0)
(-0.000147405 8.57744e-05 0 -0.00220144 7.64604e-05 0 0 0 0)
(-3.36687e-05 -0.000320484 0 0.00391688 0.000145033 0 0 0 0)
(0.000333464 5.2369e-05 0 -0.00126592 -0.000273895 0 0 0 0)
(0.000214262 0.000351912 0 -0.00323946 -0.000127345 0 0 0 0)
(-9.33105e-05 8.66535e-05 0 0.000148366 2.64526e-05 0 0 0 0)
(-7.32625e-05 -0.000321322 0 0.00282578 8.64956e-05 0 0 0 0)
(0.000283845 5.12483e-05 0 -0.000126968 -0.000248649 0 0 0 0)
(0.000218991 0.000351812 0 -0.00150091 -0.000201213 0 0 0 0)
(-4.90197e-05 9.31194e-05 0 0.000942951 -1.40467e-06 0 0 0 0)
(-0.000123192 -0.000324182 0 0.00233973 0.000138784 0 0 0 0)
(0.000261352 4.75739e-05 0 0.00094308 -0.000323399 0 0 0 0)
(0.000232094 0.000356033 0 0.000356192 -0.00024025 0 0 0 0)
(-2.05217e-05 9.42728e-05 0 0.00194938 -6.5458e-05 0 0 0 0)
(-0.000146983 -0.000324934 0 0.00284752 0.000243489 0 0 0 0)
(0.000250786 4.49311e-05 0 0.00238932 -0.000174083 0 0 0 0)
(0.000235762 0.000356111 0 0.00223814 -0.000176707 0 0 0 0)
(-4.99268e-07 0.000101136 0 0.00327586 -4.1963e-05 0 0 0 0)
(-0.000177689 -0.000326864 0 0.00409819 0.00020167 0 0 0 0)
(0.000251196 4.05706e-05 0 0.00398753 -0.000273304 0 0 0 0)
(0.00024687 0.000358235 0 0.00436681 -0.000273184 0 0 0 0)
(1.25244e-05 0.000103235 0 0.00503223 -2.75104e-05 0 0 0 0)
(-0.000192047 -0.000329992 0 0.00642565 0.000322686 0 0 0 0)
(0.000255263 3.70168e-05 0 0.00652715 -0.000348668 0 0 0 0)
(0.000253174 0.000360208 0 0.00697608 -0.000243944 0 0 0 0)
(2.13454e-05 0.000110779 0 0.00737845 -0.000114801 0 0 0 0)
(-0.000208629 -0.00033234 0 0.0098996 0.000216567 0 0 0 0)
(0.00026037 3.11267e-05 0 0.00979023 -0.000207914 0 0 0 0)
(0.000261058 0.000362132 0 0.0103264 -0.000260326 0 0 0 0)
(2.82021e-05 0.000113259 0 0.0106741 -3.25379e-05 0 0 0 0)
(-0.00021863 -0.000334007 0 0.0150144 0.000330818 0 0 0 0)
(0.000262377 2.90686e-05 0 0.0146542 -0.000335989 0 0 0 0)
(0.000267905 0.000363131 0 0.0149136 -0.00024815 0 0 0 0)
(3.53766e-05 0.000120403 0 0.0154231 -0.00013534 0 0 0 0)
(-0.000227871 -0.000337903 0 0.0222201 0.000260213 0 0 0 0)
(0.00025869 2.14773e-05 0 0.0212854 -0.000205696 0 0 0 0)
(0.000273872 0.000365477 0 0.0211112 -0.000249835 0 0 0 0)
(4.4282e-05 0.000123521 0 0.0221397 -7.48997e-05 0 0 0 0)
(-0.000236141 -0.000337633 0 0.0323245 0.000287617 0 0 0 0)
(0.000243895 2.05678e-05 0 0.0306209 -0.000299632 0 0 0 0)
(0.000282144 0.000365311 0 0.0295364 -0.000306448 0 0 0 0)
(6.14739e-05 0.000129305 0 0.0313611 -0.000122144 0 0 0 0)
(-0.000240532 -0.000343536 0 0.0461155 0.000367553 0 0 0 0)
(0.000212222 1.15762e-05 0 0.04323 -0.000321733 0 0 0 0)
(0.000286209 0.000368435 0 0.0408856 -0.000280261 0 0 0 0)
(8.57735e-05 0.00013494 0 0.0436941 -0.000111093 0 0 0 0)
(-0.000246033 -0.000343869 0 0.0647434 0.000192721 0 0 0 0)
(0.00015673 9.77093e-06 0 0.0604642 -2.5148e-05 0 0 0 0)
(0.000289879 0.000368821 0 0.0561493 -0.000252516 0 0 0 0)
(0.00013098 0.000139943 0 0.0601366 -0.000144144 0 0 0 0)
(-0.000239974 -0.00034448 0 0.0895863 0.000426379 0 0 0 0)
(6.89872e-05 4.15557e-06 0 0.083398 -0.00022271 0 0 0 0)
(0.000280748 0.000366451 0 0.0763031 -0.000311707 0 0 0 0)
(0.000196588 0.000142986 0 0.0818473 -0.000316915 0 0 0 0)
(-0.000231574 -0.000346233 0 0.121865 0.000205387 0 0 0 0)
(-6.46568e-05 -2.53051e-06 0 0.113695 0.000272077 0 0 0 0)
(0.000264034 0.000367251 0 0.103615 -0.000219036 0 0 0 0)
(0.000307959 0.000150948 0 0.110022 -0.000314354 0 0 0 0)
(-0.000216711 -0.000130678 0 0.00281162 0.000158512 0 0 0 0)
(-0.000156927 -0.000194476 0 0.00113426 7.75492e-05 0 0 0 0)
(-1.19089e-05 9.99102e-05 0 0.00113426 -8.29488e-05 0 0 0 0)
(-9.87857e-05 5.29131e-05 0 0.00460564 0.000143272 0 0 0 0)
(-0.000197557 -0.000129327 0 0.00266367 0.000313354 0 0 0 0)
(-0.000158468 -0.000194734 0 0.000556689 8.7626e-05 0 0 0 0)
(1.69641e-05 9.78996e-05 0 0.00121693 2.67708e-05 0 0 0 0)
(-8.16852e-05 5.57119e-05 0 0.00512188 4.31174e-05 0 0 0 0)
(-0.000209906 -0.000129659 0 0.00286642 0.000255947 0 0 0 0)
(-0.000181039 -0.000199252 0 -0.000466207 0.000123525 0 0 0 0)
(6.41776e-05 9.91684e-05 0 0.00139649 4.05919e-05 0 0 0 0)
(-5.37863e-05 5.48842e-05 0 0.00524445 -2.67572e-05 0 0 0 0)
(-0.000221043 -0.000127245 0 0.00326742 0.000240744 0 0 0 0)
(-0.000182967 -0.000198324 0 -5.7059e-05 0.000145696 0 0 0 0)
(0.000112142 9.53949e-05 0 0.00222417 -7.47959e-05 0 0 0 0)
(-5.78636e-05 5.64769e-05 0 0.00536633 -0.000106654 0 0 0 0)
(-0.000243346 -0.00012614 0 0.00422091 0.000361045 0 0 0 0)
(-0.000198427 -0.000204511 0 0.00116362 0.000171985 0 0 0 0)
(0.000154567 9.49626e-05 0 0.00317002 -7.11038e-05 0 0 0 0)
(-5.18604e-05 5.84438e-05 0 0.00565908 -1.31614e-05 0 0 0 0)
(-0.000256247 -0.000123679 0 0.00567749 0.000305374 0 0 0 0)
(-0.000200482 -0.000205526 0 0.00344161 0.000137063 0 0 0 0)
(0.000187066 9.23092e-05 0 0.00500538 -0.000157665 0 0 0 0)
(-6.32387e-05 6.17201e-05 0 0.00669137 3.01534e-05 0 0 0 0)
(-0.000269857 -0.000123397 0 0.00791675 0.000357476 0 0 0 0)
(-0.000209628 -0.000212228 0 0.00630289 0.000149685 0 0 0 0)
(0.00020873 9.31808e-05 0 0.00727299 -0.000147661 0 0 0 0)
(-6.69803e-05 6.44328e-05 0 0.00838359 -2.0115e-05 0 0 0 0)
(-0.000274173 -0.000119271 0 0.0111683 0.000317119 0 0 0 0)
(-0.000211211 -0.000213945 0 0.010315 0.000148911 0 0 0 0)
(0.000221744 8.94792e-05 0 0.010773 -0.000186354 0 0 0 0)
(-7.7361e-05 6.95593e-05 0 0.0113852 3.29971e-05 0 0 0 0)
(-0.000275842 -0.000120373 0 0.0158784 0.000367561 0 0 0 0)
(-0.000216216 -0.000220619 0 0.0154752 0.000166599 0 0 0 0)
(0.000226567 9.12489e-05 0 0.0155566 -0.000163557 0 0 0 0)
(-8.15377e-05 7.11481e-05 0 0.0158087 -2.23862e-06 0 0 0 0)
(-0.000273304 -0.000114239 0 0.022677 0.000284314 0 0 0 0)
(-0.000216575 -0.000222797 0 0.0226569 0.000143727 0 0 0 0)
(0.000227303 8.66652e-05 0 0.0224078 -0.000166081 0 0 0 0)
(-8.63964e-05 7.77988e-05 0 0.0223361 1.18581e-05 0 0 0 0)
(-0.000267222 -0.000116729 0 0.0320259 0.000378701 0 0 0 0)
(-0.000220703 -0.000228126 0 0.0322546 0.000162257 0 0 0 0)
(0.000221219 8.90511e-05 0 0.0317209 -0.000177033 0 0 0 0)
(-8.46661e-05 7.8253e-05 0 0.0313805 3.83585e-05 0 0 0 0)
(-0.000258412 -0.000109499 0 0.045056 0.000358035 0 0 0 0)
(-0.000221658 -0.000232059 0 0.0458324 0.000164361 0 0 0 0)
(0.000212734 8.46002e-05 0 0.0445105 -0.000201879 0 0 0 0)
(-7.63373e-05 8.5543e-05 0 0.0438236 5.24308e-05 0 0 0 0)
(-0.000231585 -0.000112138 0 0.0627982 0.000230214 0 0 0 0)
(-0.000229794 -0.000237458 0 0.0640537 0.00011508 0 0 0 0)
(0.000187738 8.71856e-05 0 0.0613864 -0.000123518 0 0 0 0)
(-5.79155e-05 8.77435e-05 0 0.0604308 3.15211e-05 0 0 0 0)
(-0.000193127 -0.000105179 0 0.0869218 0.000348573 0 0 0 0)
(-0.000245188 -0.000237955 0 0.0886986 0.000286919 0 0 0 0)
(0.000152353 8.32076e-05 0 0.0836737 -0.000123455 0 0 0 0)
(-2.0387e-05 9.08137e-05 0 0.0825304 -8.0873e-05 0 0 0 0)
(-0.000117397 -0.000102074 0 0.115653 0.000179891 0 0 0 0)
(-0.000283931 -0.000245325 0 0.118319 0.000260713 0 0 0 0)
(8.49366e-05 8.10557e-05 0 0.112224 -3.16601e-05 0 0 0 0)
(4.06279e-05 9.69074e-05 0 0.111281 -0.000101404 0 0 0 0)
)
;

boundaryField
{
    topWall
    {
        type            extrapolatedCalculated;
        value           nonuniform List<tensor> 0();
    }
    botWall
    {
        type            extrapolatedCalculated;
        value           nonuniform List<tensor> 0();
    }
    inlet
    {
        type            cyclic;
    }
    outlet
    {
        type            cyclic;
    }
    fixWall
    {
        type            empty;
    }
    procBoundary2to1
    {
        type            processor;
        value           nonuniform List<tensor> 8((7.9549e-05 -0.000307324 0 0.00640165 1.29257e-05 0 0 0 0) (0.000551265 5.80667e-05 0 -0.00186387 -0.000435645 0 0 0 0) (0.000214495 0.000339865 0 -0.00974455 -0.000222324 0 0 0 0) (-0.000270766 7.88614e-05 0 -0.00334737 0.000335359 0 0 0 0) (-0.000253152 -0.000129345 0 0.0027609 0.000507325 0 0 0 0) (-0.000130512 -0.00019071 0 0.00192753 0.000183812 0 0 0 0) (-4.08922e-05 9.68042e-05 0 0.00119029 -8.62595e-06 0 0 0 0) (-0.000149987 5.37818e-05 0 0.00390786 0.000412531 0 0 0 0));
    }
    procBoundary2to3
    {
        type            processor;
        value           nonuniform List<tensor> 8((-0.000199739 -0.000338256 0 0.159035 0.000240329 0 0 0 0) (-0.000235174 -2.91814e-06 0 0.150771 0.000324395 0 0 0 0) (0.000219518 0.000356678 0 0.141922 -0.000219136 0 0 0 0) (0.000397221 0.000149634 0 0.147306 -0.000631057 0 0 0 0) (-5.48364e-05 -9.55941e-05 0 0.152146 -1.50803e-05 0 0 0 0) (-0.000302331 -0.000241481 0 0.154956 0.000293737 0 0 0 0) (3.5058e-05 7.71723e-05 0 0.150652 0.000137062 0 0 0 0) (0.000140284 9.47644e-05 0 0.15065 -0.000337688 0 0 0 0));
    }
}


// ************************************************************************* //
