/*--------------------------------*- C++ -*----------------------------------*\
  =========                 |
  \\      /  F ield         | OpenFOAM: The Open Source CFD Toolbox
   \\    /   O peration     | Website:  https://openfoam.org
    \\  /    A nd           | Version:  dev
     \\/     M anipulation  |

   OpenFOAM for Windows 20.09 (v1)
   Built by CFD Support, www.cfdsupport.com (based on Symscape).
\*---------------------------------------------------------------------------*/
FoamFile
{
    version     2.0;
    format      ascii;
    class       volVectorField;
    location    "2";
    object      gradp_rgh;
}
// * * * * * * * * * * * * * * * * * * * * * * * * * * * * * * * * * * * * * //

dimensions      [1 -2 -2 0 0 0 0];

internalField   nonuniform List<vector> 
120
(
(-1.23628 -0.454734 0)
(-1.23048 -0.231227 0)
(-1.2522 -0.0423304 0)
(-1.26168 -0.151379 0)
(-1.25111 -0.481917 0)
(-1.23357 -0.893757 0)
(-1.23704 -0.691737 0)
(-1.25054 0.0168189 0)
(-1.25115 0.033088 0)
(-1.23397 -0.00270036 0)
(-1.23702 -0.0104296 0)
(-1.2505 0.00559667 0)
(-1.25131 0.0299831 0)
(-1.23429 -0.00425748 0)
(-1.2369 -0.00150563 0)
(-1.25054 0.00560311 0)
(-1.25143 0.0254612 0)
(-1.2345 0.000825683 0)
(-1.23686 -0.00134678 0)
(-1.25066 0.00498215 0)
(-1.25155 0.0276943 0)
(-1.23474 0.000197047 0)
(-1.23683 -0.000932165 0)
(-1.25072 0.00326737 0)
(-1.25169 0.0272163 0)
(-1.23497 0.000289249 0)
(-1.2368 -0.000757283 0)
(-1.25075 0.00376405 0)
(-1.25182 0.0266638 0)
(-1.23521 0.000812691 0)
(-1.23677 -0.000530186 0)
(-1.25082 0.00471181 0)
(-1.25195 0.0274534 0)
(-1.23543 0.0010052 0)
(-1.23674 -0.000223793 0)
(-1.25088 0.00481671 0)
(-1.25207 0.0265512 0)
(-1.23567 0.00120134 0)
(-1.23671 0.00125754 0)
(-1.25094 0.00484475 0)
(-1.2522 0.0240631 0)
(-1.23585 0.00220344 0)
(-1.23668 0.00438471 0)
(-1.25103 0.00518337 0)
(-1.25231 0.0313716 0)
(-1.23599 0.00170987 0)
(-1.23666 1.85462e-05 0)
(-1.25113 0.00541377 0)
(-1.25245 0.0329418 0)
(-1.23637 0.0176578 0)
(-1.23662 -0.00476436 0)
(-1.25116 0.0050087 0)
(-1.2523 0.0222008 0)
(-1.23662 -0.00239262 0)
(-1.23687 -0.00619743 0)
(-1.25098 0.543843 0)
(-1.25841 0.0936017 0)
(-1.23684 0.148874 0)
(-1.22751 0.320866 0)
(-1.23776 0.336066 0)
(-1.25238 -0.412436 0)
(-1.24135 -0.11046 0)
(-1.25915 -0.72704 0)
(-1.2665 -0.303117 0)
(-1.25296 -0.0207646 0)
(-1.25483 -0.0286486 0)
(-1.2589 -0.822258 0)
(-1.26106 -0.00162598 0)
(-1.25313 -0.0105655 0)
(-1.2547 -0.0121958 0)
(-1.2587 0.000960338 0)
(-1.26083 0.00924329 0)
(-1.25326 -0.0115581 0)
(-1.25464 -0.00923928 0)
(-1.25854 0.00184725 0)
(-1.26053 0.0128924 0)
(-1.25338 -0.011902 0)
(-1.25448 -0.00861361 0)
(-1.25833 -0.000288495 0)
(-1.26036 0.0154991 0)
(-1.25348 -0.00626697 0)
(-1.25444 -0.00927825 0)
(-1.25814 -0.000646666 0)
(-1.2601 0.0152807 0)
(-1.25359 -0.0068581 0)
(-1.25439 -0.00941051 0)
(-1.25792 0.00209639 0)
(-1.25989 0.0163474 0)
(-1.2537 -0.00826985 0)
(-1.25429 -0.00925666 0)
(-1.25771 0.00256182 0)
(-1.25968 0.0164081 0)
(-1.25382 -0.00759481 0)
(-1.25421 -0.00928182 0)
(-1.25749 0.00620191 0)
(-1.25948 0.0164 0)
(-1.25394 -0.00731932 0)
(-1.25406 -0.00916341 0)
(-1.25728 0.00511545 0)
(-1.25933 0.0163402 0)
(-1.25406 -0.00704205 0)
(-1.254 -0.00923344 0)
(-1.25707 0.001267 0)
(-1.25913 0.0165314 0)
(-1.25418 -0.00831495 0)
(-1.25393 -0.00915629 0)
(-1.25685 0.00204665 0)
(-1.25895 0.0169037 0)
(-1.2543 0.00454244 0)
(-1.25383 -0.00691999 0)
(-1.25663 0.028258 0)
(-1.25864 0.016826 0)
(-1.25438 0.798309 0)
(-1.25353 0.0513827 0)
(-1.25645 -0.0303023 0)
(-1.25887 0.354948 0)
(-1.26251 0.443696 0)
(-1.26764 -0.0439778 0)
(-1.25157 0.202671 0)
(-1.25776 0.215202 0)
)
;

boundaryField
{
    topWall
    {
        type            extrapolatedCalculated;
        value           nonuniform List<vector> 0();
    }
    botWall
    {
        type            extrapolatedCalculated;
        value           nonuniform List<vector> 0();
    }
    inlet
    {
        type            cyclic;
    }
    outlet
    {
        type            cyclic;
    }
    fixWall
    {
        type            empty;
    }
    procBoundary2to1
    {
        type            processor;
        value           nonuniform List<vector> 8((-1.2523 0.0699079 0) (-1.24044 0.674377 0) (-1.23837 0.635942 0) (-1.24437 0.495474 0) (-1.25364 0.316535 0) (-1.24959 0.581189 0) (-1.25568 0.118405 0) (-1.2656 0.509817 0));
    }
    procBoundary2to3
    {
        type            processor;
        value           nonuniform List<vector> 8((-1.2534 0.0283887 0) (-1.23284 -0.522972 0) (-1.23375 -0.117255 0) (-1.24893 -0.190601 0) (-1.26071 -0.329302 0) (-1.25755 -0.134637 0) (-1.25213 -0.0324707 0) (-1.26068 -0.117952 0));
    }
}


// ************************************************************************* //
