/*--------------------------------*- C++ -*----------------------------------*\
  =========                 |
  \\      /  F ield         | OpenFOAM: The Open Source CFD Toolbox
   \\    /   O peration     | Website:  https://openfoam.org
    \\  /    A nd           | Version:  dev
     \\/     M anipulation  |

   OpenFOAM for Windows 20.09 (v1)
   Built by CFD Support, www.cfdsupport.com (based on Symscape).
\*---------------------------------------------------------------------------*/
FoamFile
{
    version     2.0;
    format      ascii;
    class       volScalarField;
    location    "2";
    object      nut;
}
// * * * * * * * * * * * * * * * * * * * * * * * * * * * * * * * * * * * * * //

dimensions      [0 2 -1 0 0 0 0];

internalField   nonuniform List<scalar> 
120
(
8.59306e-18
8.59425e-18
8.59375e-18
8.59323e-18
8.9972e-18
8.99862e-18
8.99814e-18
8.99757e-18
9.38138e-18
9.38304e-18
9.3826e-18
9.38196e-18
9.74248e-18
9.7444e-18
9.74402e-18
9.74331e-18
1.00777e-17
1.00799e-17
1.00796e-17
1.00788e-17
1.03846e-17
1.03871e-17
1.03869e-17
1.0386e-17
1.06612e-17
1.06639e-17
1.06638e-17
1.06628e-17
1.09056e-17
1.09087e-17
1.09087e-17
1.09076e-17
1.11168e-17
1.11201e-17
1.11203e-17
1.11191e-17
1.12938e-17
1.12974e-17
1.12976e-17
1.12964e-17
1.1436e-17
1.14399e-17
1.14403e-17
1.1439e-17
1.15433e-17
1.15475e-17
1.1548e-17
1.15466e-17
1.16158e-17
1.16201e-17
1.16208e-17
1.16193e-17
1.16537e-17
1.16582e-17
1.16591e-17
1.16575e-17
1.16576e-17
1.16622e-17
1.16634e-17
1.16617e-17
8.5938e-18
8.59415e-18
8.59403e-18
8.59359e-18
8.99816e-18
8.99853e-18
8.9984e-18
8.99793e-18
9.38258e-18
9.38296e-18
9.38282e-18
9.38233e-18
9.74396e-18
9.74433e-18
9.74418e-18
9.74368e-18
1.00795e-17
1.00799e-17
1.00797e-17
1.00792e-17
1.03867e-17
1.03871e-17
1.03869e-17
1.03864e-17
1.06636e-17
1.06639e-17
1.06637e-17
1.06632e-17
1.09084e-17
1.09087e-17
1.09085e-17
1.09079e-17
1.11199e-17
1.11202e-17
1.11199e-17
1.11194e-17
1.12972e-17
1.12975e-17
1.12972e-17
1.12967e-17
1.14398e-17
1.144e-17
1.14397e-17
1.14392e-17
1.15474e-17
1.15476e-17
1.15473e-17
1.15468e-17
1.16201e-17
1.16203e-17
1.162e-17
1.16194e-17
1.16583e-17
1.16584e-17
1.16581e-17
1.16576e-17
1.16624e-17
1.16625e-17
1.16622e-17
1.16616e-17
)
;

boundaryField
{
    topWall
    {
        type            nutkWallFunction;
        Cmu             0.09;
        kappa           0.41;
        E               9.8;
        value           nonuniform List<scalar> 0();
    }
    botWall
    {
        type            nutkWallFunction;
        Cmu             0.09;
        kappa           0.41;
        E               9.8;
        value           nonuniform List<scalar> 0();
    }
    inlet
    {
        type            cyclic;
    }
    outlet
    {
        type            cyclic;
    }
    fixWall
    {
        type            empty;
    }
    procBoundary2to1
    {
        type            processor;
        value           nonuniform List<scalar> 8(8.18119e-18 8.18218e-18 8.18165e-18 8.18117e-18 8.18173e-18 8.18206e-18 8.18197e-18 8.18152e-18);
    }
    procBoundary2to3
    {
        type            processor;
        value           nonuniform List<scalar> 8(1.16924e-17 1.16971e-17 1.16986e-17 1.16967e-17 1.16973e-17 1.16974e-17 1.16971e-17 1.16965e-17);
    }
}


// ************************************************************************* //
