/*--------------------------------*- C++ -*----------------------------------*\
  =========                 |
  \\      /  F ield         | OpenFOAM: The Open Source CFD Toolbox
   \\    /   O peration     | Website:  https://openfoam.org
    \\  /    A nd           | Version:  dev
     \\/     M anipulation  |

   OpenFOAM for Windows 20.09 (v1)
   Built by CFD Support, www.cfdsupport.com (based on Symscape).
\*---------------------------------------------------------------------------*/
FoamFile
{
    version     2.0;
    format      ascii;
    class       volScalarField;
    location    "2";
    object      omega;
}
// * * * * * * * * * * * * * * * * * * * * * * * * * * * * * * * * * * * * * //

dimensions      [0 0 -1 0 0 0 0];

internalField   nonuniform List<scalar> 
120
(
25.84
25.8364
25.8379
25.8395
24.6793
24.6754
24.6767
24.6783
23.6687
23.6645
23.6656
23.6672
22.7914
22.7869
22.7878
22.7895
22.0332
22.0284
22.0291
22.0308
21.3821
21.377
21.3774
21.3792
20.8275
20.8221
20.8223
20.8242
20.3605
20.3548
20.3548
20.3568
19.9738
19.9678
19.9676
19.9696
19.6608
19.6545
19.6541
19.6562
19.4163
19.4097
19.409
19.4113
19.2357
19.2289
19.228
19.2303
19.1157
19.1086
19.1074
19.1099
19.0536
19.0462
19.0447
19.0473
19.0472
19.0396
19.0378
19.0406
25.8378
25.8367
25.8371
25.8384
24.6767
24.6757
24.676
24.6773
23.6656
23.6647
23.665
23.6663
22.7879
22.787
22.7874
22.7886
22.0294
22.0285
22.0289
22.0301
21.3778
21.377
21.3774
21.3785
20.8227
20.822
20.8224
20.8235
20.3554
20.3548
20.3552
20.3562
19.9682
19.9677
19.9681
19.9691
19.6549
19.6543
19.6548
19.6558
19.4099
19.4095
19.41
19.4109
19.229
19.2286
19.2291
19.2301
19.1086
19.1083
19.1088
19.1097
19.0461
19.0458
19.0463
19.0473
19.0394
19.0392
19.0397
19.0406
)
;

boundaryField
{
    topWall
    {
        beta1           0.075;
        blended         0;
        type            omegaWallFunction;
        value           nonuniform List<scalar> 0();
    }
    botWall
    {
        beta1           0.075;
        blended         0;
        type            omegaWallFunction;
        value           nonuniform List<scalar> 0();
    }
    inlet
    {
        type            cyclic;
    }
    outlet
    {
        type            cyclic;
    }
    fixWall
    {
        type            empty;
    }
    procBoundary2to1
    {
        type            processor;
        value           nonuniform List<scalar> 8(27.1409 27.1376 27.1393 27.1409 27.1391 27.138 27.1383 27.1398);
    }
    procBoundary2to3
    {
        type            processor;
        value           nonuniform List<scalar> 8(18.9906 18.9829 18.9805 18.9836 18.9825 18.9824 18.9828 18.9838);
    }
}


// ************************************************************************* //
