/*--------------------------------*- C++ -*----------------------------------*\
  =========                 |
  \\      /  F ield         | OpenFOAM: The Open Source CFD Toolbox
   \\    /   O peration     | Website:  https://openfoam.org
    \\  /    A nd           | Version:  dev
     \\/     M anipulation  |

   OpenFOAM for Windows 20.09 (v1)
   Built by CFD Support, www.cfdsupport.com (based on Symscape).
\*---------------------------------------------------------------------------*/
FoamFile
{
    version     2.0;
    format      ascii;
    class       volScalarField;
    location    "2";
    object      p;
}
// * * * * * * * * * * * * * * * * * * * * * * * * * * * * * * * * * * * * * //

dimensions      [1 -1 -2 0 0 0 0];

internalField   nonuniform List<scalar> 
120
(
-2.45502
-2.51605
-2.57807
-2.64121
-2.53758
-2.59926
-2.66093
-2.72296
-2.6193
-2.681
-2.7427
-2.80471
-2.70102
-2.76276
-2.82445
-2.88645
-2.78275
-2.84451
-2.9062
-2.9682
-2.86448
-2.92626
-2.98795
-3.04994
-2.9462
-3.00801
-3.0697
-3.13169
-3.02793
-3.08976
-3.15145
-3.21344
-3.10966
-3.17151
-3.2332
-3.29518
-3.19139
-3.25326
-3.31495
-3.37693
-3.27312
-3.33501
-3.3967
-3.45868
-3.35485
-3.41675
-3.47845
-3.54042
-3.43656
-3.4985
-3.5602
-3.62217
-3.51829
-3.58023
-3.64195
-3.70391
-3.60003
-3.66197
-3.7237
-3.78472
-2.70423
-2.7665
-2.82838
-2.89241
-2.78599
-2.84826
-2.91147
-2.97415
-2.86775
-2.93002
-2.99322
-3.05589
-2.9495
-3.01178
-3.07497
-3.13763
-3.03127
-3.09354
-3.15671
-3.21937
-3.11302
-3.17529
-3.23847
-3.30111
-3.19478
-3.25705
-3.32022
-3.38284
-3.27653
-3.33881
-3.40196
-3.46458
-3.35829
-3.42057
-3.48371
-3.54632
-3.44005
-3.50232
-3.56545
-3.62805
-3.5218
-3.58408
-3.6472
-3.70979
-3.60356
-3.66584
-3.72895
-3.79152
-3.68532
-3.7476
-3.8107
-3.87326
-3.76705
-3.82935
-3.8924
-3.955
-3.84743
-3.91102
-3.97425
-4.03614
)
;

boundaryField
{
    topWall
    {
        type            calculated;
        value           nonuniform List<scalar> 0();
    }
    botWall
    {
        type            calculated;
        value           nonuniform List<scalar> 0();
    }
    inlet
    {
        type            cyclic;
    }
    outlet
    {
        type            cyclic;
    }
    fixWall
    {
        type            empty;
    }
    procBoundary2to1
    {
        type            processor;
        value           nonuniform List<scalar> 8(-2.37334 -2.43538 -2.49736 -2.55918 -2.62183 -2.6846 -2.74679 -2.81018);
    }
    procBoundary2to3
    {
        type            processor;
        value           nonuniform List<scalar> 8(-3.68163 -3.74343 -3.80489 -3.86683 -3.92978 -3.99292 -4.05559 -4.11812);
    }
}


// ************************************************************************* //
