/*--------------------------------*- C++ -*----------------------------------*\
  =========                 |
  \\      /  F ield         | OpenFOAM: The Open Source CFD Toolbox
   \\    /   O peration     | Website:  https://openfoam.org
    \\  /    A nd           | Version:  dev
     \\/     M anipulation  |

   OpenFOAM for Windows 20.09 (v1)
   Built by CFD Support, www.cfdsupport.com (based on Symscape).
\*---------------------------------------------------------------------------*/
FoamFile
{
    version     2.0;
    format      ascii;
    class       volScalarField;
    location    "2";
    object      p_rgh;
}
// * * * * * * * * * * * * * * * * * * * * * * * * * * * * * * * * * * * * * //

dimensions      [1 -1 -2 0 0 0 0];

internalField   nonuniform List<scalar> 
120
(
0.0383774
-0.0226397
-0.0846701
-0.147859
0.03755
-0.024133
-0.0858067
-0.147837
0.0375742
-0.0241293
-0.085823
-0.147831
0.0376052
-0.0241375
-0.0858241
-0.147827
0.0376242
-0.0241364
-0.0858255
-0.147822
0.0376476
-0.0241361
-0.0858263
-0.147819
0.0376704
-0.0241361
-0.085827
-0.147817
0.037693
-0.0241356
-0.0858276
-0.147813
0.0377148
-0.0241347
-0.0858279
-0.147809
0.0377387
-0.0241339
-0.085828
-0.147805
0.0377591
-0.0241327
-0.0858258
-0.147801
0.0377788
-0.0241302
-0.0858207
-0.147796
0.0378113
-0.0241299
-0.0858258
-0.147792
0.0378337
-0.0241008
-0.0858286
-0.147788
0.0378483
-0.0241339
-0.0858361
-0.146885
-0.210838
-0.273097
-0.334973
-0.399012
-0.210861
-0.273133
-0.336344
-0.399022
-0.210873
-0.273145
-0.336343
-0.399014
-0.210878
-0.273153
-0.336342
-0.399007
-0.210892
-0.27316
-0.33634
-0.398993
-0.210898
-0.273167
-0.336343
-0.398981
-0.210902
-0.273175
-0.336341
-0.398968
-0.21091
-0.273183
-0.336339
-0.398954
-0.210916
-0.273191
-0.336337
-0.39894
-0.210922
-0.273199
-0.336329
-0.398927
-0.210928
-0.273206
-0.336328
-0.398913
-0.210934
-0.273214
-0.336327
-0.398899
-0.210942
-0.273221
-0.336325
-0.398885
-0.210926
-0.273226
-0.33628
-0.398871
-0.209612
-0.273136
-0.336375
-0.398293
)
;

boundaryField
{
    topWall
    {
        type            zeroGradient;
    }
    botWall
    {
        type            zeroGradient;
    }
    inlet
    {
        type            fixedJump;
        patchType       cyclic;
        jump            uniform -0.5;
        value           nonuniform List<scalar> 
15
(
0.0697776
0.0694814
0.0694633
0.0694399
0.0694231
0.0694061
0.0693873
0.0693696
0.0693514
0.0693332
0.0693156
0.0692991
0.0692799
0.0692638
0.0696828
)
;
    }
    outlet
    {
        type            fixedJump;
        patchType       cyclic;
        value           nonuniform List<scalar> 
15
(
-0.430222
-0.430519
-0.430537
-0.43056
-0.430577
-0.430594
-0.430613
-0.43063
-0.430649
-0.430667
-0.430684
-0.430701
-0.43072
-0.430736
-0.430317
)
;
    }
    fixWall
    {
        type            empty;
    }
    procBoundary2to1
    {
        type            processor;
        value           nonuniform List<scalar> 8(0.0383079 -0.0237476 -0.0857362 -0.147584 -0.210173 -0.272949 -0.335132 -0.398517);
    }
    procBoundary2to3
    {
        type            processor;
        value           nonuniform List<scalar> 8(0.0379897 -0.0238527 -0.0852938 -0.147228 -0.210187 -0.273299 -0.335942 -0.398512);
    }
}


// ************************************************************************* //
