/*--------------------------------*- C++ -*----------------------------------*\
  =========                 |
  \\      /  F ield         | OpenFOAM: The Open Source CFD Toolbox
   \\    /   O peration     | Website:  https://openfoam.org
    \\  /    A nd           | Version:  dev
     \\/     M anipulation  |

   OpenFOAM for Windows 20.09 (v1)
   Built by CFD Support, www.cfdsupport.com (based on Symscape).
\*---------------------------------------------------------------------------*/
FoamFile
{
    version     2.0;
    format      ascii;
    class       surfaceScalarField;
    location    "2";
    object      phi;
}
// * * * * * * * * * * * * * * * * * * * * * * * * * * * * * * * * * * * * * //

dimensions      [0 3 -1 0 0 0 0];

internalField   nonuniform List<scalar> 
217
(
1.38679e-08
-2.87626e-10
1.38836e-08
-9.91118e-10
1.38909e-08
-9.99625e-12
7.46861e-10
1.38882e-08
1.38667e-08
-2.82992e-10
1.38816e-08
-1.00604e-09
1.38903e-08
-1.86928e-11
7.48901e-10
1.38883e-08
1.3868e-08
-2.7668e-10
1.38809e-08
-1.019e-09
1.38897e-08
-2.74149e-11
7.48906e-10
1.38897e-08
1.38686e-08
-2.68397e-10
1.38805e-08
-1.03092e-09
1.38899e-08
-3.68065e-11
7.47818e-10
1.3891e-08
1.38705e-08
-2.59403e-10
1.38817e-08
-1.0422e-09
1.38913e-08
-4.63969e-11
7.45858e-10
1.38933e-08
1.38724e-08
-2.49099e-10
1.38837e-08
-1.0535e-09
1.38937e-08
-5.643e-11
7.43335e-10
1.38962e-08
1.38761e-08
-2.38246e-10
1.38875e-08
-1.06494e-09
1.38978e-08
-6.66629e-11
7.403e-10
1.39008e-08
1.38815e-08
-2.26762e-10
1.38931e-08
-1.07653e-09
1.39036e-08
-7.72306e-11
7.37005e-10
1.39069e-08
1.38899e-08
-2.14912e-10
1.39015e-08
-1.08816e-09
1.39123e-08
-8.80742e-11
7.33377e-10
1.3916e-08
1.39021e-08
-2.02632e-10
1.39136e-08
-1.09964e-09
1.39247e-08
-9.91438e-11
7.29347e-10
1.39287e-08
1.39201e-08
-1.90145e-10
1.39309e-08
-1.11044e-09
1.39423e-08
-1.10525e-10
7.2455e-10
1.39471e-08
1.3946e-08
-1.77629e-10
1.39553e-08
-1.11969e-09
1.39669e-08
-1.22204e-10
7.18754e-10
1.39727e-08
1.39823e-08
-1.64915e-10
1.39893e-08
-1.12673e-09
1.4001e-08
-1.33916e-10
7.10987e-10
1.40088e-08
1.40329e-08
-1.52276e-10
1.40363e-08
-1.13023e-09
1.40476e-08
-1.45219e-10
7.0051e-10
1.40581e-08
1.41024e-08
1.41004e-08
1.41102e-08
1.41258e-08
1.38767e-08
4.18434e-10
1.38698e-08
9.99273e-11
1.38718e-08
-5.53627e-10
5.90968e-10
1.38774e-08
4.29295e-10
1.38732e-08
1.04125e-10
1.38718e-08
-5.52237e-10
5.91475e-10
1.38781e-08
4.40801e-10
1.38731e-08
1.09208e-10
1.38736e-08
-5.52769e-10
5.90787e-10
1.38791e-08
4.52672e-10
1.38738e-08
1.14474e-10
1.38765e-08
-5.55381e-10
5.9034e-10
1.38804e-08
4.6552e-10
1.38745e-08
1.20368e-10
1.38789e-08
-5.59794e-10
5.89814e-10
1.38828e-08
4.78922e-10
1.38769e-08
1.26345e-10
1.38826e-08
-5.65537e-10
5.8971e-10
1.38867e-08
4.93027e-10
1.38804e-08
1.32643e-10
1.3887e-08
-5.72167e-10
5.89772e-10
1.38927e-08
5.07249e-10
1.38863e-08
1.39058e-10
1.38935e-08
-5.79353e-10
5.90282e-10
1.39017e-08
5.21554e-10
1.3895e-08
1.45688e-10
1.39024e-08
-5.8674e-10
5.90978e-10
1.39145e-08
5.35777e-10
1.39079e-08
1.5228e-10
1.39152e-08
-5.94059e-10
5.91775e-10
1.39331e-08
5.49744e-10
1.39263e-08
1.59122e-10
1.39335e-08
-6.01244e-10
5.92636e-10
1.39591e-08
5.63324e-10
1.39522e-08
1.66064e-10
1.39591e-08
-6.08122e-10
5.93204e-10
1.39962e-08
5.75862e-10
1.3989e-08
1.73284e-10
1.39948e-08
-6.13927e-10
5.93047e-10
1.40472e-08
5.86761e-10
1.40393e-08
1.81177e-10
1.40436e-08
-6.1819e-10
5.9118e-10
1.41196e-08
1.4108e-08
1.41102e-08
)
;

boundaryField
{
    topWall
    {
        type            calculated;
        value           nonuniform List<scalar> 0();
    }
    botWall
    {
        type            calculated;
        value           nonuniform List<scalar> 0();
    }
    inlet
    {
        type            cyclic;
        value           nonuniform List<scalar> 
15
(
-1.41145e-08
-1.40455e-08
-1.3995e-08
-1.39585e-08
-1.39326e-08
-1.39144e-08
-1.39017e-08
-1.38929e-08
-1.3887e-08
-1.38827e-08
-1.38795e-08
-1.38769e-08
-1.38743e-08
-1.38713e-08
-1.38657e-08
)
;
    }
    outlet
    {
        type            cyclic;
        value           nonuniform List<scalar> 
15
(
1.41145e-08
1.40455e-08
1.3995e-08
1.39585e-08
1.39326e-08
1.39144e-08
1.39017e-08
1.38929e-08
1.3887e-08
1.38827e-08
1.38795e-08
1.38769e-08
1.38743e-08
1.38713e-08
1.38657e-08
)
;
    }
    fixWall
    {
        type            empty;
        value           nonuniform List<scalar> 0();
    }
    procBoundary2to1
    {
        type            processor;
        value           nonuniform List<scalar> 8(2.85982e-10 9.7663e-10 3.33124e-12 -7.44718e-10 -4.048e-10 -9.33297e-11 5.53174e-10 -5.84135e-10);
    }
    procBoundary2to3
    {
        type            processor;
        value           nonuniform List<scalar> 8(-1.39613e-10 -1.12715e-09 -1.54734e-10 6.83727e-10 5.95061e-10 1.92966e-10 -6.1972e-10 5.87062e-10);
    }
}


// ************************************************************************* //
