/*--------------------------------*- C++ -*----------------------------------*\
  =========                 |
  \\      /  F ield         | OpenFOAM: The Open Source CFD Toolbox
   \\    /   O peration     | Website:  https://openfoam.org
    \\  /    A nd           | Version:  dev
     \\/     M anipulation  |

   OpenFOAM for Windows 20.09 (v1)
   Built by CFD Support, www.cfdsupport.com (based on Symscape).
\*---------------------------------------------------------------------------*/
FoamFile
{
    version     2.0;
    format      ascii;
    class       volSymmTensorField;
    location    "2";
    object      R;
}
// * * * * * * * * * * * * * * * * * * * * * * * * * * * * * * * * * * * * * //

dimensions      [0 2 -2 0 0 0 0];

internalField   nonuniform List<symmTensor> 
120
(
(1.4803e-16 -4.22462e-20 -0 1.4803e-16 -0 1.4803e-16)
(1.48021e-16 1.83198e-20 -0 1.48039e-16 -0 1.48028e-16)
(1.48026e-16 6.43578e-20 -0 1.48034e-16 -0 1.48029e-16)
(1.48032e-16 1.81804e-20 -0 1.48028e-16 -0 1.48029e-16)
(1.48031e-16 -3.23575e-20 -0 1.48028e-16 -0 1.4803e-16)
(1.48024e-16 1.09203e-20 -0 1.48035e-16 -0 1.4803e-16)
(1.48026e-16 2.59826e-20 -0 1.48033e-16 -0 1.4803e-16)
(1.48031e-16 -2.1146e-21 -0 1.48029e-16 -0 1.48029e-16)
(1.48031e-16 -2.34953e-20 -0 1.48028e-16 -0 1.4803e-16)
(1.48025e-16 7.10482e-22 -0 1.48035e-16 -0 1.4803e-16)
(1.48026e-16 1.07815e-20 -0 1.48034e-16 -0 1.4803e-16)
(1.4803e-16 -9.72037e-21 -0 1.48029e-16 -0 1.48029e-16)
(1.48032e-16 -1.96364e-20 -0 1.48027e-16 -0 1.4803e-16)
(1.48024e-16 -9.65332e-21 -0 1.48036e-16 -0 1.48029e-16)
(1.48025e-16 -6.93994e-21 -0 1.48034e-16 -0 1.4803e-16)
(1.4803e-16 -1.99119e-20 -0 1.4803e-16 -0 1.48029e-16)
(1.48033e-16 -2.54219e-20 -0 1.48025e-16 -0 1.4803e-16)
(1.48025e-16 -2.4537e-20 -0 1.48034e-16 -0 1.4803e-16)
(1.48025e-16 -2.6149e-20 -0 1.48034e-16 -0 1.4803e-16)
(1.48029e-16 -3.40361e-20 -0 1.4803e-16 -0 1.48029e-16)
(1.48034e-16 -3.91638e-20 -0 1.48026e-16 -0 1.4803e-16)
(1.48024e-16 -4.18403e-20 -0 1.48035e-16 -0 1.4803e-16)
(1.48024e-16 -4.90785e-20 -0 1.48035e-16 -0 1.4803e-16)
(1.48029e-16 -5.3337e-20 -0 1.4803e-16 -0 1.4803e-16)
(1.48035e-16 -6.49868e-20 -0 1.48024e-16 -0 1.48031e-16)
(1.48024e-16 -6.99997e-20 -0 1.48037e-16 -0 1.48029e-16)
(1.48024e-16 -7.82328e-20 -0 1.48035e-16 -0 1.4803e-16)
(1.48029e-16 -7.98563e-20 -0 1.48032e-16 -0 1.48029e-16)
(1.48034e-16 -1.04337e-19 -0 1.48025e-16 -0 1.4803e-16)
(1.48024e-16 -1.07138e-19 -0 1.48035e-16 -0 1.4803e-16)
(1.48024e-16 -1.16598e-19 -0 1.48035e-16 -0 1.4803e-16)
(1.48029e-16 -1.17665e-19 -0 1.4803e-16 -0 1.4803e-16)
(1.48035e-16 -1.63199e-19 -0 1.48023e-16 -0 1.48031e-16)
(1.48023e-16 -1.63281e-19 -0 1.48037e-16 -0 1.48029e-16)
(1.48024e-16 -1.69882e-19 -0 1.48035e-16 -0 1.4803e-16)
(1.48028e-16 -1.7283e-19 -0 1.48032e-16 -0 1.48029e-16)
(1.48035e-16 -2.47133e-19 -0 1.48024e-16 -0 1.4803e-16)
(1.48024e-16 -2.40712e-19 -0 1.48035e-16 -0 1.4803e-16)
(1.48024e-16 -2.42636e-19 -0 1.48036e-16 -0 1.4803e-16)
(1.48029e-16 -2.51495e-19 -0 1.48031e-16 -0 1.4803e-16)
(1.48036e-16 -3.65802e-19 -0 1.48024e-16 -0 1.4803e-16)
(1.48024e-16 -3.50535e-19 -0 1.48036e-16 -0 1.48029e-16)
(1.48023e-16 -3.42084e-19 -0 1.48037e-16 -0 1.4803e-16)
(1.48028e-16 -3.60218e-19 -0 1.48032e-16 -0 1.48029e-16)
(1.48036e-16 -5.28362e-19 -0 1.48022e-16 -0 1.48031e-16)
(1.48024e-16 -4.9933e-19 -0 1.48036e-16 -0 1.48029e-16)
(1.48023e-16 -4.76402e-19 -0 1.48036e-16 -0 1.4803e-16)
(1.48028e-16 -5.06076e-19 -0 1.48032e-16 -0 1.4803e-16)
(1.48035e-16 -7.48052e-19 -0 1.48025e-16 -0 1.48029e-16)
(1.48027e-16 -7.02715e-19 -0 1.48031e-16 -0 1.48031e-16)
(1.48023e-16 -6.56788e-19 -0 1.48036e-16 -0 1.4803e-16)
(1.48027e-16 -7.00373e-19 -0 1.48033e-16 -0 1.4803e-16)
(1.48037e-16 -1.04e-18 -0 1.48021e-16 -0 1.48031e-16)
(1.48027e-16 -9.72319e-19 -0 1.48034e-16 -0 1.48029e-16)
(1.48023e-16 -8.939e-19 -0 1.48037e-16 -0 1.48029e-16)
(1.48024e-16 -9.55803e-19 -0 1.48036e-16 -0 1.48029e-16)
(1.48035e-16 -1.41661e-18 -0 1.48025e-16 -0 1.4803e-16)
(1.48033e-16 -1.32591e-18 -0 1.48025e-16 -0 1.48031e-16)
(1.48024e-16 -1.21278e-18 -0 1.48035e-16 -0 1.4803e-16)
(1.48023e-16 -1.2848e-18 -0 1.48037e-16 -0 1.4803e-16)
(1.48033e-16 -2.30395e-20 -0 1.48027e-16 -0 1.48029e-16)
(1.48032e-16 -8.07662e-21 -0 1.48028e-16 -0 1.48029e-16)
(1.48029e-16 -1.06065e-20 -0 1.48031e-16 -0 1.48029e-16)
(1.48032e-16 -4.00337e-20 -0 1.48028e-16 -0 1.4803e-16)
(1.48034e-16 -2.28044e-20 -0 1.48025e-16 -0 1.4803e-16)
(1.48032e-16 -3.25706e-21 -0 1.48028e-16 -0 1.48029e-16)
(1.4803e-16 -1.18313e-20 -0 1.4803e-16 -0 1.4803e-16)
(1.48031e-16 -4.65876e-20 -0 1.48029e-16 -0 1.4803e-16)
(1.48034e-16 -2.56779e-20 -0 1.48025e-16 -0 1.4803e-16)
(1.48033e-16 6.24397e-21 -0 1.48027e-16 -0 1.48029e-16)
(1.48029e-16 -1.40335e-20 -0 1.4803e-16 -0 1.4803e-16)
(1.4803e-16 -4.97201e-20 -0 1.4803e-16 -0 1.48029e-16)
(1.48034e-16 -3.05977e-20 -0 1.48025e-16 -0 1.4803e-16)
(1.48033e-16 2.48853e-21 -0 1.48027e-16 -0 1.48029e-16)
(1.48028e-16 -2.26023e-20 -0 1.48031e-16 -0 1.4803e-16)
(1.4803e-16 -5.28381e-20 -0 1.48031e-16 -0 1.48029e-16)
(1.48035e-16 -4.12732e-20 -0 1.48023e-16 -0 1.48031e-16)
(1.48034e-16 -9.6677e-21 -0 1.48026e-16 -0 1.4803e-16)
(1.48027e-16 -3.291e-20 -0 1.48032e-16 -0 1.4803e-16)
(1.4803e-16 -5.76279e-20 -0 1.4803e-16 -0 1.48029e-16)
(1.48035e-16 -5.76859e-20 -0 1.48024e-16 -0 1.4803e-16)
(1.48033e-16 -3.36135e-20 -0 1.48026e-16 -0 1.48029e-16)
(1.48026e-16 -5.29492e-20 -0 1.48033e-16 -0 1.4803e-16)
(1.48031e-16 -7.014e-20 -0 1.48029e-16 -0 1.4803e-16)
(1.48036e-16 -8.31049e-20 -0 1.48023e-16 -0 1.4803e-16)
(1.48034e-16 -6.49504e-20 -0 1.48026e-16 -0 1.48029e-16)
(1.48026e-16 -7.85508e-20 -0 1.48033e-16 -0 1.4803e-16)
(1.48031e-16 -9.00827e-20 -0 1.4803e-16 -0 1.48029e-16)
(1.48036e-16 -1.20527e-19 -0 1.48023e-16 -0 1.4803e-16)
(1.48034e-16 -1.1019e-19 -0 1.48026e-16 -0 1.48029e-16)
(1.48025e-16 -1.18494e-19 -0 1.48034e-16 -0 1.4803e-16)
(1.48031e-16 -1.24948e-19 -0 1.48029e-16 -0 1.48029e-16)
(1.48037e-16 -1.75228e-19 -0 1.48022e-16 -0 1.4803e-16)
(1.48034e-16 -1.69634e-19 -0 1.48026e-16 -0 1.48029e-16)
(1.48025e-16 -1.74003e-19 -0 1.48034e-16 -0 1.4803e-16)
(1.48031e-16 -1.76575e-19 -0 1.48029e-16 -0 1.48029e-16)
(1.48036e-16 -2.54896e-19 -0 1.48023e-16 -0 1.4803e-16)
(1.48034e-16 -2.53449e-19 -0 1.48026e-16 -0 1.48029e-16)
(1.48025e-16 -2.54125e-19 -0 1.48034e-16 -0 1.4803e-16)
(1.48031e-16 -2.53202e-19 -0 1.48029e-16 -0 1.48029e-16)
(1.48037e-16 -3.65033e-19 -0 1.48022e-16 -0 1.48031e-16)
(1.48034e-16 -3.66384e-19 -0 1.48026e-16 -0 1.48029e-16)
(1.48025e-16 -3.63897e-19 -0 1.48034e-16 -0 1.4803e-16)
(1.48031e-16 -3.59862e-19 -0 1.48029e-16 -0 1.48029e-16)
(1.48036e-16 -5.19014e-19 -0 1.48022e-16 -0 1.48031e-16)
(1.48034e-16 -5.26575e-19 -0 1.48025e-16 -0 1.48029e-16)
(1.48025e-16 -5.14953e-19 -0 1.48034e-16 -0 1.4803e-16)
(1.48031e-16 -5.07007e-19 -0 1.48028e-16 -0 1.4803e-16)
(1.48035e-16 -7.2842e-19 -0 1.48024e-16 -0 1.4803e-16)
(1.48034e-16 -7.41565e-19 -0 1.48026e-16 -0 1.48029e-16)
(1.48026e-16 -7.14323e-19 -0 1.48033e-16 -0 1.4803e-16)
(1.48031e-16 -7.03192e-19 -0 1.48029e-16 -0 1.4803e-16)
(1.48035e-16 -1.01213e-18 -0 1.48023e-16 -0 1.48031e-16)
(1.48036e-16 -1.03131e-18 -0 1.48023e-16 -0 1.4803e-16)
(1.48026e-16 -9.76448e-19 -0 1.48033e-16 -0 1.4803e-16)
(1.48029e-16 -9.63163e-19 -0 1.48031e-16 -0 1.48029e-16)
(1.48033e-16 -1.3476e-18 -0 1.48026e-16 -0 1.4803e-16)
(1.48036e-16 -1.37703e-18 -0 1.48023e-16 -0 1.4803e-16)
(1.48028e-16 -1.30973e-18 -0 1.48031e-16 -0 1.4803e-16)
(1.48028e-16 -1.29885e-18 -0 1.48032e-16 -0 1.48029e-16)
)
;

boundaryField
{
    topWall
    {
        type            kqRWallFunction;
        value           nonuniform List<symmTensor> 0();
    }
    botWall
    {
        type            kqRWallFunction;
        value           nonuniform List<symmTensor> 0();
    }
    inlet
    {
        type            cyclic;
    }
    outlet
    {
        type            cyclic;
    }
    fixWall
    {
        type            empty;
    }
    procBoundary2to1
    {
        type            processor;
        value           nonuniform List<symmTensor> 8((1.48029e-16 -4.98588e-20 -0 1.4803e-16 -0 1.4803e-16) (1.48021e-16 1.47754e-20 -0 1.48037e-16 -0 1.4803e-16) (1.48026e-16 7.69458e-20 -0 1.48033e-16 -0 1.4803e-16) (1.48035e-16 2.67402e-20 -0 1.48025e-16 -0 1.4803e-16) (1.48035e-16 -2.15307e-20 -0 1.48023e-16 -0 1.48031e-16) (1.48032e-16 -1.42108e-20 -0 1.48027e-16 -0 1.4803e-16) (1.4803e-16 -1.05309e-20 -0 1.4803e-16 -0 1.48029e-16) (1.48034e-16 -3.24122e-20 -0 1.48024e-16 -0 1.48031e-16));
    }
    procBoundary2to3
    {
        type            processor;
        value           nonuniform List<symmTensor> 8((1.48035e-16 -1.85554e-18 -0 1.48024e-16 -0 1.4803e-16) (1.48036e-16 -1.76355e-18 -0 1.48023e-16 -0 1.4803e-16) (1.48025e-16 -1.66446e-18 -0 1.48035e-16 -0 1.4803e-16) (1.48019e-16 -1.72474e-18 -0 1.48043e-16 -0 1.48028e-16) (1.4803e-16 -1.77858e-18 -0 1.4803e-16 -0 1.48029e-16) (1.48037e-16 -1.80975e-18 -0 1.48023e-16 -0 1.4803e-16) (1.4803e-16 -1.76309e-18 -0 1.48028e-16 -0 1.48031e-16) (1.48025e-16 -1.76319e-18 -0 1.48036e-16 -0 1.48028e-16));
    }
}


// ************************************************************************* //
