/*--------------------------------*- C++ -*----------------------------------*\
  =========                 |
  \\      /  F ield         | OpenFOAM: The Open Source CFD Toolbox
   \\    /   O peration     | Website:  https://openfoam.org
    \\  /    A nd           | Version:  dev
     \\/     M anipulation  |

   OpenFOAM for Windows 20.09 (v1)
   Built by CFD Support, www.cfdsupport.com (based on Symscape).
\*---------------------------------------------------------------------------*/
FoamFile
{
    version     2.0;
    format      ascii;
    class       volVectorField;
    location    "2";
    object      U;
}
// * * * * * * * * * * * * * * * * * * * * * * * * * * * * * * * * * * * * * //

dimensions      [0 1 -1 0 0 0 0];

internalField   nonuniform List<vector> 
120
(
(0.0166333 -5.75419e-06 0)
(0.0166487 -1.96716e-05 0)
(0.0166736 -1.75392e-07 0)
(0.0166682 1.5009e-05 0)
(0.0166368 -5.62058e-06 0)
(0.0166465 -2.02508e-05 0)
(0.0166701 -3.83678e-07 0)
(0.0166679 1.49404e-05 0)
(0.0166398 -5.51247e-06 0)
(0.0166466 -2.01281e-05 0)
(0.0166682 -3.87633e-07 0)
(0.0166685 1.50531e-05 0)
(0.0166415 -5.47642e-06 0)
(0.0166463 -2.06652e-05 0)
(0.0166676 -7.19033e-07 0)
(0.0166695 1.49381e-05 0)
(0.0166437 -5.28116e-06 0)
(0.0166481 -2.06671e-05 0)
(0.0166688 -7.8805e-07 0)
(0.0166717 1.4944e-05 0)
(0.0166462 -5.0706e-06 0)
(0.0166503 -2.09553e-05 0)
(0.0166713 -1.01354e-06 0)
(0.0166749 1.48681e-05 0)
(0.0166505 -4.94504e-06 0)
(0.0166548 -2.11226e-05 0)
(0.0166761 -1.24336e-06 0)
(0.0166801 1.48981e-05 0)
(0.0166569 -4.53279e-06 0)
(0.0166611 -2.15365e-05 0)
(0.016683 -1.42012e-06 0)
(0.0166872 1.46768e-05 0)
(0.016667 -4.5841e-06 0)
(0.0166711 -2.14692e-05 0)
(0.0166933 -1.67723e-06 0)
(0.0166979 1.48439e-05 0)
(0.0166819 -3.98143e-06 0)
(0.0166856 -2.20964e-05 0)
(0.0167078 -1.8337e-06 0)
(0.016713 1.44512e-05 0)
(0.0167041 -4.15041e-06 0)
(0.0167066 -2.1812e-05 0)
(0.0167285 -2.09362e-06 0)
(0.0167348 1.47191e-05 0)
(0.0167358 -3.50207e-06 0)
(0.0167366 -2.25958e-05 0)
(0.016757 -2.34445e-06 0)
(0.0167652 1.42476e-05 0)
(0.0167809 -3.53782e-06 0)
(0.0167786 -2.23482e-05 0)
(0.0167966 -2.56073e-06 0)
(0.0168076 1.45339e-05 0)
(0.0168437 -3.18087e-06 0)
(0.0168374 -2.26377e-05 0)
(0.0168506 -2.76531e-06 0)
(0.0168654 1.40074e-05 0)
(0.0169302 -2.82719e-06 0)
(0.0169176 -2.27194e-05 0)
(0.0169238 -3.08024e-06 0)
(0.016944 1.40057e-05 0)
(0.0166588 8.40205e-06 0)
(0.0166465 1.94113e-06 0)
(0.0166432 -1.10455e-05 0)
(0.0166453 1.19322e-05 0)
(0.0166608 8.28167e-06 0)
(0.0166482 2.00767e-06 0)
(0.0166449 -1.11918e-05 0)
(0.0166499 1.17976e-05 0)
(0.0166633 8.92431e-06 0)
(0.0166475 2.08718e-06 0)
(0.0166452 -1.10009e-05 0)
(0.0166539 1.2004e-05 0)
(0.0166655 8.70825e-06 0)
(0.0166474 2.21354e-06 0)
(0.0166472 -1.11241e-05 0)
(0.0166586 1.1753e-05 0)
(0.0166687 9.32555e-06 0)
(0.0166474 2.33e-06 0)
(0.0166489 -1.11255e-05 0)
(0.0166628 1.18263e-05 0)
(0.0166726 9.30999e-06 0)
(0.0166493 2.50018e-06 0)
(0.0166525 -1.12426e-05 0)
(0.016668 1.17311e-05 0)
(0.0166782 9.83451e-06 0)
(0.0166531 2.55844e-06 0)
(0.0166572 -1.13883e-05 0)
(0.016674 1.18765e-05 0)
(0.0166858 9.90578e-06 0)
(0.0166598 2.74966e-06 0)
(0.0166647 -1.14887e-05 0)
(0.016682 1.16976e-05 0)
(0.0166968 1.0363e-05 0)
(0.0166703 2.80663e-06 0)
(0.0166752 -1.16989e-05 0)
(0.016693 1.19315e-05 0)
(0.0167122 1.05184e-05 0)
(0.0166856 3.02732e-06 0)
(0.0166906 -1.17613e-05 0)
(0.0167084 1.16938e-05 0)
(0.0167346 1.08369e-05 0)
(0.0167081 3.04617e-06 0)
(0.0167125 -1.19757e-05 0)
(0.0167302 1.19513e-05 0)
(0.0167656 1.11496e-05 0)
(0.0167394 3.29775e-06 0)
(0.0167434 -1.20564e-05 0)
(0.0167607 1.17578e-05 0)
(0.0168097 1.14336e-05 0)
(0.0167844 3.3201e-06 0)
(0.0167867 -1.23122e-05 0)
(0.0168032 1.20387e-05 0)
(0.0168703 1.15332e-05 0)
(0.0168461 3.48955e-06 0)
(0.0168458 -1.22622e-05 0)
(0.0168614 1.18103e-05 0)
(0.0169546 1.20146e-05 0)
(0.0169323 3.7983e-06 0)
(0.0169262 -1.25179e-05 0)
(0.0169408 1.19039e-05 0)
)
;

boundaryField
{
    topWall
    {
        type            noSlip;
    }
    botWall
    {
        type            noSlip;
    }
    inlet
    {
        type            cyclic;
    }
    outlet
    {
        type            cyclic;
    }
    fixWall
    {
        type            empty;
    }
    procBoundary2to1
    {
        type            processor;
        value           nonuniform List<vector> 8((0.016628 -5.67534e-06 0) (0.0166501 -1.91735e-05 0) (0.0166832 1.31336e-07 0) (0.0166716 1.4813e-05 0) (0.0166561 8.01748e-06 0) (0.0166463 1.87842e-06 0) (0.016643 -1.10535e-05 0) (0.0166422 1.15588e-05 0));
    }
    procBoundary2to3
    {
        type            processor;
        value           nonuniform List<vector> 8((0.0170468 -2.83855e-06 0) (0.0170269 -2.21843e-05 0) (0.0170233 -3.13037e-06 0) (0.0170488 1.34835e-05 0) (0.017063 1.18331e-05 0) (0.0170433 3.92407e-06 0) (0.0170328 -1.2315e-05 0) (0.0170468 1.16413e-05 0));
    }
}


// ************************************************************************* //
