/*--------------------------------*- C++ -*----------------------------------*\
  =========                 |
  \\      /  F ield         | OpenFOAM: The Open Source CFD Toolbox
   \\    /   O peration     | Website:  https://openfoam.org
    \\  /    A nd           | Version:  dev
     \\/     M anipulation  |

   OpenFOAM for Windows 20.09 (v1)
   Built by CFD Support, www.cfdsupport.com (based on Symscape).
\*---------------------------------------------------------------------------*/
FoamFile
{
    version     2.0;
    format      ascii;
    class       surfaceScalarField;
    location    "8";
    object      alphaPhi0.water;
}
// * * * * * * * * * * * * * * * * * * * * * * * * * * * * * * * * * * * * * //

dimensions      [0 3 -1 0 0 0 0];

internalField   nonuniform List<scalar> 
217
(
2.00657e-09
4.93751e-11
2.04589e-09
-4.0229e-11
2.05449e-09
-8.71831e-12
1.37234e-12
2.05315e-09
5.76977e-09
6.59217e-11
5.7837e-09
-5.41852e-11
5.79511e-09
-2.0148e-11
6.72783e-12
5.78979e-09
9.17006e-09
7.64524e-11
9.18049e-09
-6.45964e-11
9.18597e-09
-2.56341e-11
1.74184e-11
9.17529e-09
1.22415e-08
8.19552e-11
1.22489e-08
-7.19515e-11
1.22491e-08
-2.58925e-11
3.31597e-11
1.22334e-08
1.50074e-08
8.46849e-11
1.50111e-08
-7.5643e-11
1.5007e-08
-2.18107e-11
5.29185e-11
1.49873e-08
1.74885e-08
8.49538e-11
1.74891e-08
-7.62545e-11
1.74818e-08
-1.44778e-11
7.60064e-11
1.74587e-08
1.97069e-08
8.32727e-11
1.97048e-08
-7.40818e-11
1.96946e-08
-4.30227e-12
1.01295e-10
1.96693e-08
2.16831e-08
7.98937e-11
2.16785e-08
-6.94782e-11
2.16658e-08
8.44439e-12
1.27787e-10
2.16393e-08
2.34374e-08
7.53394e-11
2.34304e-08
-6.24023e-11
2.34154e-08
2.33949e-11
1.54331e-10
2.33889e-08
2.4989e-08
6.97053e-11
2.49796e-08
-5.30038e-11
2.49621e-08
4.09159e-11
1.80094e-10
2.49363e-08
2.63564e-08
6.32703e-11
2.63443e-08
-4.08604e-11
2.63245e-08
6.06842e-11
2.04373e-10
2.63002e-08
2.7557e-08
5.5581e-11
2.75424e-08
-2.62871e-11
2.75194e-08
8.37672e-11
2.26747e-10
2.7497e-08
2.86063e-08
4.76605e-11
2.85892e-08
-9.08556e-12
2.85643e-08
1.08688e-10
2.47616e-10
2.85433e-08
2.95212e-08
3.80351e-11
2.95019e-08
1.02787e-11
2.94718e-08
1.38851e-10
2.66375e-10
2.94529e-08
3.03145e-08
3.02936e-08
3.02593e-08
3.02415e-08
2.05141e-09
1.74473e-12
2.05454e-09
-3.15652e-12
2.04651e-09
8.00872e-12
-6.84021e-12
5.78763e-09
3.89752e-12
5.79332e-09
-8.84107e-12
5.7802e-09
2.11156e-11
-1.29461e-11
9.17375e-09
5.42938e-12
9.18174e-09
-1.67955e-11
9.16788e-09
3.49713e-11
-2.56127e-11
1.22323e-08
6.51682e-12
1.22439e-08
-2.82999e-11
1.223e-08
4.88026e-11
-4.25425e-11
1.49862e-08
7.55105e-12
1.50021e-08
-4.41601e-11
1.49894e-08
6.15803e-11
-6.32844e-11
1.74578e-08
8.41538e-12
1.74779e-08
-6.42543e-11
1.7466e-08
7.3537e-11
-8.60458e-11
1.96685e-08
9.21384e-12
1.96924e-08
-8.81077e-11
1.96812e-08
8.46611e-11
-1.10082e-10
2.1639e-08
9.51287e-12
2.1666e-08
-1.15124e-10
2.16553e-08
9.53751e-11
-1.34598e-10
2.33892e-08
9.19014e-12
2.34187e-08
-1.44692e-10
2.34084e-08
1.05682e-10
-1.59119e-10
2.49382e-08
7.35971e-12
2.49697e-08
-1.76294e-10
2.49594e-08
1.15966e-10
-1.83122e-10
2.63039e-08
3.72167e-12
2.63371e-08
-2.09587e-10
2.63265e-08
1.26546e-10
-2.06629e-10
2.75034e-08
-2.74479e-12
2.75386e-08
-2.44819e-10
2.75271e-08
1.3813e-10
-2.28944e-10
2.85526e-08
-1.20463e-11
2.85904e-08
-2.82566e-10
2.85778e-08
1.50702e-10
-2.49599e-10
2.94673e-08
-2.64359e-11
2.95085e-08
-3.23734e-10
2.94941e-08
1.65163e-10
-2.67194e-10
3.02604e-08
3.03069e-08
3.02914e-08
)
;

boundaryField
{
    topWall
    {
        type            calculated;
        value           nonuniform List<scalar> 0();
    }
    botWall
    {
        type            calculated;
        value           uniform 0;
    }
    inlet
    {
        type            cyclic;
        value           nonuniform List<scalar> 
15
(
-3.03033e-08
-2.95116e-08
-2.85984e-08
-2.75493e-08
-2.635e-08
-2.49834e-08
-2.34329e-08
-2.16797e-08
-1.97053e-08
-1.74887e-08
-1.50101e-08
-1.2247e-08
-9.18058e-09
-5.78631e-09
-2.05335e-09
)
;
    }
    outlet
    {
        type            cyclic;
        value           nonuniform List<scalar> 
15
(
3.03033e-08
2.95116e-08
2.85984e-08
2.75493e-08
2.635e-08
2.49834e-08
2.34329e-08
2.16797e-08
1.97053e-08
1.74887e-08
1.50101e-08
1.2247e-08
9.18058e-09
5.78631e-09
2.05335e-09
)
;
    }
    fixWall
    {
        type            empty;
        value           nonuniform List<scalar> 0();
    }
    procBoundary0to1
    {
        type            processor;
        value           nonuniform List<scalar> 8(2.63578e-11 3.12712e-11 1.73016e-10 2.83477e-10 -4.57257e-11 -3.70097e-10 1.80801e-10 -2.79282e-10);
    }
}


// ************************************************************************* //
