/*--------------------------------*- C++ -*----------------------------------*\
  =========                 |
  \\      /  F ield         | OpenFOAM: The Open Source CFD Toolbox
   \\    /   O peration     | Website:  https://openfoam.org
    \\  /    A nd           | Version:  dev
     \\/     M anipulation  |

   OpenFOAM for Windows 20.09 (v1)
   Built by CFD Support, www.cfdsupport.com (based on Symscape).
\*---------------------------------------------------------------------------*/
FoamFile
{
    version     2.0;
    format      ascii;
    class       volSymmTensorField;
    location    "8";
    object      devReff;
}
// * * * * * * * * * * * * * * * * * * * * * * * * * * * * * * * * * * * * * //

dimensions      [0 2 -2 0 0 0 0];

internalField   nonuniform List<symmTensor> 
120
(
(-3.30793e-08 -0.00106968 -0 1.97398e-07 -0 -1.64319e-07)
(-1.77713e-07 -0.00106761 -0 2.55552e-07 -0 -7.78388e-08)
(-9.45224e-08 -0.00107504 -0 5.70685e-08 -0 3.74539e-08)
(-8.59909e-09 -0.00107473 -0 2.08505e-08 -0 -1.22514e-08)
(1.26122e-07 -0.000979721 -0 -1.59624e-07 -0 3.35025e-08)
(-1.30942e-07 -0.000979046 -0 1.83079e-07 -0 -5.21371e-08)
(-8.32449e-08 -0.000978401 -0 6.10697e-08 -0 2.21752e-08)
(2.6101e-08 -0.000977276 -0 -6.40668e-09 -0 -1.96943e-08)
(5.95118e-08 -0.000887688 -0 -6.85564e-08 -0 9.04463e-09)
(-8.22685e-08 -0.000887224 -0 1.08786e-07 -0 -2.65171e-08)
(-4.68047e-08 -0.000886139 -0 2.0558e-08 -0 2.62467e-08)
(6.55504e-08 -0.000885091 -0 -4.30312e-08 -0 -2.25192e-08)
(4.93062e-08 -0.000801542 -0 -8.79032e-08 -0 3.8597e-08)
(-5.35041e-08 -0.000801241 -0 7.99885e-08 -0 -2.64844e-08)
(-9.42904e-09 -0.000799899 -0 -1.53722e-08 -0 2.48012e-08)
(1.06553e-07 -0.000798968 -0 -8.47647e-08 -0 -2.17879e-08)
(4.23665e-08 -0.000721259 -0 -1.06793e-07 -0 6.44267e-08)
(-2.91863e-08 -0.000720991 -0 5.75431e-08 -0 -2.83568e-08)
(2.79324e-08 -0.000719612 -0 -5.3173e-08 -0 2.52405e-08)
(1.4164e-07 -0.000718909 -0 -1.19945e-07 -0 -2.16952e-08)
(-5.438e-08 -0.000646753 -0 6.23135e-08 -0 -7.9336e-09)
(-1.42594e-09 -0.000646546 -0 3.09038e-08 -0 -2.94778e-08)
(6.0522e-08 -0.000645163 -0 -8.57657e-08 -0 2.52438e-08)
(1.69357e-07 -0.000644692 -0 -1.47634e-07 -0 -2.17234e-08)
(2.62528e-09 -0.000577832 -0 -7.26317e-08 -0 7.00064e-08)
(2.29725e-08 -0.000577713 -0 6.43343e-09 -0 -2.94059e-08)
(8.89734e-08 -0.000576383 -0 -1.13477e-07 -0 2.45033e-08)
(1.89435e-07 -0.000576132 -0 -1.68018e-07 -0 -2.14173e-08)
(-7.51995e-08 -0.000514474 -0 6.88646e-08 -0 6.3349e-09)
(4.76889e-08 -0.000514443 -0 -1.88296e-08 -0 -2.88593e-08)
(1.13739e-07 -0.000513084 -0 -1.39474e-07 -0 2.57348e-08)
(2.00067e-07 -0.000512985 -0 -1.78456e-07 -0 -2.16112e-08)
(-4.52075e-08 -0.000456401 -0 -5.24897e-09 -0 5.04564e-08)
(6.91691e-08 -0.000456456 -0 -3.9449e-08 -0 -2.97201e-08)
(1.36841e-07 -0.000455062 -0 -1.60659e-07 -0 2.38175e-08)
(2.03183e-07 -0.00045507 -0 -1.81809e-07 -0 -2.13739e-08)
(-8.16812e-08 -0.000403432 -0 5.90714e-08 -0 2.26098e-08)
(9.16707e-08 -0.000403593 -0 -6.20128e-08 -0 -2.96579e-08)
(1.62605e-07 -0.000402096 -0 -1.91072e-07 -0 2.8467e-08)
(1.97944e-07 -0.000402117 -0 -1.75725e-07 -0 -2.22186e-08)
(-7.66459e-08 -0.000355264 -0 3.6496e-08 -0 4.01499e-08)
(1.14286e-07 -0.000355543 -0 -8.49946e-08 -0 -2.92917e-08)
(1.82037e-07 -0.000353975 -0 -2.02003e-07 -0 1.99659e-08)
(1.89477e-07 -0.00035399 -0 -1.68655e-07 -0 -2.08219e-08)
(-9.499e-08 -0.000311608 -0 6.56865e-08 -0 2.93035e-08)
(1.32354e-07 -0.000312048 -0 -1.00269e-07 -0 -3.20847e-08)
(2.16348e-07 -0.000310413 -0 -2.46964e-07 -0 3.06158e-08)
(1.74112e-07 -0.000310335 -0 -1.5014e-07 -0 -2.39724e-08)
(-1.00895e-07 -0.000272216 -0 6.60738e-08 -0 3.48209e-08)
(1.49967e-07 -0.000272944 -0 -1.1643e-07 -0 -3.35367e-08)
(2.43832e-07 -0.000271174 -0 -2.68738e-07 -0 2.49058e-08)
(1.61177e-07 -0.000270902 -0 -1.38327e-07 -0 -2.28491e-08)
(-1.10889e-07 -0.00023683 -0 7.66037e-08 -0 3.42851e-08)
(1.75129e-07 -0.000238037 -0 -1.51029e-07 -0 -2.40997e-08)
(2.71144e-07 -0.000236024 -0 -2.88851e-07 -0 1.77072e-08)
(1.57822e-07 -0.000235383 -0 -1.41588e-07 -0 -1.62334e-08)
(-1.33929e-07 -0.000205048 -0 1.04037e-07 -0 2.98913e-08)
(1.8236e-07 -0.000206854 -0 -1.54329e-07 -0 -2.80308e-08)
(3.46379e-07 -0.000204744 -0 -3.85793e-07 -0 3.94146e-08)
(1.46495e-07 -0.000203731 -0 -1.239e-07 -0 -2.25941e-08)
(1.46162e-08 -0.00107355 -0 -2.62613e-08 -0 1.16451e-08)
(7.37026e-09 -0.00107445 -0 -9.79043e-10 -0 -6.39121e-09)
(9.99538e-09 -0.00107256 -0 -2.22251e-08 -0 1.22297e-08)
(3.23202e-08 -0.00107432 -0 1.78202e-08 -0 -5.01404e-08)
(1.94114e-08 -0.000975867 -0 -3.24764e-08 -0 1.3065e-08)
(9.81369e-09 -0.000977213 -0 -2.47165e-10 -0 -9.56652e-09)
(2.18331e-08 -0.000976103 -0 -3.72121e-08 -0 1.5379e-08)
(-1.52781e-08 -0.000976618 -0 4.41858e-08 -0 -2.89077e-08)
(2.01994e-08 -0.000883661 -0 -3.53254e-08 -0 1.5126e-08)
(-4.01535e-09 -0.000885193 -0 1.38892e-08 -0 -9.87388e-09)
(3.27524e-08 -0.000884825 -0 -4.7994e-08 -0 1.52416e-08)
(-6.57378e-08 -0.000884769 -0 9.32989e-08 -0 -2.75611e-08)
(1.77281e-08 -0.000797638 -0 -3.25403e-08 -0 1.48122e-08)
(-2.92619e-08 -0.000799115 -0 3.90517e-08 -0 -9.78974e-09)
(3.67163e-08 -0.000799339 -0 -5.28274e-08 -0 1.61111e-08)
(-1.09915e-07 -0.00079906 -0 1.37981e-07 -0 -2.80659e-08)
(1.51853e-08 -0.000717725 -0 -3.02137e-08 -0 1.50284e-08)
(-6.0508e-08 -0.000719038 -0 7.01387e-08 -0 -9.63074e-09)
(3.46969e-08 -0.000719655 -0 -5.01823e-08 -0 1.54855e-08)
(-1.39644e-07 -0.00071928 -0 1.67659e-07 -0 -2.80154e-08)
(1.35252e-08 -0.000643731 -0 -2.84483e-08 -0 1.49231e-08)
(-9.3499e-08 -0.00064486 -0 1.03152e-07 -0 -9.65273e-09)
(2.83702e-08 -0.000645665 -0 -4.41744e-08 -0 1.58042e-08)
(-1.6361e-07 -0.000645183 -0 1.91934e-07 -0 -2.83242e-08)
(9.48526e-09 -0.000575457 -0 -2.44263e-08 -0 1.49411e-08)
(-1.24833e-07 -0.000576375 -0 1.34295e-07 -0 -9.46242e-09)
(2.4131e-08 -0.000577243 -0 -3.98952e-08 -0 1.57642e-08)
(-1.76537e-07 -0.000576662 -0 2.05214e-07 -0 -2.8677e-08)
(5.21765e-09 -0.000512662 -0 -1.99273e-08 -0 1.47096e-08)
(-1.53373e-07 -0.000513402 -0 1.63373e-07 -0 -9.99995e-09)
(1.85591e-08 -0.000514235 -0 -3.4096e-08 -0 1.55369e-08)
(-1.82692e-07 -0.000513592 -0 2.10531e-07 -0 -2.78393e-08)
(-4.01472e-09 -0.000455095 -0 -1.12893e-08 -0 1.5304e-08)
(-1.76848e-07 -0.000455704 -0 1.85946e-07 -0 -9.0983e-09)
(1.79076e-08 -0.000456473 -0 -3.38563e-08 -0 1.59487e-08)
(-1.85166e-07 -0.000455771 -0 2.14635e-07 -0 -2.9469e-08)
(-1.58433e-08 -0.000402509 -0 1.11706e-09 -0 1.47262e-08)
(-1.98955e-07 -0.000403091 -0 2.08713e-07 -0 -9.75791e-09)
(1.61155e-08 -0.000403748 -0 -3.15086e-08 -0 1.53931e-08)
(-1.79907e-07 -0.000402955 -0 2.0752e-07 -0 -2.76132e-08)
(-3.60816e-08 -0.00035462 -0 2.04628e-08 -0 1.56188e-08)
(-2.18335e-07 -0.000355235 -0 2.27759e-07 -0 -9.42394e-09)
(1.9744e-08 -0.00035588 -0 -3.30628e-08 -0 1.33188e-08)
(-1.75204e-07 -0.000354939 -0 2.05442e-07 -0 -3.02383e-08)
(-5.93727e-08 -0.000311183 -0 4.6764e-08 -0 1.26087e-08)
(-2.40557e-07 -0.000311966 -0 2.50115e-07 -0 -9.55804e-09)
(3.02702e-08 -0.000312653 -0 -4.9998e-08 -0 1.97278e-08)
(-1.58042e-07 -0.000311475 -0 1.8456e-07 -0 -2.65178e-08)
(-8.86857e-08 -0.000271875 -0 7.14352e-08 -0 1.72505e-08)
(-2.64397e-07 -0.000272936 -0 2.71112e-07 -0 -6.71587e-09)
(3.65145e-08 -0.000273863 -0 -5.03033e-08 -0 1.37887e-08)
(-1.41224e-07 -0.00027231 -0 1.72599e-07 -0 -3.13752e-08)
(-1.25126e-07 -0.00023645 -0 1.10705e-07 -0 1.44205e-08)
(-3.06674e-07 -0.000237893 -0 3.16366e-07 -0 -9.69163e-09)
(4.93517e-08 -0.000239229 -0 -6.74197e-08 -0 1.8068e-08)
(-1.04586e-07 -0.000237185 -0 1.32871e-07 -0 -2.82852e-08)
(-1.70634e-07 -0.000204601 -0 1.51943e-07 -0 1.86906e-08)
(-3.68199e-07 -0.000206455 -0 3.86465e-07 -0 -1.82659e-08)
(6.49025e-08 -0.000208409 -0 -8.36249e-08 -0 1.87223e-08)
(-4.72686e-08 -0.000205737 -0 6.49911e-08 -0 -1.77225e-08)
)
;

boundaryField
{
    topWall
    {
        type            calculated;
        value           nonuniform List<symmTensor> 0();
    }
    botWall
    {
        type            calculated;
        value           nonuniform List<symmTensor> 8((5.27465e-08 -0.00111204 -0 2.57466e-08 -0 -7.84931e-08) (-1.85385e-07 -0.00110873 -0 2.70895e-07 -0 -8.55103e-08) (-7.65371e-08 -0.00112402 -0 2.1098e-08 -0 5.54392e-08) (-1.19589e-08 -0.00112456 -0 2.75701e-08 -0 -1.56112e-08) (1.45361e-08 -0.00112358 -0 -2.61011e-08 -0 1.1565e-08) (8.09135e-09 -0.00112421 -0 -2.42123e-09 -0 -5.67012e-09) (5.41909e-09 -0.00112193 -0 -1.30725e-08 -0 7.65341e-09) (2.24457e-08 -0.00112448 -0 3.75693e-08 -0 -6.00149e-08));
    }
    inlet
    {
        type            cyclic;
    }
    outlet
    {
        type            cyclic;
    }
    fixWall
    {
        type            empty;
    }
    procBoundary0to1
    {
        type            processor;
        value           nonuniform List<symmTensor> 8((-1.51125e-07 -0.00017741 -0 1.20222e-07 -0 3.09032e-08) (1.80993e-07 -0.000178818 -0 -1.52623e-07 -0 -2.83696e-08) (3.81188e-07 -0.000176817 -0 -4.0541e-07 -0 2.42222e-08) (1.55124e-07 -0.000175866 -0 -1.32233e-07 -0 -2.28906e-08) (-2.03657e-07 -0.000176811 -0 1.7737e-07 -0 2.6287e-08) (-4.38052e-07 -0.000178586 -0 4.52648e-07 -0 -1.45965e-08) (6.15318e-08 -0.000180017 -0 -6.80577e-08 -0 6.52591e-09) (1.24665e-08 -0.000177777 -0 1.11451e-08 -0 -2.36116e-08));
    }
}


// ************************************************************************* //
