/*--------------------------------*- C++ -*----------------------------------*\
  =========                 |
  \\      /  F ield         | OpenFOAM: The Open Source CFD Toolbox
   \\    /   O peration     | Website:  https://openfoam.org
    \\  /    A nd           | Version:  dev
     \\/     M anipulation  |

   OpenFOAM for Windows 20.09 (v1)
   Built by CFD Support, www.cfdsupport.com (based on Symscape).
\*---------------------------------------------------------------------------*/
FoamFile
{
    version     2.0;
    format      ascii;
    class       volScalarField;
    location    "8";
    object      epsilon;
}
// * * * * * * * * * * * * * * * * * * * * * * * * * * * * * * * * * * * * * //

dimensions      [0 2 -3 0 0 0 0];

internalField   nonuniform List<scalar> 
120
(
1.73748e-12
1.73748e-12
1.73748e-12
1.73748e-12
2.99636e-13
2.99637e-13
2.99637e-13
2.99637e-13
1.01968e-13
1.01968e-13
1.01968e-13
1.01968e-13
4.79191e-14
4.79191e-14
4.79193e-14
4.79193e-14
2.70283e-14
2.70282e-14
2.70284e-14
2.70284e-14
1.71879e-14
1.71878e-14
1.71879e-14
1.71879e-14
1.18449e-14
1.18448e-14
1.18449e-14
1.1845e-14
8.6403e-15
8.64022e-15
8.64031e-15
8.64035e-15
6.57373e-15
6.57368e-15
6.57376e-15
6.57381e-15
5.16595e-15
5.16592e-15
5.16599e-15
5.16604e-15
4.16499e-15
4.16498e-15
4.16503e-15
4.16509e-15
3.42845e-15
3.42847e-15
3.42851e-15
3.42857e-15
2.87109e-15
2.87112e-15
2.87115e-15
2.87121e-15
2.43937e-15
2.43941e-15
2.43942e-15
2.43949e-15
2.09833e-15
2.09838e-15
2.09839e-15
2.09846e-15
1.73748e-12
1.73748e-12
1.73748e-12
1.73748e-12
2.99637e-13
2.99637e-13
2.99637e-13
2.99637e-13
1.01968e-13
1.01968e-13
1.01968e-13
1.01968e-13
4.79193e-14
4.79193e-14
4.79193e-14
4.79193e-14
2.70284e-14
2.70283e-14
2.70284e-14
2.70283e-14
1.71879e-14
1.71879e-14
1.71879e-14
1.71878e-14
1.18449e-14
1.18449e-14
1.1845e-14
1.18448e-14
8.6403e-15
8.64022e-15
8.64032e-15
8.64021e-15
6.57374e-15
6.57364e-15
6.57375e-15
6.57365e-15
5.16596e-15
5.16585e-15
5.16597e-15
5.16588e-15
4.16501e-15
4.16489e-15
4.165e-15
4.16493e-15
3.42849e-15
3.42835e-15
3.42847e-15
3.42841e-15
2.87113e-15
2.87099e-15
2.8711e-15
2.87105e-15
2.43942e-15
2.43926e-15
2.43937e-15
2.43934e-15
2.09839e-15
2.09823e-15
2.09833e-15
2.09832e-15
)
;

boundaryField
{
    topWall
    {
        type            epsilonWallFunction;
        value           nonuniform List<scalar> 0();
    }
    botWall
    {
        type            epsilonWallFunction;
        value           nonuniform List<scalar> 8(1.73748e-12 1.73748e-12 1.73748e-12 1.73748e-12 1.73748e-12 1.73748e-12 1.73748e-12 1.73748e-12);
    }
    inlet
    {
        type            cyclic;
    }
    outlet
    {
        type            cyclic;
    }
    fixWall
    {
        type            empty;
    }
    procBoundary0to1
    {
        type            processor;
        value           nonuniform List<scalar> 8(1.82437e-15 1.82443e-15 1.82443e-15 1.8245e-15 1.82443e-15 1.82427e-15 1.82436e-15 1.82436e-15);
    }
}


// ************************************************************************* //
