/*--------------------------------*- C++ -*----------------------------------*\
  =========                 |
  \\      /  F ield         | OpenFOAM: The Open Source CFD Toolbox
   \\    /   O peration     | Website:  https://openfoam.org
    \\  /    A nd           | Version:  dev
     \\/     M anipulation  |

   OpenFOAM for Windows 20.09 (v1)
   Built by CFD Support, www.cfdsupport.com (based on Symscape).
\*---------------------------------------------------------------------------*/
FoamFile
{
    version     2.0;
    format      ascii;
    class       volVectorField;
    location    "8";
    object      gradp_rgh;
}
// * * * * * * * * * * * * * * * * * * * * * * * * * * * * * * * * * * * * * //

dimensions      [1 -2 -2 0 0 0 0];

internalField   nonuniform List<vector> 
120
(
(-1.23184 -12.3741 0)
(-1.4519 -1.41893 0)
(-1.27467 -0.127823 0)
(-1.25052 0.00184558 0)
(-1.25549 -12.3757 0)
(-1.24779 -1.41891 0)
(-1.25099 -0.127662 0)
(-1.2487 0.000292356 0)
(-1.25553 -0.00317606 0)
(-1.24776 0.024218 0)
(-1.25101 0.000670492 0)
(-1.24865 -0.00169201 0)
(-1.25513 -0.00471668 0)
(-1.24773 -0.00139694 0)
(-1.25142 -0.00187615 0)
(-1.24885 -0.000307073 0)
(-1.25551 -0.00966574 0)
(-1.24772 -0.0353458 0)
(-1.25099 -0.00389178 0)
(-1.24881 -0.000437521 0)
(-1.25566 -0.00987957 0)
(-1.24763 -0.00465601 0)
(-1.25084 -0.00112698 0)
(-1.24879 0.00478843 0)
(-1.25557 -0.00617645 0)
(-1.24757 0.0107132 0)
(-1.25084 0.000960611 0)
(-1.2488 0.00151572 0)
(-1.25547 -0.00585528 0)
(-1.24751 0.000812849 0)
(-1.25099 0.00124658 0)
(-1.24881 -0.00441232 0)
(-1.25554 0.00151833 0)
(-1.24745 -0.00655078 0)
(-1.25092 0.00141102 0)
(-1.24883 -0.00131341 0)
(-1.25576 -0.00371131 0)
(-1.24752 -0.00333214 0)
(-1.2509 0.00157857 0)
(-1.24884 -0.000364774 0)
(-1.25574 -0.0109926 0)
(-1.24736 0.0113565 0)
(-1.25088 0.0160507 0)
(-1.24886 0.00203451 0)
(-1.25551 -0.00534832 0)
(-1.24707 0.0111673 0)
(-1.25106 0.0159558 0)
(-1.24913 0.0172116 0)
(-1.25591 -0.00538026 0)
(-1.24701 0.0174061 0)
(-1.25077 0.0140448 0)
(-1.24915 0.0207119 0)
(-1.25576 0.075551 0)
(-1.24674 0.0206927 0)
(-1.251 0.0191842 0)
(-1.24938 0.0261117 0)
(-1.25566 0.240885 0)
(-1.24795 0.377807 0)
(-1.25068 0.529898 0)
(-1.24949 0.0809415 0)
(-1.25625 -0.0188807 0)
(-1.24503 -0.0104506 0)
(-1.23724 -0.00348019 0)
(-1.05256 0.000342553 0)
(-1.25646 -0.0156464 0)
(-1.24477 -0.00564699 0)
(-1.23706 -0.00338913 0)
(-1.25873 0.00275725 0)
(-1.25635 -0.00830263 0)
(-1.24482 -0.000571263 0)
(-1.2371 -4.9805e-05 0)
(-1.25876 0.00259459 0)
(-1.25644 -0.0116678 0)
(-1.24463 -0.0169881 0)
(-1.23701 -0.000238825 0)
(-1.25879 -0.00268008 0)
(-1.25663 -0.000263345 0)
(-1.24463 -0.011956 0)
(-1.23686 -0.000167851 0)
(-1.25884 -0.00353354 0)
(-1.25663 -0.000304415 0)
(-1.24463 -0.000746637 0)
(-1.23687 -0.000139699 0)
(-1.25894 -0.00120335 0)
(-1.25672 -0.000359391 0)
(-1.24463 -0.000858066 0)
(-1.23687 -0.000114335 0)
(-1.259 -0.001032 0)
(-1.25667 -0.000378489 0)
(-1.24463 -0.000933499 0)
(-1.23687 -2.83706e-05 0)
(-1.25904 -0.000949004 0)
(-1.25666 -0.000442437 0)
(-1.24462 -0.000902179 0)
(-1.23687 0.00728203 0)
(-1.2591 0.0108564 0)
(-1.25666 -0.000628019 0)
(-1.2445 0.0015173 0)
(-1.23668 0.00434877 0)
(-1.25914 0.00859589 0)
(-1.25663 -0.000874726 0)
(-1.24454 0.00204035 0)
(-1.23675 -0.00297822 0)
(-1.25923 -0.00333229 0)
(-1.25666 -0.0011608 0)
(-1.24453 -0.000771412 0)
(-1.23677 0.000458774 0)
(-1.25927 0.0212139 0)
(-1.25693 -0.00116187 0)
(-1.24451 -0.00145954 0)
(-1.23639 0.0314287 0)
(-1.25933 0.0322368 0)
(-1.25703 -0.00129129 0)
(-1.24399 0.721356 0)
(-1.2362 0.09111 0)
(-1.25989 0.00602693 0)
(-1.24534 0.122243 0)
(-1.24297 0.468595 0)
(-1.24831 0.379766 0)
(-1.25959 0.0799587 0)
)
;

boundaryField
{
    topWall
    {
        type            extrapolatedCalculated;
        value           nonuniform List<vector> 0();
    }
    botWall
    {
        type            extrapolatedCalculated;
        value           nonuniform List<vector> 8((-1.23184 0 0) (-1.4519 0 0) (-1.27467 0 0) (-1.25052 0 0) (-1.25625 0 0) (-1.24503 0 0) (-1.23724 0 0) (-1.05256 0 0));
    }
    inlet
    {
        type            cyclic;
    }
    outlet
    {
        type            cyclic;
    }
    fixWall
    {
        type            empty;
    }
    procBoundary0to1
    {
        type            processor;
        value           nonuniform List<vector> 8((-1.2508 0.0369646 0) (-1.24193 -0.181572 0) (-1.25595 -0.470997 0) (-1.25617 -0.462552 0) (-1.25057 -0.0691635 0) (-1.2397 -0.261853 0) (-1.24268 0.0877336 0) (-1.2622 -0.450381 0));
    }
}


// ************************************************************************* //
