/*--------------------------------*- C++ -*----------------------------------*\
  =========                 |
  \\      /  F ield         | OpenFOAM: The Open Source CFD Toolbox
   \\    /   O peration     | Website:  https://openfoam.org
    \\  /    A nd           | Version:  dev
     \\/     M anipulation  |

   OpenFOAM for Windows 20.09 (v1)
   Built by CFD Support, www.cfdsupport.com (based on Symscape).
\*---------------------------------------------------------------------------*/
FoamFile
{
    version     2.0;
    format      ascii;
    class       volTensorField;
    location    "8";
    object      gradU;
}
// * * * * * * * * * * * * * * * * * * * * * * * * * * * * * * * * * * * * * //

dimensions      [0 0 -1 0 0 0 0];

internalField   nonuniform List<tensor> 
120
(
(-0.000347785 -2.85781e-06 0 5.66928 -0.00095855 0 0 0 0)
(0.000264667 1.53016e-06 0 5.65831 -0.000883485 0 0 0 0)
(0.000349737 3.45851e-06 0 5.69769 -5.19787e-05 0 0 0 0)
(-9.67859e-06 3.67128e-08 0 5.69606 -8.77199e-05 0 0 0 0)
(-0.000245442 -8.86534e-06 0 5.19253 0.000511786 0 0 0 0)
(0.000208834 1.35794e-05 0 5.18893 -0.000623324 0 0 0 0)
(0.000279363 9.80424e-06 0 5.18551 -0.000103071 0 0 0 0)
(-0.000121358 2.5038e-06 0 5.17956 -3.52123e-05 0 0 0 0)
(-0.000133738 -1.00183e-05 0 4.70476 0.000205643 0 0 0 0)
(0.000147741 -8.71745e-06 0 4.7023 -0.000358552 0 0 0 0)
(0.000193586 1.32604e-05 0 4.69652 1.50748e-05 0 0 0 0)
(-0.000233384 3.76597e-06 0 4.69098 5.43568e-05 0 0 0 0)
(-2.83793e-05 -9.50323e-06 0 4.24818 0.000335226 0 0 0 0)
(7.16021e-05 1.04032e-05 0 4.24657 -0.000282153 0 0 0 0)
(9.07103e-05 1.66861e-05 0 4.23945 0.00010646 0 0 0 0)
(-0.000340102 4.48082e-06 0 4.23452 0.000166889 0 0 0 0)
(5.84595e-05 -7.38708e-06 0 3.82268 0.000453733 0 0 0 0)
(2.19805e-06 -1.25302e-05 0 3.82127 -0.000227635 0 0 0 0)
(-7.13365e-06 2.07444e-05 0 3.81392 0.000207796 0 0 0 0)
(-0.000432838 4.08304e-06 0 3.81021 0.000260362 0 0 0 0)
(0.000123083 -4.65484e-06 0 3.4278 -0.000186155 0 0 0 0)
(-7.43375e-05 6.30427e-06 0 3.42669 -0.000160011 0 0 0 0)
(-9.34872e-05 2.48193e-05 0 3.41934 0.000294175 0 0 0 0)
(-0.000506363 3.01576e-06 0 3.41686 0.000333662 0 0 0 0)
(0.00017856 -3.25852e-07 0 3.06251 0.000377991 0 0 0 0)
(-0.000138803 -4.52471e-06 0 3.06188 -9.49742e-05 0 0 0 0)
(-0.000170846 2.89723e-05 0 3.0548 0.000365647 0 0 0 0)
(-0.000558758 1.0957e-06 0 3.0535 0.000388491 0 0 0 0)
(0.000216066 4.09245e-06 0 2.72671 -0.000165704 0 0 0 0)
(-0.000202853 6.09853e-06 0 2.72654 -2.65787e-05 0 0 0 0)
(-0.000233211 3.28771e-05 0 2.71931 0.000437802 0 0 0 0)
(-0.000587447 -1.33964e-06 0 2.71882 0.000415638 0 0 0 0)
(0.000253509 9.75921e-06 0 2.41891 0.000147619 0 0 0 0)
(-0.000262056 5.53372e-06 0 2.41921 2.57814e-05 0 0 0 0)
(-0.000299513 3.63426e-05 0 2.41179 0.000488862 0 0 0 0)
(-0.000595076 -4.67121e-06 0 2.41188 0.000425154 0 0 0 0)
(0.000276371 1.53034e-05 0 2.13818 -9.66231e-05 0 0 0 0)
(-0.000321521 1.17859e-05 0 2.13903 8.57405e-05 0 0 0 0)
(-0.000355466 3.95333e-05 0 2.13107 0.000581779 0 0 0 0)
(-0.00058343 -8.3128e-06 0 2.13123 0.000406792 0 0 0 0)
(0.000309509 2.15733e-05 0 1.88288 9.68281e-06 0 0 0 0)
(-0.000380482 1.68404e-05 0 1.88436 0.000147613 0 0 0 0)
(-0.000429488 4.16934e-05 0 1.87602 0.000588217 0 0 0 0)
(-0.000557292 -1.37665e-05 0 1.87616 0.000391758 0 0 0 0)
(0.000329378 2.81728e-05 0 1.6515 -9.64148e-05 0 0 0 0)
(-0.000435763 2.14282e-05 0 1.65383 0.000180689 0 0 0 0)
(-0.000492191 4.36024e-05 0 1.64515 0.000735587 0 0 0 0)
(-0.000524924 -1.83304e-05 0 1.64479 0.000334344 0 0 0 0)
(0.000359646 3.39074e-05 0 1.44271 -8.28202e-05 0 0 0 0)
(-0.000486285 3.07071e-05 0 1.44657 0.000219668 0 0 0 0)
(-0.000580154 4.42543e-05 0 1.43718 0.000778155 0 0 0 0)
(-0.000487668 -2.75348e-05 0 1.43581 0.000306018 0 0 0 0)
(0.000384711 4.08428e-05 0 1.25516 -0.000112144 0 0 0 0)
(-0.000527955 3.57777e-05 0 1.26156 0.000336362 0 0 0 0)
(-0.000671607 4.50416e-05 0 1.25088 0.000812379 0 0 0 0)
(-0.000461247 -3.36928e-05 0 1.24756 0.000332191 0 0 0 0)
(0.000434122 4.66311e-05 0 1.08671 -0.000196487 0 0 0 0)
(-0.000557535 4.61158e-05 0 1.09628 0.00033469 0 0 0 0)
(-0.000813454 4.41848e-05 0 1.0851 0.0011268 0 0 0 0)
(-0.000448085 -4.5327e-05 0 1.07982 0.000268462 0 0 0 0)
(-7.87352e-06 4.4092e-07 0 5.68983 0.000100452 0 0 0 0)
(-3.64679e-05 -1.87049e-07 0 5.69457 -1.43423e-05 0 0 0 0)
(5.92095e-06 -1.04162e-06 0 5.68456 9.13052e-05 0 0 0 0)
(-0.000218521 -1.37983e-06 0 5.6939 -0.000180096 0 0 0 0)
(-1.6818e-05 7.82041e-07 0 5.17209 0.000120685 0 0 0 0)
(-5.13576e-05 3.46007e-08 0 5.17923 -2.46963e-05 0 0 0 0)
(-1.71035e-05 -1.72094e-06 0 5.17335 0.000139366 0 0 0 0)
(-3.61183e-05 -1.61178e-05 0 5.17609 -0.000193698 0 0 0 0)
(-1.34446e-05 6.16187e-07 0 4.6834 0.000133696 0 0 0 0)
(-1.55251e-05 1.2431e-07 0 4.69152 -6.29722e-05 0 0 0 0)
(-4.64035e-05 -3.85831e-06 0 4.68958 0.000167575 0 0 0 0)
(0.000101168 4.82717e-06 0 4.68927 -0.000320279 0 0 0 0)
(-7.72719e-06 -1.17344e-06 0 4.22748 0.000125484 0 0 0 0)
(5.16013e-05 5.9924e-07 0 4.23531 -0.00012943 0 0 0 0)
(-5.46038e-05 -6.00938e-06 0 4.2365 0.000182687 0 0 0 0)
(0.000216899 -1.54833e-05 0 4.23504 -0.000440023 0 0 0 0)
(-4.1573e-07 -4.32245e-06 0 3.80395 0.000119892 0 0 0 0)
(0.000134825 1.07769e-06 0 3.8109 -0.000211389 0 0 0 0)
(-5.09102e-05 -9.03486e-06 0 3.81418 0.00017402 0 0 0 0)
(0.000295816 7.36948e-06 0 3.81218 -0.000518538 0 0 0 0)
(3.70429e-06 -9.03596e-06 0 3.41178 0.000114934 0 0 0 0)
(0.000222193 1.50137e-06 0 3.41776 -0.000298932 0 0 0 0)
(-3.32999e-05 -1.11285e-05 0 3.42204 0.000158943 0 0 0 0)
(0.000358508 -1.08214e-05 0 3.41948 -0.000583685 0 0 0 0)
(1.44579e-05 -1.48657e-05 0 3.04993 0.000104324 0 0 0 0)
(0.000305732 1.81118e-06 0 3.05479 -0.000380958 0 0 0 0)
(-2.21721e-05 -1.37808e-05 0 3.0594 0.000147497 0 0 0 0)
(0.000391829 1.61784e-06 0 3.0563 -0.000619811 0 0 0 0)
(2.51537e-05 -2.18601e-05 0 2.71713 9.17877e-05 0 0 0 0)
(0.00037994 2.22093e-06 0 2.72103 -0.000459439 0 0 0 0)
(-8.00906e-06 -1.51094e-05 0 2.72546 0.000131527 0 0 0 0)
(0.00041036 -6.97983e-06 0 2.72205 -0.000631682 0 0 0 0)
(5.11946e-05 -2.94503e-05 0 2.41204 7.04722e-05 0 0 0 0)
(0.000444536 2.4735e-06 0 2.41523 -0.000516868 0 0 0 0)
(-5.19109e-06 -1.66515e-05 0 2.41932 0.000131983 0 0 0 0)
(0.000412596 -3.33601e-06 0 2.41559 -0.000646875 0 0 0 0)
(8.10093e-05 -3.75605e-05 0 2.13334 3.60643e-05 0 0 0 0)
(0.000501373 3.24612e-06 0 2.13638 -0.000578948 0 0 0 0)
(-1.91442e-06 -1.72762e-05 0 2.13988 0.00012429 0 0 0 0)
(0.000403578 -6.71923e-06 0 2.13567 -0.000623103 0 0 0 0)
(0.000137006 -4.58793e-05 0 1.87953 -1.28367e-05 0 0 0 0)
(0.000553615 3.94392e-06 0 1.88274 -0.000628535 0 0 0 0)
(-1.70268e-05 -1.73874e-05 0 1.88618 0.000122911 0 0 0 0)
(0.000384159 -7.01788e-06 0 1.88118 -0.000624554 0 0 0 0)
(0.000190751 -5.45654e-05 0 1.64932 -9.05115e-05 0 0 0 0)
(0.000612147 5.50858e-06 0 1.65342 -0.000688134 0 0 0 0)
(-2.79374e-05 -1.72098e-05 0 1.65708 0.000184773 0 0 0 0)
(0.00034854 -8.60637e-06 0 1.65082 -0.000559356 0 0 0 0)
(0.000280731 -6.29206e-05 0 1.441 -0.00014359 0 0 0 0)
(0.000682854 8.532e-06 0 1.44655 -0.000736245 0 0 0 0)
(-6.02233e-05 -1.52411e-05 0 1.45149 0.000169844 0 0 0 0)
(0.000291099 -1.17044e-05 0 1.44325 -0.000540531 0 0 0 0)
(0.000369797 -7.19364e-05 0 1.25326 -0.000255154 0 0 0 0)
(0.000787004 1.07325e-05 0 1.26082 -0.000864053 0 0 0 0)
(-8.29018e-05 -1.3948e-05 0 1.26793 0.000226543 0 0 0 0)
(0.000202197 -1.28174e-05 0 1.25709 -0.000427064 0 0 0 0)
(0.000501709 -8.2858e-05 0 1.08447 -0.000353119 0 0 0 0)
(0.000927323 1.65603e-05 0 1.09419 -0.00107254 0 0 0 0)
(-0.000122377 -7.95795e-06 0 1.10458 0.00027122 0 0 0 0)
(7.82971e-05 -1.73491e-05 0 1.09042 -0.000219191 0 0 0 0)
)
;

boundaryField
{
    topWall
    {
        type            extrapolatedCalculated;
        value           nonuniform List<tensor> 0();
    }
    botWall
    {
        type            extrapolatedCalculated;
        value           nonuniform List<tensor> 8((-0.000347785 -2.85781e-06 0 5.8938 -0.000276235 0 0 0 0) (0.000264667 1.53016e-06 0 5.87625 -0.000944474 0 0 0 0) (0.000349737 3.45851e-06 0 5.95732 9.10042e-05 0 0 0 0) (-9.67859e-06 3.67128e-08 0 5.96019 -0.00011443 0 0 0 0) (-7.87352e-06 4.4092e-07 0 5.955 9.98153e-05 0 0 0 0) (-3.64679e-05 -1.87049e-07 0 5.9583 -8.60956e-06 0 0 0 0) (5.92095e-06 -1.04162e-06 0 5.94624 5.49236e-05 0 0 0 0) (-0.000218521 -1.37983e-06 0 5.95972 -0.000258598 0 0 0 0));
    }
    inlet
    {
        type            cyclic;
    }
    outlet
    {
        type            cyclic;
    }
    fixWall
    {
        type            empty;
    }
    procBoundary0to1
    {
        type            processor;
        value           nonuniform List<tensor> 8((0.000482375 5.00742e-05 0 0.940225 -0.000236694 0 0 0 0) (-0.000554811 5.78325e-05 0 0.947679 0.000329273 0 0 0 0) (-0.000945959 4.39377e-05 0 0.937087 0.00113853 0 0 0 0) (-0.000471738 -5.83581e-05 0 0.932148 0.000289758 0 0 0 0) (0.00060935 -9.42864e-05 0 0.93719 -0.000400369 0 0 0 0) (0.00112216 2.11381e-05 0 0.946485 -0.0012382 0 0 0 0) (-0.000145766 2.74467e-07 0 0.954091 0.000197647 0 0 0 0) (-9.56071e-05 -2.06126e-05 0 0.942237 -9.21054e-05 0 0 0 0));
    }
}


// ************************************************************************* //
