/*--------------------------------*- C++ -*----------------------------------*\
  =========                 |
  \\      /  F ield         | OpenFOAM: The Open Source CFD Toolbox
   \\    /   O peration     | Website:  https://openfoam.org
    \\  /    A nd           | Version:  dev
     \\/     M anipulation  |

   OpenFOAM for Windows 20.09 (v1)
   Built by CFD Support, www.cfdsupport.com (based on Symscape).
\*---------------------------------------------------------------------------*/
FoamFile
{
    version     2.0;
    format      ascii;
    class       volVectorField;
    location    "8";
    object      gradp;
}
// * * * * * * * * * * * * * * * * * * * * * * * * * * * * * * * * * * * * * //

dimensions      [1 -2 -2 0 0 0 0];

internalField   nonuniform List<vector> 
120
(
(3.76814 -110.485 0)
(-1.45172 -99.5202 0)
(-1.27465 -98.228 0)
(-1.25052 -98.0982 0)
(3.74451 -110.465 0)
(-1.24779 -99.5176 0)
(-1.25099 -98.2275 0)
(-1.2487 -98.0997 0)
(3.74447 -98.103 0)
(-1.24776 -98.0756 0)
(-1.25101 -98.0992 0)
(-1.24865 -98.1017 0)
(3.74487 -98.1048 0)
(-1.24773 -98.1014 0)
(-1.25142 -98.1018 0)
(-1.24885 -98.1002 0)
(3.74449 -98.1096 0)
(-1.24771 -98.1353 0)
(-1.251 -98.1039 0)
(-1.24882 -98.1004 0)
(3.74434 -98.1097 0)
(-1.24763 -98.1046 0)
(-1.25084 -98.1011 0)
(-1.24879 -98.0951 0)
(3.74443 -98.1059 0)
(-1.24757 -98.0892 0)
(-1.25084 -98.0991 0)
(-1.2488 -98.0984 0)
(3.74453 -98.1055 0)
(-1.24752 -98.0991 0)
(-1.25099 -98.0988 0)
(-1.24881 -98.1044 0)
(3.74446 -98.0982 0)
(-1.24746 -98.1066 0)
(-1.25093 -98.0987 0)
(-1.24883 -98.1014 0)
(3.74424 -98.1036 0)
(-1.24753 -98.1034 0)
(-1.25091 -98.0986 0)
(-1.24884 -98.1004 0)
(3.74425 -98.1111 0)
(-1.24738 -98.0888 0)
(-1.25088 -98.0842 0)
(-1.24886 -98.098 0)
(3.74448 -98.1055 0)
(-1.24708 -98.089 0)
(-1.25106 -98.0842 0)
(-1.24912 -98.0826 0)
(3.74409 -98.1054 0)
(-1.24702 -98.0823 0)
(-1.25077 -98.0858 0)
(-1.24914 -98.079 0)
(3.74424 -98.0254 0)
(-1.24675 -98.0815 0)
(-1.251 -98.0864 0)
(-1.24937 -98.0801 0)
(3.7442 -97.8577 0)
(-1.24804 -97.7298 0)
(-1.25075 -97.5833 0)
(-1.24938 -98.0266 0)
(-1.25625 -98.1189 0)
(-1.24503 -98.1105 0)
(-1.23724 -98.1036 0)
(3.94726 -98.0997 0)
(-1.25646 -98.1157 0)
(-1.24477 -98.1058 0)
(-1.23706 -98.1035 0)
(3.74127 -98.0973 0)
(-1.25635 -98.1083 0)
(-1.24482 -98.1007 0)
(-1.2371 -98.1001 0)
(3.74124 -98.0975 0)
(-1.25644 -98.1116 0)
(-1.24463 -98.117 0)
(-1.23701 -98.1002 0)
(3.74122 -98.1028 0)
(-1.25663 -98.1002 0)
(-1.24463 -98.1119 0)
(-1.23686 -98.1001 0)
(3.74116 -98.1035 0)
(-1.25663 -98.1002 0)
(-1.24463 -98.1006 0)
(-1.23687 -98.1 0)
(3.74106 -98.101 0)
(-1.25672 -98.1003 0)
(-1.24463 -98.1007 0)
(-1.23687 -98.0999 0)
(3.741 -98.1007 0)
(-1.25667 -98.1003 0)
(-1.24463 -98.1007 0)
(-1.23687 -98.0998 0)
(3.74096 -98.1006 0)
(-1.25666 -98.1004 0)
(-1.24462 -98.1007 0)
(-1.23687 -98.0925 0)
(3.74091 -98.0888 0)
(-1.25666 -98.1006 0)
(-1.24449 -98.0983 0)
(-1.23667 -98.0955 0)
(3.74086 -98.0912 0)
(-1.25663 -98.1007 0)
(-1.24454 -98.0979 0)
(-1.23675 -98.1031 0)
(3.74077 -98.1034 0)
(-1.25666 -98.1008 0)
(-1.24453 -98.1008 0)
(-1.23676 -98.0999 0)
(3.74073 -98.0791 0)
(-1.25693 -98.1008 0)
(-1.24452 -98.1018 0)
(-1.23639 -98.0692 0)
(3.74068 -98.0681 0)
(-1.25704 -98.1009 0)
(-1.24401 -97.3879 0)
(-1.2362 -98.01 0)
(3.74013 -98.0883 0)
(-1.24539 -97.9757 0)
(-1.24301 -97.6377 0)
(-1.24806 -97.7167 0)
(3.74042 -98.0127 0)
)
;

boundaryField
{
    topWall
    {
        type            extrapolatedCalculated;
        value           nonuniform List<vector> 0();
    }
    botWall
    {
        type            extrapolatedCalculated;
        value           nonuniform List<vector> 8((3.76814 -98.1434 0) (-1.45172 -98.105 0) (-1.27465 -98.1005 0) (-1.25052 -98.1 0) (-1.25625 -98.1 0) (-1.24503 -98.1 0) (-1.23724 -98.1001 0) (3.94726 -98.1001 0));
    }
    inlet
    {
        type            cyclic;
    }
    outlet
    {
        type            cyclic;
    }
    fixWall
    {
        type            empty;
    }
    procBoundary0to1
    {
        type            processor;
        value           nonuniform List<vector> 8((3.74896 -98.0623 0) (-1.24218 -98.2793 0) (-1.25595 -98.5651 0) (-1.25591 -98.5565 0) (-1.25055 -98.17 0) (-1.23969 -98.3529 0) (-1.24245 -98.0111 0) (3.73778 -98.5562 0));
    }
}


// ************************************************************************* //
