/*--------------------------------*- C++ -*----------------------------------*\
  =========                 |
  \\      /  F ield         | OpenFOAM: The Open Source CFD Toolbox
   \\    /   O peration     | Website:  https://openfoam.org
    \\  /    A nd           | Version:  dev
     \\/     M anipulation  |

   OpenFOAM for Windows 20.09 (v1)
   Built by CFD Support, www.cfdsupport.com (based on Symscape).
\*---------------------------------------------------------------------------*/
FoamFile
{
    version     2.0;
    format      ascii;
    class       volScalarField;
    location    "8";
    object      nut;
}
// * * * * * * * * * * * * * * * * * * * * * * * * * * * * * * * * * * * * * //

dimensions      [0 2 -1 0 0 0 0];

internalField   nonuniform List<scalar> 
120
(
2.5539e-21
2.5539e-21
2.5539e-21
2.5539e-21
1.48091e-20
1.48091e-20
1.48091e-20
1.48091e-20
4.35172e-20
4.35171e-20
4.3517e-20
4.35171e-20
9.26007e-20
9.26006e-20
9.26003e-20
9.26004e-20
1.64174e-19
1.64174e-19
1.64173e-19
1.64173e-19
2.58167e-19
2.58168e-19
2.58166e-19
2.58166e-19
3.7462e-19
3.74623e-19
3.74619e-19
3.74618e-19
5.13564e-19
5.13568e-19
5.13563e-19
5.1356e-19
6.75011e-19
6.75016e-19
6.75009e-19
6.75004e-19
8.5896e-19
8.58964e-19
8.58954e-19
8.58945e-19
1.06539e-18
1.06539e-18
1.06538e-18
1.06537e-18
1.29427e-18
1.29426e-18
1.29425e-18
1.29423e-18
1.54553e-18
1.54551e-18
1.54549e-18
1.54546e-18
1.81906e-18
1.81903e-18
1.81901e-18
1.81896e-18
2.1147e-18
2.11465e-18
2.11464e-18
2.11457e-18
2.5539e-21
2.5539e-21
2.5539e-21
2.5539e-21
1.48091e-20
1.48091e-20
1.48091e-20
1.48091e-20
4.3517e-20
4.35171e-20
4.35171e-20
4.3517e-20
9.26003e-20
9.26003e-20
9.26003e-20
9.26003e-20
1.64173e-19
1.64174e-19
1.64173e-19
1.64174e-19
2.58166e-19
2.58167e-19
2.58166e-19
2.58168e-19
3.74619e-19
3.74622e-19
3.74619e-19
3.74622e-19
5.13564e-19
5.13569e-19
5.13562e-19
5.13569e-19
6.75011e-19
6.75021e-19
6.75009e-19
6.75019e-19
8.58958e-19
8.58976e-19
8.58957e-19
8.58971e-19
1.06539e-18
1.06542e-18
1.06539e-18
1.06541e-18
1.29426e-18
1.29431e-18
1.29426e-18
1.29429e-18
1.5455e-18
1.54558e-18
1.54552e-18
1.54555e-18
1.81902e-18
1.81913e-18
1.81905e-18
1.81908e-18
2.11464e-18
2.1148e-18
2.1147e-18
2.11472e-18
)
;

boundaryField
{
    topWall
    {
        type            nutkWallFunction;
        Cmu             0.09;
        kappa           0.41;
        E               9.8;
        value           nonuniform List<scalar> 0();
    }
    botWall
    {
        type            nutkWallFunction;
        Cmu             0.09;
        kappa           0.41;
        E               9.8;
        value           uniform 0;
    }
    inlet
    {
        type            cyclic;
    }
    outlet
    {
        type            cyclic;
    }
    fixWall
    {
        type            empty;
    }
    procBoundary0to1
    {
        type            processor;
        value           nonuniform List<scalar> 8(2.43226e-18 2.43218e-18 2.43218e-18 2.43209e-18 2.43218e-18 2.4324e-18 2.43227e-18 2.43228e-18);
    }
}


// ************************************************************************* //
