/*--------------------------------*- C++ -*----------------------------------*\
  =========                 |
  \\      /  F ield         | OpenFOAM: The Open Source CFD Toolbox
   \\    /   O peration     | Website:  https://openfoam.org
    \\  /    A nd           | Version:  dev
     \\/     M anipulation  |

   OpenFOAM for Windows 20.09 (v1)
   Built by CFD Support, www.cfdsupport.com (based on Symscape).
\*---------------------------------------------------------------------------*/
FoamFile
{
    version     2.0;
    format      ascii;
    class       volScalarField;
    location    "8";
    object      omega;
}
// * * * * * * * * * * * * * * * * * * * * * * * * * * * * * * * * * * * * * //

dimensions      [0 0 -1 0 0 0 0];

internalField   nonuniform List<scalar> 
120
(
86943.4
86943.4
86943.4
86943.4
14993.8
14993.8
14993.8
14993.8
5102.45
5102.47
5102.47
5102.47
2397.87
2397.87
2397.88
2397.88
1352.5
1352.49
1352.5
1352.5
860.083
860.078
860.084
860.084
592.72
592.715
592.721
592.722
432.36
432.357
432.361
432.363
328.949
328.947
328.951
328.953
258.504
258.503
258.506
258.509
208.416
208.416
208.418
208.421
171.56
171.56
171.563
171.566
143.669
143.671
143.672
143.675
122.066
122.068
122.069
122.072
105.001
105.003
105.003
105.007
86943.4
86943.4
86943.4
86943.4
14993.8
14993.8
14993.8
14993.8
5102.48
5102.47
5102.47
5102.48
2397.88
2397.88
2397.88
2397.88
1352.5
1352.5
1352.5
1352.5
860.084
860.081
860.084
860.079
592.721
592.717
592.721
592.716
432.361
432.356
432.361
432.356
328.95
328.945
328.95
328.946
258.505
258.499
258.505
258.501
208.417
208.411
208.417
208.413
171.561
171.555
171.561
171.557
143.671
143.664
143.67
143.667
122.068
122.061
122.066
122.064
105.004
104.995
105
105
)
;

boundaryField
{
    topWall
    {
        beta1           0.075;
        blended         0;
        type            omegaWallFunction;
        value           nonuniform List<scalar> 0();
    }
    botWall
    {
        beta1           0.075;
        blended         0;
        type            omegaWallFunction;
        value           nonuniform List<scalar> 8(86943.4 86943.4 86943.4 86943.4 86943.4 86943.4 86943.4 86943.4);
    }
    inlet
    {
        type            cyclic;
    }
    outlet
    {
        type            cyclic;
    }
    fixWall
    {
        type            empty;
    }
    procBoundary0to1
    {
        type            processor;
        value           nonuniform List<scalar> 8(91.2915 91.2943 91.2944 91.2978 91.2946 91.2863 91.2912 91.2909);
    }
}


// ************************************************************************* //
