/*--------------------------------*- C++ -*----------------------------------*\
  =========                 |
  \\      /  F ield         | OpenFOAM: The Open Source CFD Toolbox
   \\    /   O peration     | Website:  https://openfoam.org
    \\  /    A nd           | Version:  dev
     \\/     M anipulation  |

   OpenFOAM for Windows 20.09 (v1)
   Built by CFD Support, www.cfdsupport.com (based on Symscape).
\*---------------------------------------------------------------------------*/
FoamFile
{
    version     2.0;
    format      ascii;
    class       volScalarField;
    location    "8";
    object      p;
}
// * * * * * * * * * * * * * * * * * * * * * * * * * * * * * * * * * * * * * //

dimensions      [1 -1 -2 0 0 0 0];

internalField   nonuniform List<scalar> 
120
(
0
-0.0791056
-0.145172
-0.20657
-0.102356
-0.163218
-0.227135
-0.288317
-0.184108
-0.244968
-0.308885
-0.37007
-0.265861
-0.326678
-0.390634
-0.45182
-0.347616
-0.408471
-0.472387
-0.53357
-0.429377
-0.490237
-0.55414
-0.615321
-0.511132
-0.571978
-0.635889
-0.697062
-0.592887
-0.653719
-0.717638
-0.778818
-0.674641
-0.735477
-0.799387
-0.860569
-0.756384
-0.81723
-0.881136
-0.94232
-0.838147
-0.898982
-0.962885
-1.02407
-0.919902
-0.980711
-1.04461
-1.10582
-1.00166
-1.06246
-1.12636
-1.18754
-1.08341
-1.14418
-1.20809
-1.26928
-1.16503
-1.22593
-1.28984
-1.35101
-0.270223
-0.332195
-0.394726
-0.45592
-0.352005
-0.413963
-0.476482
-0.537669
-0.43375
-0.495705
-0.558232
-0.619415
-0.515519
-0.577464
-0.639982
-0.701165
-0.597269
-0.659233
-0.721733
-0.78292
-0.679019
-0.740984
-0.803483
-0.864671
-0.760769
-0.822734
-0.885232
-0.946421
-0.84252
-0.904485
-0.966982
-1.02817
-0.92427
-0.986235
-1.04873
-1.10992
-1.00602
-1.06799
-1.13047
-1.19165
-1.08777
-1.14973
-1.21222
-1.27341
-1.16952
-1.23148
-1.29397
-1.35516
-1.25127
-1.31323
-1.37572
-1.43687
-1.33302
-1.39499
-1.45742
-1.51861
-1.41477
-1.47555
-1.53907
-1.60035
)
;

boundaryField
{
    topWall
    {
        type            calculated;
        value           nonuniform List<scalar> 0();
    }
    botWall
    {
        type            calculated;
        value           nonuniform List<scalar> 8(0.0408931 -0.0382285 -0.104297 -0.165695 -0.229349 -0.29132 -0.353851 -0.415044);
    }
    inlet
    {
        type            cyclic;
    }
    outlet
    {
        type            cyclic;
    }
    fixWall
    {
        type            empty;
    }
    procBoundary0to1
    {
        type            processor;
        value           nonuniform List<scalar> 8(-1.24651 -1.30706 -1.37073 -1.43266 -1.49632 -1.55771 -1.62028 -1.68196);
    }
}


// ************************************************************************* //
