/*--------------------------------*- C++ -*----------------------------------*\
  =========                 |
  \\      /  F ield         | OpenFOAM: The Open Source CFD Toolbox
   \\    /   O peration     | Website:  https://openfoam.org
    \\  /    A nd           | Version:  dev
     \\/     M anipulation  |

   OpenFOAM for Windows 20.09 (v1)
   Built by CFD Support, www.cfdsupport.com (based on Symscape).
\*---------------------------------------------------------------------------*/
FoamFile
{
    version     2.0;
    format      ascii;
    class       volScalarField;
    location    "8";
    object      p_rgh;
}
// * * * * * * * * * * * * * * * * * * * * * * * * * * * * * * * * * * * * * //

dimensions      [1 -1 -2 0 0 0 0];

internalField   nonuniform List<scalar> 
120
(
0.0408931
-0.0382285
-0.104297
-0.165695
0.0202696
-0.0405934
-0.10451
-0.165692
0.0202668
-0.0405933
-0.10451
-0.165695
0.0202643
-0.040553
-0.104509
-0.165695
0.020259
-0.0405957
-0.104513
-0.165695
0.0202482
-0.0406119
-0.104515
-0.165696
0.0202425
-0.0406034
-0.104515
-0.165687
0.0202379
-0.0405941
-0.104514
-0.165693
0.0202328
-0.0406021
-0.104512
-0.165695
0.0202404
-0.040605
-0.104511
-0.165695
0.0202266
-0.0406076
-0.10451
-0.165695
0.0202221
-0.0405861
-0.104484
-0.165692
0.0202177
-0.040589
-0.104483
-0.165666
0.0202131
-0.040557
-0.104461
-0.165657
0.0203436
-0.0405545
-0.104451
-0.165623
-0.229349
-0.29132
-0.353851
-0.415044
-0.22938
-0.291338
-0.353857
-0.415044
-0.229375
-0.29133
-0.353857
-0.41504
-0.229394
-0.291339
-0.353857
-0.41504
-0.229394
-0.291358
-0.353857
-0.415044
-0.229394
-0.291359
-0.353857
-0.415045
-0.229395
-0.291359
-0.353858
-0.415046
-0.229395
-0.29136
-0.353858
-0.415047
-0.229395
-0.291361
-0.353858
-0.415048
-0.229396
-0.291361
-0.353846
-0.415029
-0.229396
-0.291358
-0.35385
-0.415034
-0.229397
-0.291358
-0.35385
-0.415035
-0.229398
-0.29136
-0.35385
-0.414998
-0.229399
-0.291361
-0.353798
-0.414981
-0.2294
-0.290157
-0.353698
-0.414988
)
;

boundaryField
{
    topWall
    {
        type            zeroGradient;
    }
    botWall
    {
        type            zeroGradient;
    }
    inlet
    {
        type            fixedJump;
        patchType       cyclic;
        jump            uniform -0.5;
        value           nonuniform List<scalar> 
15
(
0.0526777
0.0526161
0.0526097
0.0525937
0.0525965
0.0526057
0.0525924
0.0525953
0.0525981
0.0526014
0.0526073
0.0526124
0.0526135
0.0526128
0.0629243
)
;
    }
    outlet
    {
        type            fixedJump;
        patchType       cyclic;
        value           nonuniform List<scalar> 
15
(
-0.447322
-0.447384
-0.44739
-0.447406
-0.447404
-0.447394
-0.447408
-0.447405
-0.447402
-0.447399
-0.447393
-0.447388
-0.447387
-0.447387
-0.437076
)
;
    }
    fixWall
    {
        type            empty;
    }
    procBoundary0to1
    {
        type            processor;
        value           nonuniform List<scalar> 8(0.0206146 -0.0399274 -0.103578 -0.165522 -0.229195 -0.29058 -0.353165 -0.414848);
    }
}


// ************************************************************************* //
