/*--------------------------------*- C++ -*----------------------------------*\
  =========                 |
  \\      /  F ield         | OpenFOAM: The Open Source CFD Toolbox
   \\    /   O peration     | Website:  https://openfoam.org
    \\  /    A nd           | Version:  dev
     \\/     M anipulation  |

   OpenFOAM for Windows 20.09 (v1)
   Built by CFD Support, www.cfdsupport.com (based on Symscape).
\*---------------------------------------------------------------------------*/
FoamFile
{
    version     2.0;
    format      ascii;
    class       surfaceScalarField;
    location    "8";
    object      phi;
}
// * * * * * * * * * * * * * * * * * * * * * * * * * * * * * * * * * * * * * //

dimensions      [0 3 -1 0 0 0 0];

internalField   nonuniform List<scalar> 
217
(
2.02198e-09
-4.19135e-11
2.06463e-09
-4.26578e-11
2.06734e-09
-2.70646e-12
-3.46257e-12
2.0708e-09
5.8177e-09
-2.07266e-11
5.83602e-09
-6.09889e-11
5.8394e-09
-6.09298e-12
-5.51639e-12
5.84145e-09
9.24749e-09
-4.2193e-12
9.26326e-09
-7.67799e-11
9.26305e-09
-5.89154e-12
-2.91485e-12
9.26045e-09
1.23505e-08
7.67537e-12
1.2363e-08
-8.93163e-11
1.23585e-08
-1.38429e-12
4.12644e-12
1.23514e-08
1.51466e-08
1.61668e-11
1.51564e-08
-9.91141e-11
1.51477e-08
7.31499e-12
1.49262e-11
1.51369e-08
1.76587e-08
2.19588e-11
1.76652e-08
-1.05638e-10
1.7653e-08
1.94634e-11
2.88943e-11
1.76391e-08
1.99067e-08
2.54641e-11
1.99105e-08
-1.09505e-10
1.98951e-08
3.48691e-11
4.50389e-11
1.9879e-08
2.19117e-08
2.74788e-11
2.19129e-08
-1.10736e-10
2.18949e-08
5.28336e-11
6.24028e-11
2.18776e-08
2.36936e-08
2.79013e-11
2.36924e-08
-1.09488e-10
2.36716e-08
7.35883e-11
8.00649e-11
2.36539e-08
2.52714e-08
2.75389e-11
2.52678e-08
-1.05914e-10
2.52447e-08
9.67141e-11
9.72482e-11
2.52275e-08
2.66639e-08
2.56594e-11
2.66577e-08
-9.974e-11
2.66315e-08
1.22915e-10
1.13351e-10
2.66154e-08
2.78876e-08
2.29186e-11
2.78793e-08
-9.13628e-11
2.78502e-08
1.51919e-10
1.27957e-10
2.78356e-08
2.89592e-08
1.91713e-11
2.89485e-08
-8.06637e-11
2.89164e-08
1.83974e-10
1.41345e-10
2.8903e-08
2.9894e-08
1.43589e-11
2.98818e-08
-6.84151e-11
2.98455e-08
2.20247e-10
1.53377e-10
2.98335e-08
3.07071e-08
3.06934e-08
3.06512e-08
3.06397e-08
2.0671e-09
3.69044e-12
2.06777e-09
-6.67325e-13
2.06424e-09
3.53827e-12
-7.33729e-12
5.8358e-09
9.33809e-12
5.83692e-09
-1.78414e-12
5.83092e-09
9.55145e-12
-1.52988e-11
9.25498e-09
1.47991e-11
9.25751e-09
-4.29883e-12
9.25039e-09
1.66971e-11
-2.89104e-11
1.23462e-08
2.00219e-11
1.23515e-08
-9.61875e-12
1.23441e-08
2.41586e-11
-4.71772e-11
1.51319e-08
2.50124e-11
1.51407e-08
-1.8432e-11
1.51334e-08
3.14886e-11
-6.88676e-11
1.76343e-08
2.98031e-11
1.76467e-08
-3.08834e-11
1.76401e-08
3.80891e-11
-9.31975e-11
1.98746e-08
3.41313e-11
1.98906e-08
-4.68067e-11
1.98844e-08
4.42231e-11
-1.18922e-10
2.18737e-08
3.80244e-11
2.18927e-08
-6.58264e-11
2.18872e-08
4.97636e-11
-1.45454e-10
2.36511e-08
4.08362e-11
2.36728e-08
-8.75362e-11
2.36674e-08
5.51839e-11
-1.72066e-10
2.52259e-08
4.24098e-11
2.525e-08
-1.11606e-10
2.52448e-08
6.04219e-11
-1.98333e-10
2.66163e-08
4.15553e-11
2.66425e-08
-1.37797e-10
2.66365e-08
6.63537e-11
-2.23819e-10
2.78386e-08
3.85864e-11
2.78673e-08
-1.665e-10
2.78609e-08
7.27409e-11
-2.47781e-10
2.89097e-08
3.19098e-11
2.89415e-08
-1.98254e-10
2.89336e-08
8.06393e-11
-2.6964e-10
2.98438e-08
2.15324e-11
2.98799e-08
-2.3433e-10
2.9871e-08
8.94997e-11
-2.87773e-10
3.06558e-08
3.06973e-08
3.06874e-08
)
;

boundaryField
{
    topWall
    {
        type            calculated;
        value           nonuniform List<scalar> 0();
    }
    botWall
    {
        type            calculated;
        value           uniform 0;
    }
    inlet
    {
        type            cyclic;
        value           nonuniform List<scalar> 
15
(
-3.06998e-08
-2.98892e-08
-2.89554e-08
-2.78849e-08
-2.6662e-08
-2.5271e-08
-2.3694e-08
-2.19137e-08
-1.99102e-08
-1.76645e-08
-1.51551e-08
-1.23623e-08
-9.26398e-09
-5.83887e-09
-2.07156e-09
)
;
    }
    outlet
    {
        type            cyclic;
        value           nonuniform List<scalar> 
15
(
3.06998e-08
2.98892e-08
2.89554e-08
2.78849e-08
2.6662e-08
2.5271e-08
2.3694e-08
2.19137e-08
1.99102e-08
1.76645e-08
1.51551e-08
1.23623e-08
9.26398e-09
5.83887e-09
2.07156e-09
)
;
    }
    fixWall
    {
        type            empty;
        value           nonuniform List<scalar> 0();
    }
    procBoundary0to1
    {
        type            processor;
        value           nonuniform List<scalar> 8(6.62208e-12 -5.40409e-11 2.63147e-10 1.65849e-10 5.39213e-12 -2.7565e-10 9.94245e-11 -2.99652e-10);
    }
}


// ************************************************************************* //
