/*--------------------------------*- C++ -*----------------------------------*\
  =========                 |
  \\      /  F ield         | OpenFOAM: The Open Source CFD Toolbox
   \\    /   O peration     | Website:  https://openfoam.org
    \\  /    A nd           | Version:  dev
     \\/     M anipulation  |

   OpenFOAM for Windows 20.09 (v1)
   Built by CFD Support, www.cfdsupport.com (based on Symscape).
\*---------------------------------------------------------------------------*/
FoamFile
{
    version     2.0;
    format      ascii;
    class       volSymmTensorField;
    location    "8";
    object      R;
}
// * * * * * * * * * * * * * * * * * * * * * * * * * * * * * * * * * * * * * //

dimensions      [0 2 -2 0 0 0 0];

internalField   nonuniform List<symmTensor> 
120
(
(1.4803e-16 -1.44788e-20 -0 1.4803e-16 -0 1.4803e-16)
(1.4803e-16 -1.44508e-20 -0 1.4803e-16 -0 1.4803e-16)
(1.4803e-16 -1.45513e-20 -0 1.4803e-16 -0 1.4803e-16)
(1.4803e-16 -1.45471e-20 -0 1.4803e-16 -0 1.4803e-16)
(1.4803e-16 -7.68966e-20 -0 1.4803e-16 -0 1.4803e-16)
(1.4803e-16 -7.68435e-20 -0 1.4803e-16 -0 1.4803e-16)
(1.4803e-16 -7.67928e-20 -0 1.4803e-16 -0 1.4803e-16)
(1.4803e-16 -7.67045e-20 -0 1.4803e-16 -0 1.4803e-16)
(1.4803e-16 -2.04738e-19 -0 1.4803e-16 -0 1.4803e-16)
(1.4803e-16 -2.0463e-19 -0 1.4803e-16 -0 1.4803e-16)
(1.4803e-16 -2.04379e-19 -0 1.4803e-16 -0 1.4803e-16)
(1.4803e-16 -2.04138e-19 -0 1.4803e-16 -0 1.4803e-16)
(1.4803e-16 -3.93384e-19 -0 1.4803e-16 -0 1.4803e-16)
(1.4803e-16 -3.93236e-19 -0 1.4803e-16 -0 1.4803e-16)
(1.4803e-16 -3.92576e-19 -0 1.4803e-16 -0 1.4803e-16)
(1.4803e-16 -3.92119e-19 -0 1.4803e-16 -0 1.4803e-16)
(1.4803e-16 -6.27583e-19 -0 1.4803e-16 -0 1.4803e-16)
(1.4803e-16 -6.27352e-19 -0 1.4803e-16 -0 1.4803e-16)
(1.4803e-16 -6.26148e-19 -0 1.4803e-16 -0 1.4803e-16)
(1.4803e-16 -6.25537e-19 -0 1.4803e-16 -0 1.4803e-16)
(1.4803e-16 -8.84942e-19 -0 1.4803e-16 -0 1.4803e-16)
(1.4803e-16 -8.84663e-19 -0 1.4803e-16 -0 1.4803e-16)
(1.4803e-16 -8.82764e-19 -0 1.4803e-16 -0 1.4803e-16)
(1.4803e-16 -8.82119e-19 -0 1.4803e-16 -0 1.4803e-16)
(1.4803e-16 -1.14728e-18 -0 1.4803e-16 -0 1.4803e-16)
(1.4803e-16 -1.14705e-18 -0 1.4803e-16 -0 1.4803e-16)
(1.4803e-16 -1.1444e-18 -0 1.4803e-16 -0 1.4803e-16)
(1.4803e-16 -1.1439e-18 -0 1.48029e-16 -0 1.4803e-16)
(1.4803e-16 -1.40034e-18 -0 1.4803e-16 -0 1.4803e-16)
(1.4803e-16 -1.40027e-18 -0 1.4803e-16 -0 1.4803e-16)
(1.4803e-16 -1.39655e-18 -0 1.48029e-16 -0 1.4803e-16)
(1.4803e-16 -1.39628e-18 -0 1.48029e-16 -0 1.4803e-16)
(1.4803e-16 -1.6328e-18 -0 1.4803e-16 -0 1.4803e-16)
(1.4803e-16 -1.63301e-18 -0 1.4803e-16 -0 1.4803e-16)
(1.4803e-16 -1.62801e-18 -0 1.48029e-16 -0 1.4803e-16)
(1.4803e-16 -1.62802e-18 -0 1.48029e-16 -0 1.4803e-16)
(1.48029e-16 -1.83662e-18 -0 1.4803e-16 -0 1.4803e-16)
(1.4803e-16 -1.83736e-18 -0 1.48029e-16 -0 1.4803e-16)
(1.4803e-16 -1.83052e-18 -0 1.48029e-16 -0 1.4803e-16)
(1.48031e-16 -1.8306e-18 -0 1.48029e-16 -0 1.4803e-16)
(1.48029e-16 -2.00603e-18 -0 1.4803e-16 -0 1.4803e-16)
(1.4803e-16 -2.00761e-18 -0 1.48029e-16 -0 1.4803e-16)
(1.48031e-16 -1.99872e-18 -0 1.48029e-16 -0 1.4803e-16)
(1.48031e-16 -1.99878e-18 -0 1.48029e-16 -0 1.4803e-16)
(1.48029e-16 -2.13752e-18 -0 1.4803e-16 -0 1.4803e-16)
(1.48031e-16 -2.14053e-18 -0 1.48029e-16 -0 1.4803e-16)
(1.48031e-16 -2.12929e-18 -0 1.48028e-16 -0 1.4803e-16)
(1.48031e-16 -2.12871e-18 -0 1.48029e-16 -0 1.4803e-16)
(1.48029e-16 -2.2298e-18 -0 1.4803e-16 -0 1.4803e-16)
(1.48031e-16 -2.23574e-18 -0 1.48029e-16 -0 1.48029e-16)
(1.48032e-16 -2.22122e-18 -0 1.48028e-16 -0 1.4803e-16)
(1.48031e-16 -2.21894e-18 -0 1.48029e-16 -0 1.4803e-16)
(1.48029e-16 -2.28328e-18 -0 1.4803e-16 -0 1.4803e-16)
(1.48031e-16 -2.29488e-18 -0 1.48028e-16 -0 1.4803e-16)
(1.48032e-16 -2.27545e-18 -0 1.48027e-16 -0 1.4803e-16)
(1.48031e-16 -2.26921e-18 -0 1.48028e-16 -0 1.4803e-16)
(1.48028e-16 -2.29816e-18 -0 1.48031e-16 -0 1.4803e-16)
(1.48032e-16 -2.31835e-18 -0 1.48028e-16 -0 1.48029e-16)
(1.48034e-16 -2.29469e-18 -0 1.48025e-16 -0 1.4803e-16)
(1.48031e-16 -2.28326e-18 -0 1.48028e-16 -0 1.48029e-16)
(1.4803e-16 -1.45312e-20 -0 1.4803e-16 -0 1.4803e-16)
(1.4803e-16 -1.45434e-20 -0 1.4803e-16 -0 1.4803e-16)
(1.4803e-16 -1.45178e-20 -0 1.4803e-16 -0 1.4803e-16)
(1.4803e-16 -1.45416e-20 -0 1.4803e-16 -0 1.4803e-16)
(1.4803e-16 -7.65938e-20 -0 1.4803e-16 -0 1.4803e-16)
(1.4803e-16 -7.66995e-20 -0 1.4803e-16 -0 1.4803e-16)
(1.4803e-16 -7.66125e-20 -0 1.4803e-16 -0 1.4803e-16)
(1.4803e-16 -7.66528e-20 -0 1.4803e-16 -0 1.4803e-16)
(1.4803e-16 -2.03808e-19 -0 1.4803e-16 -0 1.4803e-16)
(1.4803e-16 -2.04161e-19 -0 1.4803e-16 -0 1.4803e-16)
(1.4803e-16 -2.04077e-19 -0 1.4803e-16 -0 1.4803e-16)
(1.4803e-16 -2.04063e-19 -0 1.4803e-16 -0 1.4803e-16)
(1.4803e-16 -3.91466e-19 -0 1.4803e-16 -0 1.4803e-16)
(1.4803e-16 -3.92191e-19 -0 1.4803e-16 -0 1.4803e-16)
(1.4803e-16 -3.92301e-19 -0 1.4803e-16 -0 1.4803e-16)
(1.4803e-16 -3.92164e-19 -0 1.4803e-16 -0 1.4803e-16)
(1.4803e-16 -6.24506e-19 -0 1.4803e-16 -0 1.4803e-16)
(1.4803e-16 -6.25649e-19 -0 1.4803e-16 -0 1.4803e-16)
(1.4803e-16 -6.26186e-19 -0 1.4803e-16 -0 1.4803e-16)
(1.4803e-16 -6.25861e-19 -0 1.4803e-16 -0 1.4803e-16)
(1.4803e-16 -8.80804e-19 -0 1.4803e-16 -0 1.4803e-16)
(1.4803e-16 -8.82353e-19 -0 1.4803e-16 -0 1.4803e-16)
(1.4803e-16 -8.83451e-19 -0 1.4803e-16 -0 1.4803e-16)
(1.4803e-16 -8.82796e-19 -0 1.4803e-16 -0 1.4803e-16)
(1.4803e-16 -1.14256e-18 -0 1.4803e-16 -0 1.4803e-16)
(1.48029e-16 -1.14439e-18 -0 1.4803e-16 -0 1.4803e-16)
(1.4803e-16 -1.1461e-18 -0 1.4803e-16 -0 1.4803e-16)
(1.48029e-16 -1.14496e-18 -0 1.4803e-16 -0 1.4803e-16)
(1.4803e-16 -1.39541e-18 -0 1.4803e-16 -0 1.4803e-16)
(1.48029e-16 -1.39744e-18 -0 1.4803e-16 -0 1.4803e-16)
(1.4803e-16 -1.39969e-18 -0 1.4803e-16 -0 1.4803e-16)
(1.48029e-16 -1.39795e-18 -0 1.4803e-16 -0 1.4803e-16)
(1.4803e-16 -1.62813e-18 -0 1.4803e-16 -0 1.4803e-16)
(1.48029e-16 -1.63033e-18 -0 1.4803e-16 -0 1.4803e-16)
(1.4803e-16 -1.63305e-18 -0 1.4803e-16 -0 1.4803e-16)
(1.48029e-16 -1.63057e-18 -0 1.48031e-16 -0 1.4803e-16)
(1.4803e-16 -1.83241e-18 -0 1.4803e-16 -0 1.4803e-16)
(1.48029e-16 -1.8351e-18 -0 1.48031e-16 -0 1.4803e-16)
(1.4803e-16 -1.83805e-18 -0 1.4803e-16 -0 1.4803e-16)
(1.48029e-16 -1.83447e-18 -0 1.48031e-16 -0 1.4803e-16)
(1.4803e-16 -2.00238e-18 -0 1.4803e-16 -0 1.4803e-16)
(1.48029e-16 -2.00591e-18 -0 1.48031e-16 -0 1.4803e-16)
(1.4803e-16 -2.00949e-18 -0 1.4803e-16 -0 1.4803e-16)
(1.48029e-16 -2.00422e-18 -0 1.48031e-16 -0 1.4803e-16)
(1.48029e-16 -2.13458e-18 -0 1.4803e-16 -0 1.4803e-16)
(1.48028e-16 -2.14004e-18 -0 1.48031e-16 -0 1.4803e-16)
(1.4803e-16 -2.14468e-18 -0 1.48029e-16 -0 1.4803e-16)
(1.48029e-16 -2.13663e-18 -0 1.48031e-16 -0 1.4803e-16)
(1.48029e-16 -2.22697e-18 -0 1.4803e-16 -0 1.4803e-16)
(1.48028e-16 -2.23578e-18 -0 1.48032e-16 -0 1.4803e-16)
(1.4803e-16 -2.24329e-18 -0 1.48029e-16 -0 1.4803e-16)
(1.48029e-16 -2.2306e-18 -0 1.48031e-16 -0 1.48029e-16)
(1.48029e-16 -2.27957e-18 -0 1.48031e-16 -0 1.4803e-16)
(1.48027e-16 -2.29362e-18 -0 1.48033e-16 -0 1.4803e-16)
(1.4803e-16 -2.3064e-18 -0 1.48029e-16 -0 1.4803e-16)
(1.48029e-16 -2.28673e-18 -0 1.48031e-16 -0 1.48029e-16)
(1.48028e-16 -2.29308e-18 -0 1.48031e-16 -0 1.4803e-16)
(1.48026e-16 -2.31404e-18 -0 1.48034e-16 -0 1.4803e-16)
(1.4803e-16 -2.33584e-18 -0 1.48029e-16 -0 1.4803e-16)
(1.48029e-16 -2.3059e-18 -0 1.4803e-16 -0 1.4803e-16)
)
;

boundaryField
{
    topWall
    {
        type            kqRWallFunction;
        value           nonuniform List<symmTensor> 0();
    }
    botWall
    {
        type            kqRWallFunction;
        value           uniform (1.4803e-16 -0 -0 1.4803e-16 -0 1.4803e-16);
    }
    inlet
    {
        type            cyclic;
    }
    outlet
    {
        type            cyclic;
    }
    fixWall
    {
        type            empty;
    }
    procBoundary0to1
    {
        type            processor;
        value           nonuniform List<symmTensor> 8((1.48028e-16 -2.28699e-18 -0 1.48031e-16 -0 1.4803e-16) (1.48032e-16 -2.30507e-18 -0 1.48028e-16 -0 1.48029e-16) (1.48035e-16 -2.27927e-18 -0 1.48025e-16 -0 1.4803e-16) (1.48032e-16 -2.26693e-18 -0 1.48028e-16 -0 1.48029e-16) (1.48027e-16 -2.27918e-18 -0 1.48032e-16 -0 1.4803e-16) (1.48024e-16 -2.30228e-18 -0 1.48036e-16 -0 1.4803e-16) (1.48031e-16 -2.32061e-18 -0 1.48029e-16 -0 1.4803e-16) (1.4803e-16 -2.29173e-18 -0 1.4803e-16 -0 1.48029e-16));
    }
}


// ************************************************************************* //
