/*--------------------------------*- C++ -*----------------------------------*\
  =========                 |
  \\      /  F ield         | OpenFOAM: The Open Source CFD Toolbox
   \\    /   O peration     | Website:  https://openfoam.org
    \\  /    A nd           | Version:  dev
     \\/     M anipulation  |

   OpenFOAM for Windows 20.09 (v1)
   Built by CFD Support, www.cfdsupport.com (based on Symscape).
\*---------------------------------------------------------------------------*/
FoamFile
{
    version     2.0;
    format      ascii;
    class       volVectorField;
    location    "8";
    object      U;
}
// * * * * * * * * * * * * * * * * * * * * * * * * * * * * * * * * * * * * * //

dimensions      [0 1 -1 0 0 0 0];

internalField   nonuniform List<vector> 
120
(
(0.00245575 -1.15098e-07 0)
(0.00244844 -3.93531e-07 0)
(0.00248222 3.79184e-08 0)
(0.00248341 -4.76793e-08 0)
(0.00699305 -1.48248e-06 0)
(0.00698208 -1.07894e-06 0)
(0.00701393 -1.2455e-07 0)
(0.00701001 -9.85206e-08 0)
(0.01111 7.37879e-07 0)
(0.0110967 -1.4324e-06 0)
(0.0111247 -1.33866e-07 0)
(0.011116 -1.06366e-07 0)
(0.0148343 -1.13975e-06 0)
(0.0148192 -1.67653e-06 0)
(0.0148415 -9.94248e-08 0)
(0.0148283 -7.92595e-09 0)
(0.0181903 1.29659e-06 0)
(0.0181743 -1.90266e-06 0)
(0.0181905 4.35668e-08 0)
(0.0181736 1.71781e-07 0)
(0.0212054 -3.83525e-07 0)
(0.021188 -2.05592e-06 0)
(0.021198 2.46901e-07 0)
(0.0211787 4.2601e-07 0)
(0.0239033 9.8633e-07 0)
(0.0238854 -2.16934e-06 0)
(0.0238894 5.33859e-07 0)
(0.0238683 7.27884e-07 0)
(0.0263096 2.4646e-07 0)
(0.0262912 -2.21421e-06 0)
(0.0262893 8.56313e-07 0)
(0.0262678 1.0735e-06 0)
(0.0284478 7.10157e-07 0)
(0.0284297 -2.21364e-06 0)
(0.0284216 1.26353e-06 0)
(0.0283997 1.42061e-06 0)
(0.0303412 4.92492e-07 0)
(0.0303232 -2.17124e-06 0)
(0.030309 1.67108e-06 0)
(0.0302876 1.78209e-06 0)
(0.0320114 5.49119e-07 0)
(0.0319947 -2.07074e-06 0)
(0.0319734 2.23316e-06 0)
(0.0319518 2.0986e-06 0)
(0.0334793 5.0863e-07 0)
(0.0334638 -1.92522e-06 0)
(0.0334357 2.65145e-06 0)
(0.0334146 2.43502e-06 0)
(0.0347639 3.88427e-07 0)
(0.0347511 -1.76959e-06 0)
(0.0347153 3.45914e-06 0)
(0.0346931 2.65584e-06 0)
(0.0358838 3.70596e-07 0)
(0.0358747 -1.55911e-06 0)
(0.035831 3.94837e-06 0)
(0.0358076 2.94505e-06 0)
(0.0368558 2.0152e-07 0)
(0.0368537 -1.20899e-06 0)
(0.0368001 4.8131e-06 0)
(0.0367724 3.20949e-06 0)
(0.00248125 4.15897e-08 0)
(0.00248263 -3.58732e-09 0)
(0.0024776 2.28849e-08 0)
(0.00248322 -1.07749e-07 0)
(0.0070018 1.2583e-07 0)
(0.00700833 -2.03164e-08 0)
(0.00699666 1.2929e-07 0)
(0.00700662 -1.9241e-07 0)
(0.0111014 2.42731e-07 0)
(0.0111147 -4.47478e-08 0)
(0.0110998 2.55162e-07 0)
(0.01111 -4.30579e-07 0)
(0.0148075 3.48657e-07 0)
(0.0148275 -1.2527e-07 0)
(0.0148126 4.08581e-07 0)
(0.0148221 -7.26208e-07 0)
(0.0181472 4.51871e-07 0)
(0.0181735 -2.60464e-07 0)
(0.0181607 5.59641e-07 0)
(0.0181684 -1.16395e-06 0)
(0.0211474 5.48477e-07 0)
(0.021179 -4.77585e-07 0)
(0.0211696 6.98614e-07 0)
(0.0211757 -1.59044e-06 0)
(0.0238335 6.43428e-07 0)
(0.0238698 -7.58684e-07 0)
(0.0238641 8.24546e-07 0)
(0.0238676 -2.13676e-06 0)
(0.0262306 7.2235e-07 0)
(0.0262703 -1.11252e-06 0)
(0.0262686 9.44443e-07 0)
(0.0262695 -2.62346e-06 0)
(0.0283621 7.96408e-07 0)
(0.0284048 -1.52442e-06 0)
(0.0284065 1.04376e-06 0)
(0.0284043 -3.18956e-06 0)
(0.0302507 8.39803e-07 0)
(0.0302957 -1.97396e-06 0)
(0.0303008 1.16441e-06 0)
(0.0302955 -3.70158e-06 0)
(0.0319176 8.56515e-07 0)
(0.0319655 -2.48933e-06 0)
(0.031973 1.25091e-06 0)
(0.0319638 -4.22807e-06 0)
(0.0333832 8.18409e-07 0)
(0.0334336 -3.02152e-06 0)
(0.0334444 1.36927e-06 0)
(0.0334308 -4.74251e-06 0)
(0.0346665 7.05663e-07 0)
(0.0347211 -3.63622e-06 0)
(0.0347348 1.55886e-06 0)
(0.0347151 -5.16033e-06 0)
(0.0357849 5.79093e-07 0)
(0.0358445 -4.2486e-06 0)
(0.0358636 1.65234e-06 0)
(0.0358363 -5.64339e-06 0)
(0.0367553 2.80405e-07 0)
(0.0368225 -5.07631e-06 0)
(0.036848 1.93643e-06 0)
(0.0368103 -5.8721e-06 0)
)
;

boundaryField
{
    topWall
    {
        type            noSlip;
    }
    botWall
    {
        type            noSlip;
    }
    inlet
    {
        type            cyclic;
    }
    outlet
    {
        type            cyclic;
    }
    fixWall
    {
        type            empty;
    }
    procBoundary0to1
    {
        type            processor;
        value           nonuniform List<vector> 8((0.037695 4.31186e-08 0) (0.0377019 -1.00129e-06 0) (0.0376395 5.82637e-06 0) (0.0376073 3.39248e-06 0) (0.0375923 -9.43863e-09 0) (0.0376682 -6.03616e-06 0) (0.0377045 2.10437e-06 0) (0.0376536 -6.00871e-06 0));
    }
}


// ************************************************************************* //
