/*--------------------------------*- C++ -*----------------------------------*\
  =========                 |
  \\      /  F ield         | OpenFOAM: The Open Source CFD Toolbox
   \\    /   O peration     | Website:  https://openfoam.org
    \\  /    A nd           | Version:  dev
     \\/     M anipulation  |

   OpenFOAM for Windows 20.09 (v1)
   Built by CFD Support, www.cfdsupport.com (based on Symscape).
\*---------------------------------------------------------------------------*/
FoamFile
{
    version     2.0;
    format      ascii;
    class       volVectorField;
    location    "8";
    object      UMean;
}
// * * * * * * * * * * * * * * * * * * * * * * * * * * * * * * * * * * * * * //

dimensions      [0 1 -1 0 0 0 0];

internalField   nonuniform List<vector> 
120
(
(0.00190869 3.65159e-06 0)
(0.00190334 -1.36171e-07 0)
(0.00191886 7.1022e-09 0)
(0.0019176 -1.30641e-08 0)
(0.0053098 -5.43e-07 0)
(0.00530796 -5.68181e-07 0)
(0.00532598 -6.97873e-08 0)
(0.0053181 1.0413e-07 0)
(0.00830396 3.17225e-06 0)
(0.00830519 -7.91683e-07 0)
(0.00832601 -7.6803e-08 0)
(0.00831121 3.561e-07 0)
(0.0109263 2.70024e-07 0)
(0.0109298 -1.16744e-06 0)
(0.0109532 -9.0232e-08 0)
(0.0109321 7.45245e-07 0)
(0.0132109 2.25298e-06 0)
(0.013217 -1.453e-06 0)
(0.0132417 -1.34036e-08 0)
(0.0132151 1.25168e-06 0)
(0.015191 8.44168e-07 0)
(0.0151996 -1.92778e-06 0)
(0.0152247 7.1638e-09 0)
(0.015194 1.83506e-06 0)
(0.0168976 2.69923e-06 0)
(0.0169089 -2.22121e-06 0)
(0.0169341 1.86377e-07 0)
(0.0169003 2.4739e-06 0)
(0.0183609 1.48882e-06 0)
(0.0183747 -2.7736e-06 0)
(0.0183997 2.05232e-07 0)
(0.0183643 3.16313e-06 0)
(0.0196086 2.86883e-06 0)
(0.019625 -3.05486e-06 0)
(0.0196498 4.67753e-07 0)
(0.0196134 3.84082e-06 0)
(0.020667 2.03224e-06 0)
(0.0206857 -3.67409e-06 0)
(0.0207103 4.48925e-07 0)
(0.0206744 4.56661e-06 0)
(0.0215594 2.98619e-06 0)
(0.0215814 -3.96257e-06 0)
(0.0216054 7.75292e-07 0)
(0.0215702 5.21451e-06 0)
(0.0223084 2.49676e-06 0)
(0.0223328 -4.61282e-06 0)
(0.0223562 6.64766e-07 0)
(0.0223236 5.90064e-06 0)
(0.0229326 3.1148e-06 0)
(0.0229614 -4.93543e-06 0)
(0.0229832 1.01731e-06 0)
(0.0229529 6.42022e-06 0)
(0.0234498 2.89275e-06 0)
(0.023482 -5.51386e-06 0)
(0.0235029 9.23782e-07 0)
(0.0234768 7.02164e-06 0)
(0.023875 3.34035e-06 0)
(0.0239138 -6.11633e-06 0)
(0.0239324 1.0758e-06 0)
(0.0239091 7.43461e-06 0)
(0.0019101 3.34975e-08 0)
(0.00190728 -4.84047e-09 0)
(0.00191476 -4.66579e-08 0)
(0.00192451 -4.74598e-08 0)
(0.00529764 2.51497e-07 0)
(0.00529274 -6.65471e-08 0)
(0.00531092 -2.73511e-07 0)
(0.00532617 -2.29784e-07 0)
(0.00828012 5.36429e-07 0)
(0.0082748 -1.99181e-07 0)
(0.00830077 -6.57304e-07 0)
(0.00832026 -2.64552e-07 0)
(0.0108927 9.89135e-07 0)
(0.0108873 -3.89632e-07 0)
(0.0109198 -1.10091e-06 0)
(0.0109433 -4.32395e-07 0)
(0.0131698 1.38662e-06 0)
(0.0131644 -6.26663e-07 0)
(0.0132016 -1.68505e-06 0)
(0.0132281 -5.16882e-07 0)
(0.0151445 1.97369e-06 0)
(0.0151385 -9.03762e-07 0)
(0.0151797 -2.23984e-06 0)
(0.0152083 -7.49909e-07 0)
(0.0168482 2.41268e-06 0)
(0.0168413 -1.19024e-06 0)
(0.0168854 -2.94088e-06 0)
(0.0169152 -8.41388e-07 0)
(0.0183106 3.09214e-06 0)
(0.0183029 -1.50985e-06 0)
(0.0183492 -3.55053e-06 0)
(0.0183791 -1.09701e-06 0)
(0.0195594 3.54249e-06 0)
(0.0195508 -1.80432e-06 0)
(0.0195985 -4.30287e-06 0)
(0.0196275 -1.15571e-06 0)
(0.020621 4.26057e-06 0)
(0.0206118 -2.14673e-06 0)
(0.0206605 -4.92452e-06 0)
(0.0206873 -1.38547e-06 0)
(0.0215189 4.70962e-06 0)
(0.0215092 -2.442e-06 0)
(0.0215581 -5.63588e-06 0)
(0.0215814 -1.36753e-06 0)
(0.0222751 5.39003e-06 0)
(0.0222652 -2.77244e-06 0)
(0.0223147 -6.26296e-06 0)
(0.0223331 -1.49276e-06 0)
(0.022909 5.80055e-06 0)
(0.0228988 -3.10435e-06 0)
(0.0229485 -6.77432e-06 0)
(0.0229604 -1.351e-06 0)
(0.0234385 6.39104e-06 0)
(0.0234287 -3.41618e-06 0)
(0.0234797 -7.41793e-06 0)
(0.0234834 -1.14266e-06 0)
(0.0238783 6.74097e-06 0)
(0.0238692 -3.75538e-06 0)
(0.0239216 -7.77204e-06 0)
(0.0239152 -1.06713e-06 0)
)
;

boundaryField
{
    topWall
    {
        type            calculated;
        value           nonuniform List<vector> 0();
    }
    botWall
    {
        type            calculated;
        value           uniform (0 0 0);
    }
    inlet
    {
        type            cyclic;
    }
    outlet
    {
        type            cyclic;
    }
    fixWall
    {
        type            empty;
    }
    procBoundary0to1
    {
        type            processor;
        value           nonuniform List<vector> 8((0.0242226 3.16048e-06 0) (0.024266 -6.64152e-06 0) (0.0242827 1.20484e-06 0) (0.0242655 7.72573e-06 0) (0.024246 7.08789e-06 0) (0.0242372 -4.0877e-06 0) (0.0242902 -8.24964e-06 0) (0.024273 -4.63525e-07 0));
    }
}


// ************************************************************************* //
