/*--------------------------------*- C++ -*----------------------------------*\
  =========                 |
  \\      /  F ield         | OpenFOAM: The Open Source CFD Toolbox
   \\    /   O peration     | Website:  https://openfoam.org
    \\  /    A nd           | Version:  dev
     \\/     M anipulation  |

   OpenFOAM for Windows 20.09 (v1)
   Built by CFD Support, www.cfdsupport.com (based on Symscape).
\*---------------------------------------------------------------------------*/
FoamFile
{
    version     2.0;
    format      ascii;
    class       volSymmTensorField;
    location    "8";
    object      UPrime2Mean;
}
// * * * * * * * * * * * * * * * * * * * * * * * * * * * * * * * * * * * * * //

dimensions      [0 2 -2 0 0 0 0];

internalField   nonuniform List<symmTensor> 
120
(
(8.39458e-08 -7.28233e-10 0 5.1707e-11 0 0)
(8.10888e-08 -3.14231e-11 0 1.32814e-14 0 0)
(8.43994e-08 4.83193e-12 0 4.86026e-16 0 0)
(8.75583e-08 -7.06537e-12 0 1.50314e-15 0 0)
(7.82808e-07 8.66643e-11 0 1.31232e-12 0 0)
(7.58632e-07 -6.47316e-11 0 1.00074e-13 0 0)
(7.57794e-07 -4.56972e-11 0 3.80482e-15 0 0)
(7.82093e-07 -1.43837e-10 0 6.90937e-14 0 0)
(2.16278e-06 -2.12235e-09 0 2.36877e-11 0 0)
(2.10291e-06 1.22054e-10 0 4.27635e-13 0 0)
(2.08691e-06 -1.60882e-10 0 2.11782e-14 0 0)
(2.14683e-06 -5.45396e-10 0 3.95745e-13 0 0)
(4.17348e-06 -9.24658e-10 0 1.9218e-12 0 0)
(4.07287e-06 8.42014e-10 0 1.41678e-12 0 0)
(4.03274e-06 -3.8968e-10 0 8.41328e-14 0 0)
(4.13428e-06 -1.28144e-09 0 1.13508e-12 0 0)
(6.73969e-06 -7.57274e-10 0 5.56557e-12 0 0)
(6.59998e-06 1.85854e-09 0 2.95957e-12 0 0)
(6.53273e-06 -6.61808e-10 0 1.8808e-13 0 0)
(6.67583e-06 -2.2943e-09 0 2.38818e-12 0 0)
(9.77931e-06 -1.80203e-09 0 8.31732e-12 0 0)
(9.60032e-06 3.55535e-09 0 5.52845e-12 0 0)
(9.50538e-06 -1.01434e-09 0 3.81572e-13 0 0)
(9.68885e-06 -3.63142e-09 0 4.09087e-12 0 0)
(1.31927e-05 -2.47823e-09 0 1.28172e-11 0 0)
(1.29792e-05 5.371e-09 0 8.44047e-12 0 0)
(1.28573e-05 -1.39838e-09 0 6.41613e-13 0 0)
(1.30775e-05 -5.10757e-09 0 6.36156e-12 0 0)
(1.68826e-05 -3.17079e-09 0 1.89748e-11 0 0)
(1.66376e-05 8.02362e-09 0 1.27989e-11 0 0)
(1.64895e-05 -1.79774e-09 0 1.02176e-12 0 0)
(1.67439e-05 -6.93885e-09 0 9.04689e-12 0 0)
(2.07465e-05 -4.30488e-09 0 2.22017e-11 0 0)
(2.04774e-05 1.0459e-08 0 1.68062e-11 0 0)
(2.03008e-05 -2.22481e-09 0 1.51146e-12 0 0)
(2.05846e-05 -8.72977e-09 0 1.2314e-11 0 0)
(2.46896e-05 -5.06216e-09 0 3.09083e-11 0 0)
(2.44002e-05 1.389e-08 0 2.28589e-11 0 0)
(2.41961e-05 -2.58839e-09 0 2.13022e-12 0 0)
(2.45061e-05 -1.09867e-08 0 1.59884e-11 0 0)
(2.86256e-05 -6.25998e-09 0 3.48297e-11 0 0)
(2.83225e-05 1.67293e-08 0 2.74721e-11 0 0)
(2.80852e-05 -2.89935e-09 0 2.92195e-12 0 0)
(2.84139e-05 -1.30621e-08 0 2.02904e-11 0 0)
(3.24744e-05 -7.21124e-09 0 4.38715e-11 0 0)
(3.21624e-05 2.08039e-08 0 3.55307e-11 0 0)
(3.18964e-05 -3.16638e-09 0 3.81835e-12 0 0)
(3.22368e-05 -1.55903e-08 0 2.49509e-11 0 0)
(3.61769e-05 -8.2214e-09 0 4.85889e-11 0 0)
(3.58592e-05 2.40033e-08 0 4.10731e-11 0 0)
(3.55572e-05 -3.08591e-09 0 5.02248e-12 0 0)
(3.58986e-05 -1.81329e-08 0 3.08105e-11 0 0)
(3.968e-05 -9.19835e-09 0 5.71526e-11 0 0)
(3.93615e-05 2.80979e-08 0 4.96441e-11 0 0)
(3.90253e-05 -3.13027e-09 0 6.3413e-12 0 0)
(3.93596e-05 -2.06975e-08 0 3.61914e-11 0 0)
(4.29593e-05 -1.01828e-08 0 6.31432e-11 0 0)
(4.26349e-05 3.24433e-08 0 5.81128e-11 0 0)
(4.2247e-05 -2.53226e-09 0 7.9055e-12 0 0)
(4.25664e-05 -2.29976e-08 0 4.13151e-11 0 0)
(8.80436e-08 2.87956e-12 0 1.96197e-16 0 0)
(8.93706e-08 -6.56472e-12 0 1.76991e-15 0 0)
(8.65812e-08 1.75614e-11 0 4.17616e-15 0 0)
(8.51549e-08 -1.41714e-11 0 4.40714e-15 0 0)
(7.84183e-07 -1.06015e-12 0 4.79458e-15 0 0)
(7.92841e-07 -5.31071e-11 0 1.88551e-14 0 0)
(7.74907e-07 2.16414e-10 0 6.4529e-14 0 0)
(7.6687e-07 -3.9408e-11 0 2.15861e-13 0 0)
(2.14777e-06 6.86194e-12 0 2.86915e-14 0 0)
(2.16647e-06 -1.29559e-10 0 7.14959e-14 0 0)
(2.12831e-06 7.4655e-10 0 2.83879e-13 0 0)
(2.11043e-06 -2.72477e-10 0 6.63559e-13 0 0)
(4.12866e-06 -4.31704e-11 0 1.12446e-13 0 0)
(4.15804e-06 -2.54142e-10 0 1.67474e-13 0 0)
(4.09903e-06 1.59787e-09 0 7.12214e-13 0 0)
(4.0698e-06 -6.38106e-10 0 1.52426e-12 0 0)
(6.65887e-06 3.97133e-11 0 2.90605e-13 0 0)
(6.69961e-06 -3.49699e-10 0 2.74542e-13 0 0)
(6.62196e-06 2.88107e-09 0 1.51892e-12 0 0)
(6.57921e-06 -1.47096e-09 0 2.76892e-12 0 0)
(9.6572e-06 -5.52069e-11 0 6.06835e-13 0 0)
(9.71014e-06 -5.46512e-10 0 4.39423e-13 0 0)
(9.61778e-06 4.37709e-09 0 2.57825e-12 0 0)
(9.56204e-06 -2.38047e-09 0 4.34087e-12 0 0)
(1.3031e-05 2.4553e-10 0 1.14089e-12 0 0)
(1.30971e-05 -7.06741e-10 0 5.74029e-13 0 0)
(1.29947e-05 6.34858e-09 0 4.22692e-12 0 0)
(1.29238e-05 -3.91949e-09 0 6.37245e-12 0 0)
(1.66839e-05 3.01964e-11 0 1.7998e-12 0 0)
(1.67625e-05 -1.04901e-09 0 7.98453e-13 0 0)
(1.66552e-05 8.35708e-09 0 6.02609e-12 0 0)
(1.65689e-05 -5.31523e-09 0 8.56801e-12 0 0)
(2.05162e-05 6.22028e-10 0 2.90308e-12 0 0)
(2.0608e-05 -1.38691e-09 0 9.53773e-13 0 0)
(2.05007e-05 1.08972e-08 0 8.58309e-12 0 0)
(2.03961e-05 -7.41609e-09 0 1.12042e-11 0 0)
(2.4434e-05 1.71021e-10 0 3.89903e-12 0 0)
(2.4537e-05 -1.9232e-09 0 1.2732e-12 0 0)
(2.44346e-05 1.32497e-08 0 1.10665e-11 0 0)
(2.43127e-05 -9.13458e-09 0 1.3928e-11 0 0)
(2.83469e-05 9.29164e-10 0 5.68674e-12 0 0)
(2.84642e-05 -2.54942e-09 0 1.52404e-12 0 0)
(2.83717e-05 1.61971e-08 0 1.4369e-11 0 0)
(2.82303e-05 -1.14727e-08 0 1.65644e-11 0 0)
(3.21776e-05 2.45319e-10 0 7.02914e-12 0 0)
(3.23075e-05 -3.30688e-09 0 1.91953e-12 0 0)
(3.22319e-05 1.86959e-08 0 1.73296e-11 0 0)
(3.20744e-05 -1.33866e-08 0 1.98716e-11 0 0)
(3.58583e-05 8.7863e-10 0 9.46218e-12 0 0)
(3.60088e-05 -4.29998e-09 0 2.37428e-12 0 0)
(3.59559e-05 2.18139e-08 0 2.09403e-11 0 0)
(3.57818e-05 -1.52788e-08 0 2.19638e-11 0 0)
(3.93373e-05 -5.77627e-11 0 1.10338e-11 0 0)
(3.95077e-05 -5.47294e-09 0 3.31066e-12 0 0)
(3.94847e-05 2.45421e-08 0 2.45348e-11 0 0)
(3.9298e-05 -1.7348e-08 0 2.44097e-11 0 0)
(4.25769e-05 -2.02961e-10 0 1.35424e-11 0 0)
(4.2773e-05 -6.88437e-09 0 3.86043e-12 0 0)
(4.27874e-05 2.69185e-08 0 2.69211e-11 0 0)
(4.2595e-05 -1.90295e-08 0 2.5773e-11 0 0)
)
;

boundaryField
{
    topWall
    {
        type            calculated;
        value           nonuniform List<symmTensor> 0();
    }
    botWall
    {
        type            calculated;
        value           uniform (0 0 0 0 0 0);
    }
    inlet
    {
        type            cyclic;
    }
    outlet
    {
        type            cyclic;
    }
    fixWall
    {
        type            empty;
    }
    procBoundary0to1
    {
        type            processor;
        value           nonuniform List<symmTensor> 8((4.59789e-05 -1.07119e-08 0 6.83098e-11 0 0) (4.56666e-05 3.59132e-08 0 6.59538e-11 0 0) (4.52369e-05 -1.7786e-09 0 1.04048e-11 0 0) (4.55218e-05 -2.55895e-08 0 4.64457e-11 0 0) (4.55309e-05 -1.05118e-09 0 1.54001e-11 0 0) (4.57596e-05 -8.94873e-09 0 5.28032e-12 0 0) (4.58417e-05 2.95614e-08 0 3.08999e-11 0 0) (4.56381e-05 -2.12115e-08 0 2.43178e-11 0 0));
    }
}


// ************************************************************************* //
