/*--------------------------------*- C++ -*----------------------------------*\
  =========                 |
  \\      /  F ield         | OpenFOAM: The Open Source CFD Toolbox
   \\    /   O peration     | Website:  https://openfoam.org
    \\  /    A nd           | Version:  dev
     \\/     M anipulation  |

   OpenFOAM for Windows 20.09 (v1)
   Built by CFD Support, www.cfdsupport.com (based on Symscape).
\*---------------------------------------------------------------------------*/
FoamFile
{
    version     2.0;
    format      ascii;
    class       surfaceScalarField;
    location    "10";
    object      alphaPhi0.water;
}
// * * * * * * * * * * * * * * * * * * * * * * * * * * * * * * * * * * * * * //

dimensions      [0 3 -1 0 0 0 0];

internalField   nonuniform List<scalar> 
217
(
2.33505e-09
2.54256e-11
2.35531e-09
-2.09937e-11
2.35934e-09
-4.24717e-12
-6.54271e-13
2.35998e-09
6.71151e-09
1.84583e-11
6.71636e-09
-2.5855e-11
6.71518e-09
-3.0918e-12
1.06649e-11
6.70387e-09
1.07214e-08
3.51899e-12
1.07255e-08
-2.99412e-11
1.0718e-08
4.34812e-12
3.71554e-11
1.06915e-08
1.4396e-08
-1.73997e-11
1.43985e-08
-3.24724e-11
1.43848e-08
1.80264e-11
7.70221e-11
1.4345e-08
1.77543e-08
-4.27322e-11
1.77549e-08
-3.30332e-11
1.77355e-08
3.73954e-11
1.28007e-10
1.76845e-08
2.08156e-08
-7.09986e-11
2.08135e-08
-3.09906e-11
2.07895e-08
6.1451e-11
1.88021e-10
2.07294e-08
2.35987e-08
-1.00977e-10
2.35941e-08
-2.64237e-11
2.3566e-08
8.95821e-11
2.55324e-10
2.34987e-08
2.61221e-08
-1.3204e-10
2.61152e-08
-1.94947e-11
2.60834e-08
1.21368e-10
3.27942e-10
2.60108e-08
2.84038e-08
-1.63596e-10
2.8395e-08
-1.06275e-11
2.83601e-08
1.56247e-10
4.04645e-10
2.82834e-08
3.04616e-08
-1.95528e-10
3.04508e-08
1.71027e-13
3.04132e-08
1.93799e-10
4.83901e-10
3.0334e-08
3.23117e-08
-2.27044e-10
3.23003e-08
1.16547e-11
3.22601e-08
2.33998e-10
5.64878e-10
3.21791e-08
3.39711e-08
-2.58033e-10
3.39588e-08
2.39647e-11
3.39163e-08
2.76491e-10
6.46307e-10
3.38349e-08
3.54552e-08
-2.88072e-10
3.54423e-08
3.68342e-11
3.53972e-08
3.21598e-10
7.26782e-10
3.53168e-08
3.67791e-08
-3.17055e-10
3.67653e-08
5.06207e-11
3.67178e-08
3.69135e-10
8.0534e-10
3.66393e-08
3.79571e-08
3.79424e-08
3.7892e-08
3.7817e-08
2.34814e-09
1.18648e-11
2.3553e-09
-7.16604e-12
2.35823e-09
-2.97408e-12
-2.04674e-12
6.67884e-09
3.69055e-11
6.69656e-09
-2.48921e-11
6.70696e-09
-1.33517e-11
4.50729e-13
1.06581e-08
7.03366e-11
1.0685e-08
-5.17665e-11
1.0702e-08
-3.02868e-11
-3.97158e-12
1.43052e-08
1.10082e-10
1.43405e-08
-8.70222e-11
1.43636e-08
-5.34021e-11
-1.53786e-11
1.76398e-08
1.54784e-10
1.76825e-08
-1.29709e-10
1.77116e-08
-8.24502e-11
-3.27721e-11
2.0681e-08
2.03214e-10
2.07302e-08
-1.78882e-10
2.07647e-08
-1.1698e-10
-5.53392e-11
2.34476e-08
2.54351e-10
2.35024e-08
-2.33671e-10
2.35418e-08
-1.56445e-10
-8.22564e-11
2.59577e-08
3.07419e-10
2.60173e-08
-2.93217e-10
2.60609e-08
-2.00124e-10
-1.12384e-10
2.82292e-08
3.61661e-10
2.82928e-08
-3.56794e-10
2.834e-08
-2.47428e-10
-1.44657e-10
3.02793e-08
4.16386e-10
3.03461e-08
-4.23582e-10
3.03962e-08
-2.9761e-10
-1.78101e-10
3.21244e-08
4.71109e-10
3.21938e-08
-4.92994e-10
3.22465e-08
-3.50321e-10
-2.11859e-10
3.3781e-08
5.24967e-10
3.38521e-08
-5.64023e-10
3.39068e-08
-4.05028e-10
-2.45235e-10
3.5264e-08
5.77669e-10
3.53361e-08
-6.36049e-10
3.53925e-08
-4.61446e-10
-2.77912e-10
3.6589e-08
6.27874e-10
3.66613e-08
-7.08326e-10
3.67187e-08
-5.18897e-10
-3.09321e-10
3.7769e-08
3.78407e-08
3.78993e-08
)
;

boundaryField
{
    topWall
    {
        type            calculated;
        value           nonuniform List<scalar> 0();
    }
    botWall
    {
        type            calculated;
        value           uniform 0;
    }
    inlet
    {
        type            cyclic;
        value           nonuniform List<scalar> 
15
(
-3.79291e-08
-3.67502e-08
-3.54252e-08
-3.39402e-08
-3.22803e-08
-3.04297e-08
-2.83723e-08
-2.60911e-08
-2.35687e-08
-2.07873e-08
-1.77289e-08
-1.4375e-08
-1.07063e-08
-6.70443e-09
-2.36026e-09
)
;
    }
    outlet
    {
        type            cyclic;
        value           nonuniform List<scalar> 
15
(
3.79291e-08
3.67502e-08
3.54252e-08
3.39402e-08
3.22803e-08
3.04297e-08
2.83723e-08
2.60911e-08
2.35687e-08
2.07873e-08
1.77289e-08
1.4375e-08
1.07063e-08
6.70443e-09
2.36026e-09
)
;
    }
    fixWall
    {
        type            empty;
        value           nonuniform List<scalar> 0();
    }
    procBoundary0to1
    {
        type            processor;
        value           nonuniform List<scalar> 8(-3.45407e-10 6.42643e-11 4.16953e-10 8.79828e-10 6.75772e-10 -7.79285e-10 -5.76624e-10 -3.39809e-10);
    }
}


// ************************************************************************* //
