/*--------------------------------*- C++ -*----------------------------------*\
  =========                 |
  \\      /  F ield         | OpenFOAM: The Open Source CFD Toolbox
   \\    /   O peration     | Website:  https://openfoam.org
    \\  /    A nd           | Version:  dev
     \\/     M anipulation  |

   OpenFOAM for Windows 20.09 (v1)
   Built by CFD Support, www.cfdsupport.com (based on Symscape).
\*---------------------------------------------------------------------------*/
FoamFile
{
    version     2.0;
    format      ascii;
    class       volSymmTensorField;
    location    "10";
    object      devReff;
}
// * * * * * * * * * * * * * * * * * * * * * * * * * * * * * * * * * * * * * //

dimensions      [0 2 -2 0 0 0 0];

internalField   nonuniform List<symmTensor> 
120
(
(1.92175e-07 -0.00123803 -0 -3.00294e-07 -0 1.08119e-07)
(-7.15363e-08 -0.00123737 -0 1.06919e-07 -0 -3.53825e-08)
(-7.34858e-08 -0.0012399 -0 5.89582e-08 -0 1.45276e-08)
(1.01416e-08 -0.00124111 -0 8.55556e-10 -0 -1.09972e-08)
(-1.77059e-08 -0.00114453 -0 2.63124e-08 -0 -8.60648e-09)
(-4.07519e-08 -0.00114587 -0 5.51792e-08 -0 -1.44273e-08)
(-3.22179e-08 -0.00114396 -0 2.78177e-08 -0 4.40022e-09)
(1.15625e-07 -0.00114273 -0 -9.5662e-08 -0 -1.99629e-08)
(-9.87694e-08 -0.00105112 -0 1.08765e-07 -0 -9.99599e-09)
(-1.42793e-08 -0.00105185 -0 1.13e-08 -0 2.97931e-09)
(2.50347e-08 -0.00105045 -0 -3.33672e-08 -0 8.33252e-09)
(2.33156e-07 -0.0010487 -0 -2.10673e-07 -0 -2.24824e-08)
(-1.66852e-07 -0.000962791 -0 1.85706e-07 -0 -1.88543e-08)
(-5.7504e-10 -0.000963026 -0 -2.7191e-09 -0 3.29414e-09)
(7.73396e-08 -0.00096189 -0 -8.61824e-08 -0 8.84282e-09)
(3.47847e-07 -0.000960041 -0 -3.2565e-07 -0 -2.21962e-08)
(-1.99035e-07 -0.000879552 -0 2.05896e-07 -0 -6.8604e-09)
(1.44231e-08 -0.000879469 -0 -1.59771e-08 -0 1.55399e-09)
(1.24608e-07 -0.000878461 -0 -1.3289e-07 -0 8.28176e-09)
(4.48612e-07 -0.000876754 -0 -4.26944e-07 -0 -2.1668e-08)
(-2.24545e-07 -0.000801406 -0 2.25635e-07 -0 -1.08961e-09)
(3.40107e-08 -0.000801124 -0 -3.54294e-08 -0 1.4187e-09)
(1.67577e-07 -0.000800172 -0 -1.76044e-07 -0 8.46731e-09)
(5.32603e-07 -0.000798696 -0 -5.11015e-07 -0 -2.15884e-08)
(-2.38446e-07 -0.000728216 -0 2.3223e-07 -0 6.21597e-09)
(5.55857e-08 -0.000727871 -0 -5.70271e-08 -0 1.44144e-09)
(2.05095e-07 -0.000726983 -0 -2.12868e-07 -0 7.77297e-09)
(5.99617e-07 -0.000725741 -0 -5.7811e-07 -0 -2.15068e-08)
(-2.6809e-07 -0.000659888 -0 2.7844e-07 -0 -1.03497e-08)
(7.61745e-08 -0.000659594 -0 -7.84747e-08 -0 2.3002e-09)
(2.38491e-07 -0.000658753 -0 -2.46788e-07 -0 8.29682e-09)
(6.51934e-07 -0.000657727 -0 -6.30378e-07 -0 -2.15567e-08)
(-2.59808e-07 -0.000596344 -0 2.53997e-07 -0 5.81067e-09)
(9.44507e-08 -0.000596151 -0 -9.66985e-08 -0 2.24777e-09)
(2.66962e-07 -0.00059535 -0 -2.74342e-07 -0 7.3802e-09)
(6.89253e-07 -0.000594505 -0 -6.67433e-07 -0 -2.18199e-08)
(-2.79674e-07 -0.000537421 -0 2.90938e-07 -0 -1.12638e-08)
(1.09549e-07 -0.000537378 -0 -1.11891e-07 -0 2.34191e-09)
(2.92972e-07 -0.00053664 -0 -3.00878e-07 -0 7.90543e-09)
(7.16566e-07 -0.00053591 -0 -6.95811e-07 -0 -2.07548e-08)
(-2.63016e-07 -0.000483006 -0 2.5822e-07 -0 4.79652e-09)
(1.22287e-07 -0.000483105 -0 -1.26104e-07 -0 3.81672e-09)
(3.15704e-07 -0.000482407 -0 -3.22931e-07 -0 7.2268e-09)
(7.30152e-07 -0.000481765 -0 -7.08353e-07 -0 -2.17995e-08)
(-2.80489e-07 -0.000432947 -0 2.97068e-07 -0 -1.65788e-08)
(1.22163e-07 -0.000433156 -0 -1.16876e-07 -0 -5.28723e-09)
(3.37427e-07 -0.000432423 -0 -3.45211e-07 -0 7.7841e-09)
(7.35401e-07 -0.000431849 -0 -7.13529e-07 -0 -2.18713e-08)
(-2.62894e-07 -0.000387032 -0 2.66677e-07 -0 -3.78332e-09)
(1.35251e-07 -0.000387347 -0 -1.34277e-07 -0 -9.74098e-10)
(3.58712e-07 -0.000386607 -0 -3.65536e-07 -0 6.82392e-09)
(7.30965e-07 -0.000386084 -0 -7.11302e-07 -0 -1.96638e-08)
(-2.47936e-07 -0.000345059 -0 2.41658e-07 -0 6.27824e-09)
(1.48979e-07 -0.0003455 -0 -1.56013e-07 -0 7.03437e-09)
(3.80763e-07 -0.000344858 -0 -3.90017e-07 -0 9.25421e-09)
(7.16348e-07 -0.000344281 -0 -6.93213e-07 -0 -2.31352e-08)
(-2.55494e-07 -0.000306829 -0 2.58743e-07 -0 -3.24972e-09)
(1.51986e-07 -0.000307375 -0 -1.60723e-07 -0 8.73729e-09)
(4.01114e-07 -0.000306919 -0 -4.09992e-07 -0 8.87793e-09)
(7.05239e-07 -0.000306223 -0 -6.86354e-07 -0 -1.88846e-08)
(7.3816e-08 -0.0012352 -0 -9.48797e-08 -0 2.10637e-08)
(-5.29709e-08 -0.00123501 -0 6.63486e-08 -0 -1.33777e-08)
(-4.37889e-08 -0.00123969 -0 3.87834e-08 -0 5.00552e-09)
(2.84694e-08 -0.00123962 -0 -2.33049e-09 -0 -2.61389e-08)
(1.71451e-07 -0.00113693 -0 -1.92453e-07 -0 2.10022e-08)
(-1.24821e-07 -0.00113741 -0 1.39558e-07 -0 -1.47368e-08)
(-9.97183e-08 -0.00114118 -0 9.47054e-08 -0 5.01295e-09)
(-4.67058e-09 -0.00114069 -0 1.01623e-08 -0 -5.49175e-09)
(2.5421e-07 -0.00104341 -0 -2.78238e-07 -0 2.40286e-08)
(-1.97169e-07 -0.00104444 -0 2.13119e-07 -0 -1.59498e-08)
(-1.53661e-07 -0.0010477 -0 1.49211e-07 -0 4.44913e-09)
(-5.58296e-08 -0.00104769 -0 5.44995e-08 -0 1.33006e-09)
(3.17587e-07 -0.000955444 -0 -3.42654e-07 -0 2.50669e-08)
(-2.69842e-07 -0.000956714 -0 2.86716e-07 -0 -1.68737e-08)
(-2.08676e-07 -0.000959588 -0 2.04332e-07 -0 4.3436e-09)
(-1.11653e-07 -0.000959926 -0 1.10101e-07 -0 1.55196e-09)
(3.65716e-07 -0.000872926 -0 -3.90646e-07 -0 2.49297e-08)
(-3.35998e-07 -0.000874187 -0 3.52839e-07 -0 -1.68412e-08)
(-2.60849e-07 -0.000876698 -0 2.56761e-07 -0 4.08857e-09)
(-1.63369e-07 -0.000877207 -0 1.62746e-07 -0 6.23296e-10)
(4.02706e-07 -0.000795631 -0 -4.27703e-07 -0 2.4997e-08)
(-3.95239e-07 -0.00079677 -0 4.12091e-07 -0 -1.68526e-08)
(-3.09123e-07 -0.000798961 -0 3.04884e-07 -0 4.23945e-09)
(-2.07566e-07 -0.000799548 -0 2.06734e-07 -0 8.31427e-10)
(4.29274e-07 -0.000723381 -0 -4.54083e-07 -0 2.48093e-08)
(-4.46281e-07 -0.00072434 -0 4.6286e-07 -0 -1.6579e-08)
(-3.53106e-07 -0.000726258 -0 3.49089e-07 -0 4.01783e-09)
(-2.44754e-07 -0.000726842 -0 2.43943e-07 -0 8.11505e-10)
(4.48679e-07 -0.000656025 -0 -4.73615e-07 -0 2.49353e-08)
(-4.90531e-07 -0.000656784 -0 5.07432e-07 -0 -1.69016e-08)
(-3.91633e-07 -0.000658455 -0 3.87068e-07 -0 4.56468e-09)
(-2.72282e-07 -0.000658962 -0 2.70828e-07 -0 1.45396e-09)
(4.59984e-07 -0.000593399 -0 -4.84904e-07 -0 2.49194e-08)
(-5.26519e-07 -0.000593957 -0 5.43169e-07 -0 -1.66499e-08)
(-4.25265e-07 -0.000595407 -0 4.21501e-07 -0 3.7636e-09)
(-2.92673e-07 -0.000595827 -0 2.9194e-07 -0 7.33722e-10)
(4.66222e-07 -0.00053537 -0 -4.91404e-07 -0 2.51821e-08)
(-5.56027e-07 -0.000535737 -0 5.72518e-07 -0 -1.6491e-08)
(-4.53056e-07 -0.00053697 -0 4.48416e-07 -0 4.63996e-09)
(-3.03186e-07 -0.000537306 -0 3.01381e-07 -0 1.80547e-09)
(4.65079e-07 -0.000481757 -0 -4.90501e-07 -0 2.54214e-08)
(-5.7819e-07 -0.000481933 -0 5.94429e-07 -0 -1.62395e-08)
(-4.76921e-07 -0.000482941 -0 4.73521e-07 -0 3.40075e-09)
(-3.06705e-07 -0.000483232 -0 3.04938e-07 -0 1.76692e-09)
(4.64254e-07 -0.000432404 -0 -4.94385e-07 -0 3.01313e-08)
(-5.87127e-07 -0.000432443 -0 5.96722e-07 -0 -9.59505e-09)
(-4.9029e-07 -0.000433165 -0 4.80725e-07 -0 9.56501e-09)
(-3.04536e-07 -0.000433408 -0 3.01882e-07 -0 2.65443e-09)
(4.53752e-07 -0.000387073 -0 -4.89109e-07 -0 3.53569e-08)
(-5.82595e-07 -0.000387003 -0 5.79532e-07 -0 3.06346e-09)
(-4.98335e-07 -0.000387433 -0 4.85497e-07 -0 1.28377e-08)
(-2.96624e-07 -0.000387625 -0 2.92052e-07 -0 4.57188e-09)
(4.23875e-07 -0.000345578 -0 -4.45893e-07 -0 2.20181e-08)
(-6.1412e-07 -0.00034555 -0 6.40636e-07 -0 -2.65163e-08)
(-5.21911e-07 -0.000345616 -0 5.2467e-07 -0 -2.75936e-09)
(-2.93442e-07 -0.000345693 -0 2.9306e-07 -0 3.82065e-10)
(3.93242e-07 -0.000307674 -0 -4.12191e-07 -0 1.89493e-08)
(-6.22814e-07 -0.000307834 -0 6.60819e-07 -0 -3.80053e-08)
(-5.19203e-07 -0.000307728 -0 5.24121e-07 -0 -4.91805e-09)
(-2.84221e-07 -0.000307629 -0 2.85879e-07 -0 -1.65795e-09)
)
;

boundaryField
{
    topWall
    {
        type            calculated;
        value           nonuniform List<symmTensor> 0();
    }
    botWall
    {
        type            calculated;
        value           nonuniform List<symmTensor> 8((4.06645e-07 -0.00128353 -0 -7.29235e-07 -0 3.2259e-07) (-7.59916e-08 -0.00128058 -0 1.15829e-07 -0 -3.98377e-08) (-6.8212e-08 -0.00128787 -0 4.84106e-08 -0 1.98014e-08) (-2.13504e-09 -0.00129115 -0 2.54088e-08 -0 -2.32738e-08) (5.76614e-08 -0.00128534 -0 -6.25704e-08 -0 4.90908e-09) (-4.04431e-08 -0.00128482 -0 4.1293e-08 -0 -8.49902e-10) (-3.39658e-08 -0.00129009 -0 1.91371e-08 -0 1.48287e-08) (2.44463e-08 -0.00129067 -0 5.71557e-09 -0 -3.01619e-08));
    }
    inlet
    {
        type            cyclic;
    }
    outlet
    {
        type            cyclic;
    }
    fixWall
    {
        type            empty;
    }
    procBoundary0to1
    {
        type            processor;
        value           nonuniform List<symmTensor> 8((-2.37714e-07 -0.000272122 -0 2.30214e-07 -0 7.50038e-09) (1.50546e-07 -0.000272859 -0 -1.61836e-07 -0 1.12897e-08) (4.14053e-07 -0.000272296 -0 -4.18598e-07 -0 4.54509e-09) (6.95947e-07 -0.000271669 -0 -6.80324e-07 -0 -1.56228e-08) (3.67454e-07 -0.00027332 -0 -3.88679e-07 -0 2.1225e-08) (-6.08644e-07 -0.000273353 -0 6.3029e-07 -0 -2.16456e-08) (-5.11314e-07 -0.000273258 -0 5.12106e-07 -0 -7.91623e-10) (-2.69397e-07 -0.000273028 -0 2.74966e-07 -0 -5.56937e-09));
    }
}


// ************************************************************************* //
