/*--------------------------------*- C++ -*----------------------------------*\
  =========                 |
  \\      /  F ield         | OpenFOAM: The Open Source CFD Toolbox
   \\    /   O peration     | Website:  https://openfoam.org
    \\  /    A nd           | Version:  dev
     \\/     M anipulation  |

   OpenFOAM for Windows 20.09 (v1)
   Built by CFD Support, www.cfdsupport.com (based on Symscape).
\*---------------------------------------------------------------------------*/
FoamFile
{
    version     2.0;
    format      ascii;
    class       volScalarField;
    location    "10";
    object      epsilon;
}
// * * * * * * * * * * * * * * * * * * * * * * * * * * * * * * * * * * * * * //

dimensions      [0 2 -3 0 0 0 0];

internalField   nonuniform List<scalar> 
120
(
1.73748e-12
1.73748e-12
1.73748e-12
1.73748e-12
2.99638e-13
2.99637e-13
2.99637e-13
2.99637e-13
1.01969e-13
1.01968e-13
1.01968e-13
1.01968e-13
4.79202e-14
4.79194e-14
4.79195e-14
4.79196e-14
2.70293e-14
2.70287e-14
2.70288e-14
2.70289e-14
1.71889e-14
1.71885e-14
1.71886e-14
1.71887e-14
1.1888e-14
1.18459e-14
1.1846e-14
1.18461e-14
1.40363e-14
1.39633e-14
1.38738e-14
1.38301e-14
1.64067e-14
1.63197e-14
1.62133e-14
1.61614e-14
1.89439e-14
1.88428e-14
1.87188e-14
1.86586e-14
2.16339e-14
2.15181e-14
2.13759e-14
2.1307e-14
2.44786e-14
2.43475e-14
2.41862e-14
2.41083e-14
2.74878e-14
2.73406e-14
2.71593e-14
2.7072e-14
3.06756e-14
3.05114e-14
3.0309e-14
3.02118e-14
3.40591e-14
3.3877e-14
3.36522e-14
3.35448e-14
1.73748e-12
1.73748e-12
1.73748e-12
1.73748e-12
2.99637e-13
2.99637e-13
2.99637e-13
2.99637e-13
1.01968e-13
1.01968e-13
1.01968e-13
1.01968e-13
4.79197e-14
4.79194e-14
4.79194e-14
4.79194e-14
2.70289e-14
2.70287e-14
2.70287e-14
2.70286e-14
1.71888e-14
1.71884e-14
1.71885e-14
1.71885e-14
1.18461e-14
1.18458e-14
1.18895e-14
1.1911e-14
1.38547e-14
1.39561e-14
1.40383e-14
1.40647e-14
1.61907e-14
1.6311e-14
1.64089e-14
1.64405e-14
1.86927e-14
1.88321e-14
1.89462e-14
1.89834e-14
2.13461e-14
2.15051e-14
2.16361e-14
2.16791e-14
2.41526e-14
2.43318e-14
2.44805e-14
2.45299e-14
2.71216e-14
2.73218e-14
2.74892e-14
2.75455e-14
3.02671e-14
3.04891e-14
3.06763e-14
3.074e-14
3.36059e-14
3.38506e-14
3.40588e-14
3.41306e-14
)
;

boundaryField
{
    topWall
    {
        type            epsilonWallFunction;
        value           nonuniform List<scalar> 0();
    }
    botWall
    {
        type            epsilonWallFunction;
        value           nonuniform List<scalar> 8(1.73748e-12 1.73748e-12 1.73748e-12 1.73748e-12 1.73748e-12 1.73748e-12 1.73748e-12 1.73748e-12);
    }
    inlet
    {
        type            cyclic;
    }
    outlet
    {
        type            cyclic;
    }
    fixWall
    {
        type            empty;
    }
    procBoundary0to1
    {
        type            processor;
        value           nonuniform List<scalar> 8(3.76753e-14 3.7474e-14 3.7225e-14 3.71066e-14 3.71741e-14 3.7443e-14 3.76738e-14 3.77544e-14);
    }
}


// ************************************************************************* //
