/*--------------------------------*- C++ -*----------------------------------*\
  =========                 |
  \\      /  F ield         | OpenFOAM: The Open Source CFD Toolbox
   \\    /   O peration     | Website:  https://openfoam.org
    \\  /    A nd           | Version:  dev
     \\/     M anipulation  |

   OpenFOAM for Windows 20.09 (v1)
   Built by CFD Support, www.cfdsupport.com (based on Symscape).
\*---------------------------------------------------------------------------*/
FoamFile
{
    version     2.0;
    format      ascii;
    class       volVectorField;
    location    "10";
    object      gradp;
}
// * * * * * * * * * * * * * * * * * * * * * * * * * * * * * * * * * * * * * //

dimensions      [1 -2 -2 0 0 0 0];

internalField   nonuniform List<vector> 
120
(
(3.78269 -108.332 0)
(-1.40924 -100.551 0)
(-1.26816 -98.4212 0)
(-1.25293 -98.1214 0)
(3.74199 -108.301 0)
(-1.24436 -100.547 0)
(-1.22773 -98.4202 0)
(-1.24803 -98.121 0)
(3.74208 -98.0569 0)
(-1.24456 -98.0778 0)
(-1.22773 -98.0985 0)
(-1.24783 -98.0992 0)
(3.74244 -98.0884 0)
(-1.24505 -98.079 0)
(-1.22809 -98.111 0)
(-1.24817 -98.0991 0)
(3.74242 -98.1173 0)
(-1.24493 -98.1247 0)
(-1.22807 -98.1118 0)
(-1.24796 -98.099 0)
(3.74202 -98.0838 0)
(-1.24496 -98.1239 0)
(-1.22766 -98.0959 0)
(-1.24797 -98.0976 0)
(3.74201 -98.0742 0)
(-1.24514 -98.1006 0)
(-1.22763 -98.0959 0)
(-1.24803 -98.0994 0)
(3.74199 -98.0776 0)
(-1.24532 -98.1006 0)
(-1.22764 -98.0989 0)
(-1.24803 -98.1009 0)
(3.74197 -98.0696 0)
(-1.24549 -98.0918 0)
(-1.22763 -98.0946 0)
(-1.248 -98.0993 0)
(3.74208 -98.0776 0)
(-1.24574 -98.1007 0)
(-1.22777 -98.095 0)
(-1.24814 -98.0991 0)
(3.74191 -98.0868 0)
(-1.24578 -98.1099 0)
(-1.22761 -98.0868 0)
(-1.24815 -98.0899 0)
(3.742 -98.0609 0)
(-1.24574 -98.1014 0)
(-1.22743 -98.086 0)
(-1.24829 -98.09 0)
(3.74197 -98.0523 0)
(-1.2462 -98.1003 0)
(-1.22742 -98.0779 0)
(-1.2483 -98.0798 0)
(3.74193 -98.0698 0)
(-1.24616 -98.0949 0)
(-1.22709 -98.0777 0)
(-1.24861 -98.0802 0)
(3.74118 -97.8214 0)
(-1.24633 -97.8922 0)
(-1.22717 -97.8756 0)
(-1.24867 -97.7366 0)
(-1.24848 -98.1266 0)
(-1.24259 -98.1069 0)
(-1.26605 -98.1226 0)
(3.90476 -98.1052 0)
(-1.24824 -98.1144 0)
(-1.24252 -98.0921 0)
(-1.26602 -98.1226 0)
(3.73491 -98.1104 0)
(-1.248 -98.1068 0)
(-1.24272 -98.0941 0)
(-1.26635 -98.1002 0)
(3.73511 -98.105 0)
(-1.24815 -98.1188 0)
(-1.24241 -98.1085 0)
(-1.2662 -98.1003 0)
(3.73563 -98.0996 0)
(-1.24815 -98.0996 0)
(-1.24241 -98.099 0)
(-1.26621 -98.1003 0)
(3.73531 -98.0995 0)
(-1.24815 -98.0996 0)
(-1.24242 -98.0985 0)
(-1.26621 -98.1003 0)
(3.73534 -98.099 0)
(-1.24817 -98.0995 0)
(-1.24243 -98.0981 0)
(-1.26621 -98.1003 0)
(3.73559 -98.0986 0)
(-1.24813 -98.0976 0)
(-1.24243 -98.0977 0)
(-1.26622 -98.1002 0)
(3.73578 -98.0983 0)
(-1.24811 -98.1015 0)
(-1.24247 -98.0972 0)
(-1.26622 -98.1001 0)
(3.73596 -98.0973 0)
(-1.24809 -98.1037 0)
(-1.24241 -98.0969 0)
(-1.26622 -98.0998 0)
(3.73629 -98.0972 0)
(-1.24808 -98.0953 0)
(-1.24241 -98.0966 0)
(-1.26623 -98.0977 0)
(3.73634 -98.1048 0)
(-1.24821 -98.0953 0)
(-1.24245 -98.0854 0)
(-1.26636 -98.1023 0)
(3.73647 -98.1046 0)
(-1.248 -98.0971 0)
(-1.24252 -98.0962 0)
(-1.26655 -98.1052 0)
(3.73702 -98.096 0)
(-1.24848 -98.0997 0)
(-1.24258 -98.1105 0)
(-1.26635 -98.1025 0)
(3.73735 -98.048 0)
(-1.2485 -97.6699 0)
(-1.24257 -97.5722 0)
(-1.26551 -97.8833 0)
(3.73757 -98.1009 0)
)
;

boundaryField
{
    topWall
    {
        type            extrapolatedCalculated;
        value           nonuniform List<vector> 0();
    }
    botWall
    {
        type            extrapolatedCalculated;
        value           nonuniform List<vector> 8((3.78269 -98.136 0) (-1.40924 -98.1086 0) (-1.26816 -98.1012 0) (-1.25293 -98.1001 0) (-1.24848 -98.1 0) (-1.24259 -98.1 0) (-1.26605 -98.1002 0) (3.90476 -98.1001 0));
    }
    inlet
    {
        type            cyclic;
    }
    outlet
    {
        type            cyclic;
    }
    fixWall
    {
        type            empty;
    }
    procBoundary0to1
    {
        type            processor;
        value           nonuniform List<vector> 8((3.74541 -98.1214 0) (-1.24706 -98.0965 0) (-1.2245 -98.1976 0) (-1.24518 -98.3232 0) (-1.24574 -98.122 0) (-1.24614 -98.1541 0) (-1.27517 -98.4779 0) (3.73838 -98.2058 0));
    }
}


// ************************************************************************* //
