/*--------------------------------*- C++ -*----------------------------------*\
  =========                 |
  \\      /  F ield         | OpenFOAM: The Open Source CFD Toolbox
   \\    /   O peration     | Website:  https://openfoam.org
    \\  /    A nd           | Version:  dev
     \\/     M anipulation  |

   OpenFOAM for Windows 20.09 (v1)
   Built by CFD Support, www.cfdsupport.com (based on Symscape).
\*---------------------------------------------------------------------------*/
FoamFile
{
    version     2.0;
    format      ascii;
    class       volVectorField;
    location    "10";
    object      gradp_rgh;
}
// * * * * * * * * * * * * * * * * * * * * * * * * * * * * * * * * * * * * * //

dimensions      [1 -2 -2 0 0 0 0];

internalField   nonuniform List<vector> 
120
(
(-1.21728 -10.2227 0)
(-1.40939 -2.44905 0)
(-1.2682 -0.320834 0)
(-1.25294 -0.0212879 0)
(-1.25801 -10.2105 0)
(-1.24436 -2.44889 0)
(-1.22773 -0.320549 0)
(-1.24803 -0.0210126 0)
(-1.25792 0.0428264 0)
(-1.24456 0.0220315 0)
(-1.22773 0.00140483 0)
(-1.24783 0.000684348 0)
(-1.25756 0.0116253 0)
(-1.24505 0.0209898 0)
(-1.22809 -0.0110625 0)
(-1.24817 0.000792766 0)
(-1.25758 -0.0172355 0)
(-1.24494 -0.0247375 0)
(-1.22807 -0.0117987 0)
(-1.24796 0.000871488 0)
(-1.25798 0.0161642 0)
(-1.24496 -0.0240703 0)
(-1.22766 0.00408328 0)
(-1.24797 0.00226867 0)
(-1.25799 0.0257052 0)
(-1.24514 -0.000722708 0)
(-1.22763 0.00402393 0)
(-1.24802 0.00057895 0)
(-1.25801 0.0222713 0)
(-1.24532 -0.000925459 0)
(-1.22764 0.000966254 0)
(-1.24803 -0.00089871 0)
(-1.25803 0.030253 0)
(-1.24549 0.00795057 0)
(-1.22763 0.00531962 0)
(-1.248 0.000751933 0)
(-1.25792 0.0223157 0)
(-1.24574 -0.000801747 0)
(-1.22776 0.00486973 0)
(-1.24814 0.000896923 0)
(-1.25809 0.013315 0)
(-1.24578 -0.00975404 0)
(-1.2276 0.0132955 0)
(-1.24814 0.0101458 0)
(-1.258 0.0393146 0)
(-1.24574 -0.00112393 0)
(-1.22743 0.0140431 0)
(-1.24828 0.0100602 0)
(-1.25804 0.0479426 0)
(-1.2462 -0.000180518 0)
(-1.22741 0.0217678 0)
(-1.2483 0.0199503 0)
(-1.25808 0.0293961 0)
(-1.24617 0.00513821 0)
(-1.22709 0.0237194 0)
(-1.2486 0.0227208 0)
(-1.25883 0.274242 0)
(-1.2463 0.205079 0)
(-1.22712 0.229192 0)
(-1.24868 0.371723 0)
(-1.24848 -0.0265451 0)
(-1.24258 -0.00681221 0)
(-1.26605 -0.0225236 0)
(-1.09509 -0.00513096 0)
(-1.24824 -0.0142953 0)
(-1.24252 0.00797247 0)
(-1.26602 -0.0226055 0)
(-1.26509 -0.0103305 0)
(-1.24799 -0.00673846 0)
(-1.24272 0.00600206 0)
(-1.26635 -0.000204467 0)
(-1.26489 -0.00500108 0)
(-1.24815 -0.0188473 0)
(-1.24241 -0.00846827 0)
(-1.2662 -0.000302721 0)
(-1.26438 0.000406229 0)
(-1.24815 0.000279535 0)
(-1.24241 0.000933696 0)
(-1.26621 -0.000392139 0)
(-1.26469 0.000515298 0)
(-1.24815 0.000293187 0)
(-1.24242 0.00142782 0)
(-1.26621 -0.000422588 0)
(-1.26466 0.000828793 0)
(-1.24816 0.000396 0)
(-1.24243 0.00182013 0)
(-1.26622 -0.000410902 0)
(-1.26441 0.00118507 0)
(-1.24813 0.0023893 0)
(-1.24243 0.00225317 0)
(-1.26622 -0.000359317 0)
(-1.26422 0.00149467 0)
(-1.24811 -0.0014946 0)
(-1.24247 0.00268596 0)
(-1.26623 -0.000291737 0)
(-1.26404 0.00242718 0)
(-1.24809 -0.00367018 0)
(-1.24241 0.00300867 0)
(-1.26623 6.87086e-05 0)
(-1.26371 0.00267442 0)
(-1.24807 0.00471014 0)
(-1.24241 0.00333306 0)
(-1.26623 0.00221538 0)
(-1.26367 -0.00482751 0)
(-1.24821 0.00463674 0)
(-1.24245 0.0144138 0)
(-1.26636 -0.00236463 0)
(-1.26353 -0.00444496 0)
(-1.248 0.00278464 0)
(-1.24253 0.00375468 0)
(-1.26655 -0.00486197 0)
(-1.26297 0.00435902 0)
(-1.24848 0.000622858 0)
(-1.24258 -0.00968941 0)
(-1.26635 0.0025016 0)
(-1.26265 0.0528185 0)
(-1.24854 0.436467 0)
(-1.24249 0.535743 0)
(-1.26551 0.224826 0)
(-1.26252 -0.00167356 0)
)
;

boundaryField
{
    topWall
    {
        type            extrapolatedCalculated;
        value           nonuniform List<vector> 0();
    }
    botWall
    {
        type            extrapolatedCalculated;
        value           nonuniform List<vector> 8((-1.21728 0 0) (-1.40939 0 0) (-1.2682 0 0) (-1.25294 0 0) (-1.24848 0 0) (-1.24258 0 0) (-1.26605 0 0) (-1.09509 0 0));
    }
    inlet
    {
        type            cyclic;
    }
    outlet
    {
        type            cyclic;
    }
    fixWall
    {
        type            empty;
    }
    procBoundary0to1
    {
        type            processor;
        value           nonuniform List<vector> 8((-1.25463 -0.0207846 0) (-1.24692 0.00348796 0) (-1.22432 -0.0989197 0) (-1.24514 -0.226037 0) (-1.24574 -0.0221073 0) (-1.24611 -0.0546068 0) (-1.27531 -0.382529 0) (-1.26182 -0.106415 0));
    }
}


// ************************************************************************* //
