/*--------------------------------*- C++ -*----------------------------------*\
  =========                 |
  \\      /  F ield         | OpenFOAM: The Open Source CFD Toolbox
   \\    /   O peration     | Website:  https://openfoam.org
    \\  /    A nd           | Version:  dev
     \\/     M anipulation  |

   OpenFOAM for Windows 20.09 (v1)
   Built by CFD Support, www.cfdsupport.com (based on Symscape).
\*---------------------------------------------------------------------------*/
FoamFile
{
    version     2.0;
    format      ascii;
    class       volTensorField;
    location    "10";
    object      gradU;
}
// * * * * * * * * * * * * * * * * * * * * * * * * * * * * * * * * * * * * * //

dimensions      [0 0 -1 0 0 0 0];

internalField   nonuniform List<tensor> 
120
(
(-0.000222747 -1.32268e-06 0 6.56156 0.00108229 0 0 0 0)
(9.58077e-05 -1.19298e-05 0 6.55807 -0.000377098 0 0 0 0)
(0.000233235 1.18129e-06 0 6.57149 -0.000117741 0 0 0 0)
(-5.60177e-05 1.06098e-06 0 6.57789 -3.14097e-05 0 0 0 0)
(2.41135e-05 -3.91076e-06 0 6.06601 -9.2535e-05 0 0 0 0)
(6.97602e-05 -8.0708e-06 0 6.07312 -0.000184457 0 0 0 0)
(9.7038e-05 4.58019e-06 0 6.06301 -6.20562e-05 0 0 0 0)
(-0.000359308 6.02221e-06 0 6.05647 0.000200603 0 0 0 0)
(0.00023525 -3.70557e-06 0 5.57093 -0.000314718 0 0 0 0)
(4.57354e-05 -1.14218e-05 0 5.57482 -2.20499e-05 0 0 0 0)
(-4.42608e-05 7.59895e-06 0 5.56736 0.000110504 0 0 0 0)
(-0.00067744 1.15229e-05 0 5.55811 0.000498706 0 0 0 0)
(0.000392193 -1.92994e-06 0 5.10279 -0.000542085 0 0 0 0)
(1.02533e-05 -9.83768e-07 0 5.10404 1.59351e-05 0 0 0 0)
(-0.000181516 1.32594e-05 0 5.098 0.000251817 0 0 0 0)
(-0.000980613 1.75306e-05 0 5.0882 0.000804154 0 0 0 0)
(0.000509264 1.35427e-06 0 4.66162 -0.000563804 0 0 0 0)
(-3.41032e-05 1.80988e-06 0 4.66118 4.64574e-05 0 0 0 0)
(-0.000308265 2.07359e-05 0 4.65582 0.000374105 0 0 0 0)
(-0.00124624 2.35669e-05 0 4.64678 0.00107398 0 0 0 0)
(0.000592158 6.00478e-06 0 4.24745 -0.00060082 0 0 0 0)
(-8.63687e-05 1.4648e-05 0 4.24594 9.76473e-05 0 0 0 0)
(-0.00042164 3.03849e-05 0 4.24088 0.000488956 0 0 0 0)
(-0.00146861 2.96501e-05 0 4.23306 0.00129698 0 0 0 0)
(0.000648355 1.20758e-05 0 3.85953 -0.000598938 0 0 0 0)
(-0.000143482 1.99728e-05 0 3.85769 0.000154942 0 0 0 0)
(-0.000522903 4.07248e-05 0 3.85297 0.000584698 0 0 0 0)
(-0.00164598 3.54119e-05 0 3.84639 0.001475 0 0 0 0)
(0.000683012 1.93254e-05 0 3.49739 -0.000765292 0 0 0 0)
(-0.000195767 3.43753e-05 0 3.49581 0.000214053 0 0 0 0)
(-0.000610014 5.23858e-05 0 3.49134 0.000675974 0 0 0 0)
(-0.00178475 4.10562e-05 0 3.48591 0.00161338 0 0 0 0)
(0.000703889 2.75407e-05 0 3.16059 -0.000657694 0 0 0 0)
(-0.000244338 4.39939e-05 0 3.15956 0.000262208 0 0 0 0)
(-0.000687892 6.40468e-05 0 3.15529 0.000746565 0 0 0 0)
(-0.00188434 4.61649e-05 0 3.15083 0.00171088 0 0 0 0)
(0.000711288 3.65572e-05 0 2.84829 -0.000800835 0 0 0 0)
(-0.000284098 5.77796e-05 0 2.84805 0.000302716 0 0 0 0)
(-0.000755428 7.65303e-05 0 2.84412 0.000818276 0 0 0 0)
(-0.0019539 5.11306e-05 0 2.84027 0.0017889 0 0 0 0)
(0.000709704 4.58172e-05 0 2.55989 -0.000671572 0 0 0 0)
(-0.000313947 7.09791e-05 0 2.56039 0.00034429 0 0 0 0)
(-0.000817465 8.88166e-05 0 2.55667 0.000874918 0 0 0 0)
(-0.00199267 5.53429e-05 0 2.5533 0.00181937 0 0 0 0)
(0.000699362 5.56854e-05 0 2.29456 -0.000831163 0 0 0 0)
(-0.000337744 8.35544e-05 0 2.29564 0.000295711 0 0 0 0)
(-0.000873554 0.000101115 0 2.29174 0.000935438 0 0 0 0)
(-0.00200677 5.93352e-05 0 2.28874 0.00183289 0 0 0 0)
(0.000686642 6.39616e-05 0 2.05121 -0.000716719 0 0 0 0)
(-0.000360996 0.000100422 0 2.05284 0.000353252 0 0 0 0)
(-0.000932503 0.000114436 0 2.0489 0.000986753 0 0 0 0)
(-0.00198917 6.29184e-05 0 2.04618 0.00183284 0 0 0 0)
(0.000673668 7.427e-05 0 1.82874 -0.000623756 0 0 0 0)
(-0.000376152 0.000111946 0 1.83104 0.000432075 0 0 0 0)
(-0.000984498 0.000125775 0 1.82762 0.00105807 0 0 0 0)
(-0.00195963 6.60533e-05 0 1.82462 0.00177571 0 0 0 0)
(0.000668446 8.40894e-05 0 1.62611 -0.000694282 0 0 0 0)
(-0.000379609 0.000128453 0 1.62896 0.00044907 0 0 0 0)
(-0.00103943 0.00013683 0 1.62654 0.00111001 0 0 0 0)
(-0.00191893 6.595e-05 0 1.62292 0.0017688 0 0 0 0)
(-0.000139794 7.22097e-08 0 6.54657 0.00030725 0 0 0 0)
(0.000104922 -7.92658e-07 0 6.54558 -0.000211275 0 0 0 0)
(0.000129305 6.91802e-08 0 6.57037 -8.95114e-05 0 0 0 0)
(-0.000144712 1.16615e-05 0 6.56999 -6.30922e-05 0 0 0 0)
(-0.000398689 -3.06996e-06 0 6.02572 0.000565657 0 0 0 0)
(0.000291723 -5.82003e-06 0 6.02826 -0.000408881 0 0 0 0)
(0.000277538 2.40053e-06 0 6.04824 -0.000237685 0 0 0 0)
(-2.1761e-06 7.86863e-06 0 6.04564 -4.14833e-05 0 0 0 0)
(-0.000609979 -1.00858e-05 0 5.53008 0.000801007 0 0 0 0)
(0.000480232 -1.41817e-05 0 5.53552 -0.000607033 0 0 0 0)
(0.000418991 6.19248e-06 0 5.5528 -0.00038362 0 0 0 0)
(0.000151473 1.40806e-05 0 5.55274 -0.000140899 0 0 0 0)
(-0.000775178 -2.14989e-05 0 5.06388 0.00097446 0 0 0 0)
(0.000670366 -2.55638e-05 0 5.07061 -0.000804512 0 0 0 0)
(0.000564502 1.01694e-05 0 5.08581 -0.00052997 0 0 0 0)
(0.000299994 9.017e-06 0 5.0876 -0.000287656 0 0 0 0)
(-0.000903084 -3.68969e-05 0 4.62654 0.00110127 0 0 0 0)
(0.000845766 -3.92555e-05 0 4.63323 -0.000979653 0 0 0 0)
(0.000702085 1.48067e-05 0 4.64649 -0.000669581 0 0 0 0)
(0.000434581 1.38787e-05 0 4.64918 -0.000429626 0 0 0 0)
(-0.00100093 -5.57262e-05 0 4.2169 0.00119965 0 0 0 0)
(0.00100272 -5.50781e-05 0 4.22294 -0.0011367 0 0 0 0)
(0.000830411 1.93365e-05 0 4.23448 -0.000796707 0 0 0 0)
(0.000552253 1.07799e-05 0 4.23759 -0.000545643 0 0 0 0)
(-0.00107183 -7.74583e-05 0 3.834 0.00126906 0 0 0 0)
(0.00113871 -7.25282e-05 0 3.83907 -0.00127051 0 0 0 0)
(0.000946379 2.46577e-05 0 3.84914 -0.000914437 0 0 0 0)
(0.000650749 1.71435e-05 0 3.85224 -0.000644297 0 0 0 0)
(-0.00112292 -0.000101485 0 3.47703 0.00132116 0 0 0 0)
(0.00125512 -9.14698e-05 0 3.48105 -0.00138949 0 0 0 0)
(0.00104992 2.97735e-05 0 3.48978 -0.00101363 0 0 0 0)
(0.000725401 1.60383e-05 0 3.49248 -0.000713842 0 0 0 0)
(-0.00115292 -0.000127506 0 3.14514 0.00135103 0 0 0 0)
(0.00135115 -0.000111441 0 3.14808 -0.00148352 0 0 0 0)
(0.00113692 3.59184e-05 0 3.15562 -0.001107 0 0 0 0)
(0.000777529 2.12825e-05 0 3.15786 -0.000771696 0 0 0 0)
(-0.00116875 -0.000154725 0 2.83762 0.00136895 0 0 0 0)
(0.00142977 -0.000132437 0 2.83954 -0.00156087 0 0 0 0)
(0.00121289 4.16372e-05 0 2.8459 -0.00117601 0 0 0 0)
(0.000808228 2.35268e-05 0 2.8477 -0.000793874 0 0 0 0)
(-0.00116509 -0.000183336 0 2.5535 0.00136719 0 0 0 0)
(0.00148917 -0.000153857 0 2.5544 -0.00161827 0 0 0 0)
(0.00127285 4.87017e-05 0 2.55954 -0.00124582 0 0 0 0)
(0.000817452 2.75354e-05 0 2.5611 -0.000803405 0 0 0 0)
(-0.00115042 -0.000212019 0 2.29195 0.00138997 0 0 0 0)
(0.00153046 -0.000175987 0 2.29212 -0.00160674 0 0 0 0)
(0.00132462 5.52183e-05 0 2.29572 -0.00124857 0 0 0 0)
(0.000814055 3.30975e-05 0 2.29703 -0.000792952 0 0 0 0)
(-0.00110875 -0.000240663 0 2.05173 0.00138983 0 0 0 0)
(0.001552 -0.000197833 0 2.05131 -0.00152764 0 0 0 0)
(0.00135461 6.22649e-05 0 2.05333 -0.00125255 0 0 0 0)
(0.000798169 3.44922e-05 0 2.05438 -0.000761822 0 0 0 0)
(-0.00106492 -0.000268027 0 1.83183 0.00123996 0 0 0 0)
(0.00155715 -0.000220027 0 1.83163 -0.00176795 0 0 0 0)
(0.00137575 6.7982e-05 0 1.8317 -0.00139769 0 0 0 0)
(0.000778633 4.2028e-05 0 1.83213 -0.000775595 0 0 0 0)
(-0.000991876 -0.000299724 0 1.63097 0.00114252 0 0 0 0)
(0.00154974 -0.000241794 0 1.63176 -0.00185189 0 0 0 0)
(0.00136286 7.88042e-05 0 1.63088 -0.00140195 0 0 0 0)
(0.000748793 4.73911e-05 0 1.63039 -0.000761974 0 0 0 0)
)
;

boundaryField
{
    topWall
    {
        type            extrapolatedCalculated;
        value           nonuniform List<tensor> 0();
    }
    botWall
    {
        type            extrapolatedCalculated;
        value           nonuniform List<tensor> 8((-0.000222747 -1.32268e-06 0 6.80273 0.00278733 0 0 0 0) (9.58077e-05 -1.19298e-05 0 6.7871 -0.000412517 0 0 0 0) (0.000233235 1.18129e-06 0 6.82573 -7.58144e-05 0 0 0 0) (-5.60177e-05 1.06098e-06 0 6.84308 -0.000129009 0 0 0 0) (-0.000139794 7.22097e-08 0 6.81228 0.000178821 0 0 0 0) (0.000104922 -7.92658e-07 0 6.80953 -0.000111679 0 0 0 0) (0.000129305 6.91802e-08 0 6.83747 -1.14172e-05 0 0 0 0) (-0.000144712 1.16615e-05 0 6.84056 -9.50753e-05 0 0 0 0));
    }
    inlet
    {
        type            cyclic;
    }
    outlet
    {
        type            cyclic;
    }
    fixWall
    {
        type            empty;
    }
    procBoundary0to1
    {
        type            processor;
        value           nonuniform List<tensor> 8((0.000649818 9.4454e-05 0 1.44215 -0.00059019 0 0 0 0) (-0.00036903 0.000142017 0 1.44601 0.000458783 0 0 0 0) (-0.0010852 0.00014777 0 1.44302 0.00112133 0 0 0 0) (-0.00188566 6.65952e-05 0 1.43978 0.00176146 0 0 0 0) (-0.000917506 -0.000328371 0 1.44892 0.00108625 0 0 0 0) (0.00155555 -0.000262435 0 1.44903 -0.00172763 0 0 0 0) (0.00135288 8.61472e-05 0 1.44818 -0.00135918 0 0 0 0) (0.000699144 5.38226e-05 0 1.447 -0.00074342 0 0 0 0));
    }
}


// ************************************************************************* //
