/*--------------------------------*- C++ -*----------------------------------*\
  =========                 |
  \\      /  F ield         | OpenFOAM: The Open Source CFD Toolbox
   \\    /   O peration     | Website:  https://openfoam.org
    \\  /    A nd           | Version:  dev
     \\/     M anipulation  |

   OpenFOAM for Windows 20.09 (v1)
   Built by CFD Support, www.cfdsupport.com (based on Symscape).
\*---------------------------------------------------------------------------*/
FoamFile
{
    version     2.0;
    format      ascii;
    class       volScalarField;
    location    "10";
    object      k;
}
// * * * * * * * * * * * * * * * * * * * * * * * * * * * * * * * * * * * * * //

dimensions      [0 2 -2 0 0 0 0];

internalField   nonuniform List<scalar> 
120
(
2.22045e-16
2.22045e-16
2.22045e-16
2.22045e-16
2.22045e-16
2.22045e-16
2.22045e-16
2.22045e-16
2.22045e-16
2.22045e-16
2.22045e-16
2.22045e-16
2.22045e-16
2.22045e-16
2.22045e-16
2.22045e-16
2.22045e-16
2.22045e-16
2.22045e-16
2.22045e-16
2.22045e-16
2.22045e-16
2.22045e-16
2.22045e-16
2.22829e-16
2.22045e-16
2.22045e-16
2.22045e-16
3.60646e-16
3.58776e-16
3.56475e-16
3.55347e-16
5.53992e-16
5.51064e-16
5.47465e-16
5.45703e-16
8.13822e-16
8.09484e-16
8.04153e-16
8.01544e-16
1.15244e-15
1.14628e-15
1.1387e-15
1.13499e-15
1.58361e-15
1.57512e-15
1.56469e-15
1.55959e-15
2.12271e-15
2.11133e-15
2.09734e-15
2.0905e-15
2.78697e-15
2.77204e-15
2.75367e-15
2.7447e-15
3.59572e-15
3.57647e-15
3.55278e-15
3.54123e-15
2.22045e-16
2.22045e-16
2.22045e-16
2.22045e-16
2.22045e-16
2.22045e-16
2.22045e-16
2.22045e-16
2.22045e-16
2.22045e-16
2.22045e-16
2.22045e-16
2.22045e-16
2.22045e-16
2.22045e-16
2.22045e-16
2.22045e-16
2.22045e-16
2.22045e-16
2.22045e-16
2.22045e-16
2.22045e-16
2.22045e-16
2.22045e-16
2.22045e-16
2.22045e-16
2.22863e-16
2.23265e-16
3.55978e-16
3.586e-16
3.60707e-16
3.61385e-16
5.46691e-16
5.50785e-16
5.54083e-16
5.55147e-16
8.03008e-16
8.09058e-16
8.13942e-16
8.15528e-16
1.13707e-15
1.14565e-15
1.15259e-15
1.15486e-15
1.56245e-15
1.57422e-15
1.58378e-15
1.58694e-15
2.09434e-15
2.11007e-15
2.12289e-15
2.12717e-15
2.74973e-15
2.77031e-15
2.78714e-15
2.79281e-15
3.54772e-15
3.57415e-15
3.59584e-15
3.60325e-15
)
;

boundaryField
{
    topWall
    {
        type            kqRWallFunction;
        value           nonuniform List<scalar> 0();
    }
    botWall
    {
        type            kqRWallFunction;
        value           uniform 2.22045e-16;
    }
    inlet
    {
        type            cyclic;
    }
    outlet
    {
        type            cyclic;
    }
    fixWall
    {
        type            empty;
    }
    procBoundary0to1
    {
        type            processor;
        value           nonuniform List<scalar> 8(4.57086e-15 4.54642e-15 4.51632e-15 4.50168e-15 4.50991e-15 4.54334e-15 4.57088e-15 4.58041e-15);
    }
}


// ************************************************************************* //
