/*--------------------------------*- C++ -*----------------------------------*\
  =========                 |
  \\      /  F ield         | OpenFOAM: The Open Source CFD Toolbox
   \\    /   O peration     | Website:  https://openfoam.org
    \\  /    A nd           | Version:  dev
     \\/     M anipulation  |

   OpenFOAM for Windows 20.09 (v1)
   Built by CFD Support, www.cfdsupport.com (based on Symscape).
\*---------------------------------------------------------------------------*/
FoamFile
{
    version     2.0;
    format      ascii;
    class       volScalarField;
    location    "10";
    object      nut;
}
// * * * * * * * * * * * * * * * * * * * * * * * * * * * * * * * * * * * * * //

dimensions      [0 2 -1 0 0 0 0];

internalField   nonuniform List<scalar> 
120
(
2.5539e-21
2.5539e-21
2.5539e-21
2.5539e-21
1.4809e-20
1.48091e-20
1.48091e-20
1.48091e-20
4.35166e-20
4.35171e-20
4.3517e-20
4.3517e-20
9.25985e-20
9.26001e-20
9.25998e-20
9.25997e-20
1.64168e-19
1.64172e-19
1.64171e-19
1.6417e-19
2.58152e-19
2.58158e-19
2.58156e-19
2.58154e-19
3.75905e-19
3.74589e-19
3.74586e-19
3.74583e-19
8.33973e-19
8.29663e-19
8.24337e-19
8.21717e-19
1.68356e-18
1.67469e-18
1.66374e-18
1.65835e-18
3.14653e-18
3.12978e-18
3.10915e-18
3.09899e-18
5.52518e-18
5.49562e-18
5.45927e-18
5.44133e-18
9.22047e-18
9.17103e-18
9.11029e-18
9.08024e-18
1.47532e-17
1.4674e-17
1.45768e-17
1.45286e-17
2.27885e-17
2.26662e-17
2.25162e-17
2.24417e-17
3.4165e-17
3.39818e-17
3.37571e-17
3.36454e-17
2.5539e-21
2.5539e-21
2.5539e-21
2.5539e-21
1.48091e-20
1.48091e-20
1.48091e-20
1.48091e-20
4.35169e-20
4.3517e-20
4.3517e-20
4.35171e-20
9.25996e-20
9.26001e-20
9.26e-20
9.26002e-20
1.6417e-19
1.64172e-19
1.64172e-19
1.64172e-19
2.58154e-19
2.58159e-19
2.58158e-19
2.58158e-19
3.74582e-19
3.74593e-19
3.75972e-19
3.7665e-19
8.23174e-19
8.29273e-19
8.34137e-19
8.35702e-19
1.66135e-18
1.67389e-18
1.68388e-18
1.68711e-18
3.10464e-18
3.12826e-18
3.14708e-18
3.15317e-18
5.45129e-18
5.49292e-18
5.52604e-18
5.53683e-18
9.0969e-18
9.16646e-18
9.22172e-18
9.23987e-18
1.45553e-17
1.46666e-17
1.47549e-17
1.47841e-17
2.24829e-17
2.26546e-17
2.27906e-17
2.28361e-17
3.37074e-17
3.39642e-17
3.41675e-17
3.42363e-17
)
;

boundaryField
{
    topWall
    {
        type            nutkWallFunction;
        Cmu             0.09;
        kappa           0.41;
        E               9.8;
        value           nonuniform List<scalar> 0();
    }
    botWall
    {
        type            nutkWallFunction;
        Cmu             0.09;
        kappa           0.41;
        E               9.8;
        value           uniform 0;
    }
    inlet
    {
        type            cyclic;
    }
    outlet
    {
        type            cyclic;
    }
    fixWall
    {
        type            empty;
    }
    procBoundary0to1
    {
        type            processor;
        value           nonuniform List<scalar> 8(4.99093e-17 4.96423e-17 4.93149e-17 4.91519e-17 4.92423e-17 4.96162e-17 4.99119e-17 5.0013e-17);
    }
}


// ************************************************************************* //
