/*--------------------------------*- C++ -*----------------------------------*\
  =========                 |
  \\      /  F ield         | OpenFOAM: The Open Source CFD Toolbox
   \\    /   O peration     | Website:  https://openfoam.org
    \\  /    A nd           | Version:  dev
     \\/     M anipulation  |

   OpenFOAM for Windows 20.09 (v1)
   Built by CFD Support, www.cfdsupport.com (based on Symscape).
\*---------------------------------------------------------------------------*/
FoamFile
{
    version     2.0;
    format      ascii;
    class       volScalarField;
    location    "10";
    object      omega;
}
// * * * * * * * * * * * * * * * * * * * * * * * * * * * * * * * * * * * * * //

dimensions      [0 0 -1 0 0 0 0];

internalField   nonuniform List<scalar> 
120
(
86943.4
86943.4
86943.4
86943.4
14993.9
14993.8
14993.8
14993.8
5102.52
5102.47
5102.48
5102.48
2397.93
2397.89
2397.89
2397.9
1352.54
1352.52
1352.52
1352.53
860.133
860.113
860.118
860.123
592.782
592.769
592.773
592.779
432.443
432.435
432.438
432.444
329.059
329.055
329.057
329.064
258.641
258.64
258.641
258.647
208.58
208.58
208.581
208.587
171.749
171.75
171.75
171.757
143.882
143.883
143.882
143.889
122.297
122.298
122.297
122.304
105.246
105.247
105.245
105.252
86943.4
86943.4
86943.4
86943.4
14993.8
14993.8
14993.8
14993.8
5102.49
5102.48
5102.47
5102.47
2397.9
2397.89
2397.89
2397.89
1352.53
1352.51
1352.52
1352.51
860.125
860.108
860.111
860.11
592.78
592.762
592.765
592.766
432.446
432.427
432.431
432.433
329.065
329.045
329.05
329.053
258.648
258.628
258.634
258.638
208.587
208.568
208.574
208.578
171.757
171.737
171.745
171.749
143.888
143.87
143.877
143.882
122.303
122.285
122.293
122.298
105.25
105.233
105.241
105.246
)
;

boundaryField
{
    topWall
    {
        beta1           0.075;
        blended         0;
        type            omegaWallFunction;
        value           nonuniform List<scalar> 0();
    }
    botWall
    {
        beta1           0.075;
        blended         0;
        type            omegaWallFunction;
        value           nonuniform List<scalar> 8(86943.4 86943.4 86943.4 86943.4 86943.4 86943.4 86943.4 86943.4);
    }
    inlet
    {
        type            cyclic;
    }
    outlet
    {
        type            cyclic;
    }
    fixWall
    {
        type            empty;
    }
    procBoundary0to1
    {
        type            processor;
        value           nonuniform List<scalar> 8(91.5832 91.5836 91.5813 91.5871 91.5861 91.5697 91.5791 91.5844);
    }
}


// ************************************************************************* //
