/*--------------------------------*- C++ -*----------------------------------*\
  =========                 |
  \\      /  F ield         | OpenFOAM: The Open Source CFD Toolbox
   \\    /   O peration     | Website:  https://openfoam.org
    \\  /    A nd           | Version:  dev
     \\/     M anipulation  |

   OpenFOAM for Windows 20.09 (v1)
   Built by CFD Support, www.cfdsupport.com (based on Symscape).
\*---------------------------------------------------------------------------*/
FoamFile
{
    version     2.0;
    format      ascii;
    class       volScalarField;
    location    "10";
    object      p;
}
// * * * * * * * * * * * * * * * * * * * * * * * * * * * * * * * * * * * * * //

dimensions      [1 -1 -2 0 0 0 0];

internalField   nonuniform List<scalar> 
120
(
0
-0.0756004
-0.140924
-0.202416
-0.0987731
-0.161429
-0.223209
-0.284202
-0.180502
-0.243178
-0.304958
-0.365951
-0.262201
-0.324892
-0.386706
-0.447701
-0.343983
-0.406643
-0.468476
-0.52945
-0.42573
-0.488433
-0.550226
-0.611199
-0.507456
-0.570183
-0.63197
-0.692946
-0.589187
-0.651934
-0.713719
-0.774698
-0.670919
-0.733684
-0.795468
-0.856448
-0.752636
-0.81542
-0.87721
-0.938197
-0.834381
-0.897185
-0.958959
-1.01995
-0.916114
-0.978937
-1.04069
-1.10168
-0.997816
-1.06069
-1.12244
-1.18343
-1.07953
-1.14244
-1.20415
-1.26515
-1.16127
-1.22418
-1.2859
-1.3469
-0.266217
-0.327264
-0.390476
-0.453869
-0.348012
-0.409026
-0.472264
-0.535628
-0.429741
-0.490751
-0.554014
-0.617386
-0.511523
-0.572516
-0.635764
-0.699136
-0.593273
-0.654265
-0.717514
-0.780886
-0.675022
-0.736014
-0.799264
-0.862635
-0.756772
-0.817763
-0.881015
-0.944384
-0.838522
-0.899511
-0.962765
-1.02613
-0.920268
-0.981259
-1.04452
-1.10788
-1.00202
-1.06301
-1.12627
-1.18963
-1.08377
-1.14475
-1.20801
-1.27138
-1.16552
-1.2265
-1.28976
-1.35314
-1.24727
-1.30823
-1.37152
-1.43488
-1.32901
-1.38999
-1.45327
-1.51663
-1.41077
-1.47175
-1.53502
-1.5983
)
;

boundaryField
{
    topWall
    {
        type            calculated;
        value           nonuniform List<scalar> 0();
    }
    botWall
    {
        type            calculated;
        value           nonuniform List<scalar> 8(0.04089 -0.0347218 -0.100049 -0.161541 -0.225342 -0.286389 -0.349601 -0.412994);
    }
    inlet
    {
        type            cyclic;
    }
    outlet
    {
        type            cyclic;
    }
    fixWall
    {
        type            empty;
    }
    procBoundary0to1
    {
        type            processor;
        value           nonuniform List<scalar> 8(-1.24257 -1.30559 -1.36728 -1.42804 -1.49179 -1.55261 -1.61641 -1.68013);
    }
}


// ************************************************************************* //
