/*--------------------------------*- C++ -*----------------------------------*\
  =========                 |
  \\      /  F ield         | OpenFOAM: The Open Source CFD Toolbox
   \\    /   O peration     | Website:  https://openfoam.org
    \\  /    A nd           | Version:  dev
     \\/     M anipulation  |

   OpenFOAM for Windows 20.09 (v1)
   Built by CFD Support, www.cfdsupport.com (based on Symscape).
\*---------------------------------------------------------------------------*/
FoamFile
{
    version     2.0;
    format      ascii;
    class       volScalarField;
    location    "10";
    object      p_rgh;
}
// * * * * * * * * * * * * * * * * * * * * * * * * * * * * * * * * * * * * * //

dimensions      [1 -1 -2 0 0 0 0];

internalField   nonuniform List<scalar> 
120
(
0.04089
-0.0347218
-0.100049
-0.161541
0.0238522
-0.0388035
-0.100584
-0.161577
0.0238725
-0.0388032
-0.100583
-0.161576
0.0239236
-0.0387668
-0.100581
-0.161576
0.0238919
-0.0387683
-0.100602
-0.161575
0.0238948
-0.038808
-0.100601
-0.161574
0.0239189
-0.0388084
-0.100595
-0.161571
0.0239377
-0.0388092
-0.100594
-0.161573
0.023956
-0.0388099
-0.100593
-0.161573
0.0239881
-0.038796
-0.100585
-0.161572
0.0239932
-0.0388113
-0.100585
-0.161571
0.0240103
-0.0388122
-0.100563
-0.161555
0.0240587
-0.0388131
-0.100562
-0.161555
0.0240902
-0.0388125
-0.100527
-0.161522
0.0241077
-0.0388046
-0.100522
-0.161517
-0.225342
-0.286389
-0.349601
-0.412994
-0.225387
-0.286401
-0.349638
-0.413003
-0.225366
-0.286376
-0.349639
-0.413011
-0.225398
-0.286391
-0.349639
-0.413011
-0.225398
-0.28639
-0.349639
-0.413011
-0.225397
-0.286389
-0.349639
-0.41301
-0.225397
-0.286388
-0.34964
-0.413009
-0.225397
-0.286386
-0.34964
-0.413008
-0.225393
-0.286384
-0.34964
-0.413007
-0.225399
-0.286381
-0.349641
-0.413004
-0.225399
-0.286379
-0.34964
-0.413002
-0.225391
-0.286376
-0.349637
-0.413012
-0.225392
-0.286355
-0.349644
-0.41301
-0.225387
-0.28637
-0.349645
-0.413005
-0.225391
-0.286371
-0.34964
-0.412922
)
;

boundaryField
{
    topWall
    {
        type            zeroGradient;
    }
    botWall
    {
        type            zeroGradient;
    }
    inlet
    {
        type            fixedJump;
        patchType       cyclic;
        jump            uniform -0.5;
        value           nonuniform List<scalar> 
15
(
0.0555931
0.0555427
0.0555246
0.0554991
0.0554955
0.0554921
0.0554747
0.0554648
0.0554549
0.0554424
0.0554407
0.0554564
0.0554307
0.0554248
0.063948
)
;
    }
    outlet
    {
        type            fixedJump;
        patchType       cyclic;
        value           nonuniform List<scalar> 
15
(
-0.444407
-0.444457
-0.444475
-0.444501
-0.444505
-0.444508
-0.444525
-0.444535
-0.444545
-0.444558
-0.444559
-0.444544
-0.444569
-0.444575
-0.436052
)
;
    }
    fixWall
    {
        type            empty;
    }
    procBoundary0to1
    {
        type            processor;
        value           nonuniform List<scalar> 8(0.0245473 -0.0384707 -0.100145 -0.160902 -0.224659 -0.285477 -0.34927 -0.413008);
    }
}


// ************************************************************************* //
