/*--------------------------------*- C++ -*----------------------------------*\
  =========                 |
  \\      /  F ield         | OpenFOAM: The Open Source CFD Toolbox
   \\    /   O peration     | Website:  https://openfoam.org
    \\  /    A nd           | Version:  dev
     \\/     M anipulation  |

   OpenFOAM for Windows 20.09 (v1)
   Built by CFD Support, www.cfdsupport.com (based on Symscape).
\*---------------------------------------------------------------------------*/
FoamFile
{
    version     2.0;
    format      ascii;
    class       surfaceScalarField;
    location    "10";
    object      phi;
}
// * * * * * * * * * * * * * * * * * * * * * * * * * * * * * * * * * * * * * //

dimensions      [0 3 -1 0 0 0 0];

internalField   nonuniform List<scalar> 
217
(
2.34697e-09
3.24567e-11
2.36661e-09
-1.96246e-11
2.37252e-09
-5.91182e-12
-1.32411e-12
2.37386e-09
6.7518e-09
3.13757e-11
6.75436e-09
-2.21496e-11
6.75567e-09
-7.25809e-12
6.57815e-12
6.7478e-09
1.07897e-08
2.12582e-11
1.07911e-08
-2.35596e-11
1.07866e-08
-2.7252e-12
2.76573e-11
1.07655e-08
1.44919e-08
4.76093e-12
1.4492e-08
-2.35901e-11
1.44817e-08
7.56348e-12
6.13804e-11
1.4448e-08
1.78777e-08
-1.67389e-11
1.7876e-08
-2.18256e-11
1.78603e-08
2.3244e-11
1.06103e-10
1.78156e-08
2.09662e-08
-4.18794e-11
2.09621e-08
-1.77182e-11
2.09418e-08
4.35459e-11
1.60112e-10
2.08878e-08
2.37761e-08
-6.93872e-11
2.37695e-08
-1.11468e-11
2.3745e-08
6.79676e-11
2.21603e-10
2.36835e-08
2.63255e-08
-9.8427e-11
2.63167e-08
-2.34953e-12
2.62886e-08
9.60333e-11
2.88809e-10
2.62214e-08
2.86325e-08
-1.28419e-10
2.86217e-08
8.52627e-12
2.85903e-08
1.27315e-10
3.60188e-10
2.85189e-08
3.07147e-08
-1.59061e-10
3.07019e-08
2.14235e-11
3.06678e-08
1.61266e-10
4.34413e-10
3.05936e-08
3.25884e-08
-1.89527e-10
3.25745e-08
3.53453e-11
3.25378e-08
1.97906e-10
5.10286e-10
3.2462e-08
3.42704e-08
-2.19621e-10
3.42554e-08
5.03744e-11
3.42165e-08
2.36709e-10
5.86895e-10
3.414e-08
3.57761e-08
-2.49256e-10
3.57602e-08
6.63491e-11
3.57186e-08
2.78262e-10
6.62489e-10
3.5643e-08
3.71206e-08
-2.78557e-10
3.71037e-08
8.32822e-11
3.70603e-08
3.21629e-10
7.36991e-10
3.69858e-08
3.83179e-08
3.83008e-08
3.8255e-08
3.81823e-08
2.36232e-09
1.14969e-11
2.37034e-09
-8.00311e-12
2.3738e-09
-3.42876e-12
-3.71314e-12
6.72304e-09
3.62246e-11
6.74064e-09
-2.56376e-11
6.75081e-09
-1.35534e-11
-3.67649e-12
1.07319e-08
6.98542e-11
1.07573e-08
-5.11697e-11
1.07735e-08
-2.96548e-11
-9.81827e-12
1.44074e-08
1.10375e-10
1.44409e-08
-8.46658e-11
1.4463e-08
-5.1729e-11
-2.22856e-11
1.77697e-08
1.5625e-10
1.78104e-08
-1.25467e-10
1.78384e-08
-7.95846e-11
-4.01878e-11
2.08378e-08
2.06214e-10
2.08851e-08
-1.72805e-10
2.09184e-08
-1.12813e-10
-6.28633e-11
2.36307e-08
2.59078e-10
2.36836e-08
-2.25788e-10
2.37218e-08
-1.50844e-10
-8.96745e-11
2.61663e-08
3.14141e-10
2.62242e-08
-2.8364e-10
2.62666e-08
-1.93195e-10
-1.19543e-10
2.84627e-08
3.70446e-10
2.85245e-08
-3.45491e-10
2.85706e-08
-2.39178e-10
-1.5153e-10
3.05366e-08
4.27483e-10
3.06018e-08
-4.10633e-10
3.0651e-08
-2.88355e-10
-1.84649e-10
3.24051e-08
4.84356e-10
3.24727e-08
-4.78249e-10
3.25245e-08
-3.40097e-10
-2.18103e-10
3.40837e-08
5.40623e-10
3.41532e-08
-5.47674e-10
3.4207e-08
-3.93951e-10
-2.51416e-10
3.55885e-08
5.95181e-10
3.56588e-08
-6.17966e-10
3.57139e-08
-4.49067e-10
-2.84041e-10
3.69331e-08
6.47943e-10
3.70036e-08
-6.88516e-10
3.70596e-08
-5.05137e-10
-3.157e-10
3.81325e-08
3.82032e-08
3.82575e-08
)
;

boundaryField
{
    topWall
    {
        type            calculated;
        value           nonuniform List<scalar> 0();
    }
    botWall
    {
        type            calculated;
        value           uniform 0;
    }
    inlet
    {
        type            cyclic;
        value           nonuniform List<scalar> 
15
(
-3.82889e-08
-3.70913e-08
-3.57465e-08
-3.42403e-08
-3.2558e-08
-3.06841e-08
-2.86025e-08
-2.62965e-08
-2.37485e-08
-2.09411e-08
-1.78562e-08
-1.44754e-08
-1.07796e-08
-6.75074e-09
-2.37751e-09
)
;
    }
    outlet
    {
        type            cyclic;
        value           nonuniform List<scalar> 
15
(
3.82889e-08
3.70913e-08
3.57465e-08
3.42403e-08
3.2558e-08
3.06841e-08
2.86025e-08
2.62965e-08
2.37485e-08
2.09411e-08
1.78562e-08
1.44754e-08
1.07796e-08
6.75074e-09
2.37751e-09
)
;
    }
    fixWall
    {
        type            empty;
        value           nonuniform List<scalar> 0();
    }
    procBoundary0to1
    {
        type            processor;
        value           nonuniform List<scalar> 8(-3.07846e-10 9.96948e-11 3.69083e-10 8.09962e-10 6.9996e-10 -7.58399e-10 -5.61032e-10 -3.47193e-10);
    }
}


// ************************************************************************* //
