/*--------------------------------*- C++ -*----------------------------------*\
  =========                 |
  \\      /  F ield         | OpenFOAM: The Open Source CFD Toolbox
   \\    /   O peration     | Website:  https://openfoam.org
    \\  /    A nd           | Version:  dev
     \\/     M anipulation  |

   OpenFOAM for Windows 20.09 (v1)
   Built by CFD Support, www.cfdsupport.com (based on Symscape).
\*---------------------------------------------------------------------------*/
FoamFile
{
    version     2.0;
    format      ascii;
    class       volSymmTensorField;
    location    "10";
    object      R;
}
// * * * * * * * * * * * * * * * * * * * * * * * * * * * * * * * * * * * * * //

dimensions      [0 2 -2 0 0 0 0];

internalField   nonuniform List<symmTensor> 
120
(
(1.4803e-16 -1.67576e-20 -0 1.4803e-16 -0 1.4803e-16)
(1.4803e-16 -1.67486e-20 -0 1.4803e-16 -0 1.4803e-16)
(1.4803e-16 -1.67829e-20 -0 1.4803e-16 -0 1.4803e-16)
(1.4803e-16 -1.67993e-20 -0 1.4803e-16 -0 1.4803e-16)
(1.4803e-16 -8.98316e-20 -0 1.4803e-16 -0 1.4803e-16)
(1.4803e-16 -8.99372e-20 -0 1.4803e-16 -0 1.4803e-16)
(1.4803e-16 -8.97876e-20 -0 1.4803e-16 -0 1.4803e-16)
(1.4803e-16 -8.96908e-20 -0 1.4803e-16 -0 1.4803e-16)
(1.4803e-16 -2.42428e-19 -0 1.4803e-16 -0 1.4803e-16)
(1.4803e-16 -2.42599e-19 -0 1.4803e-16 -0 1.4803e-16)
(1.4803e-16 -2.42275e-19 -0 1.4803e-16 -0 1.4803e-16)
(1.4803e-16 -2.41873e-19 -0 1.4803e-16 -0 1.4803e-16)
(1.4803e-16 -4.72511e-19 -0 1.4803e-16 -0 1.4803e-16)
(1.4803e-16 -4.72634e-19 -0 1.4803e-16 -0 1.4803e-16)
(1.4803e-16 -4.72076e-19 -0 1.4803e-16 -0 1.4803e-16)
(1.4803e-16 -4.71167e-19 -0 1.4803e-16 -0 1.4803e-16)
(1.4803e-16 -7.6529e-19 -0 1.4803e-16 -0 1.4803e-16)
(1.4803e-16 -7.65234e-19 -0 1.4803e-16 -0 1.4803e-16)
(1.4803e-16 -7.64354e-19 -0 1.4803e-16 -0 1.4803e-16)
(1.4803e-16 -7.62866e-19 -0 1.48029e-16 -0 1.4803e-16)
(1.48029e-16 -1.09649e-18 -0 1.4803e-16 -0 1.4803e-16)
(1.4803e-16 -1.09613e-18 -0 1.4803e-16 -0 1.4803e-16)
(1.4803e-16 -1.09482e-18 -0 1.48029e-16 -0 1.4803e-16)
(1.4803e-16 -1.09279e-18 -0 1.48029e-16 -0 1.4803e-16)
(1.48552e-16 -1.45082e-18 -0 1.48553e-16 -0 1.48553e-16)
(1.4803e-16 -1.44506e-18 -0 1.4803e-16 -0 1.4803e-16)
(1.4803e-16 -1.44328e-18 -0 1.48029e-16 -0 1.4803e-16)
(1.48031e-16 -1.44081e-18 -0 1.48029e-16 -0 1.4803e-16)
(2.40429e-16 -2.91674e-18 -0 2.40432e-16 -0 2.40431e-16)
(2.39184e-16 -2.90038e-18 -0 2.39183e-16 -0 2.39184e-16)
(2.37651e-16 -2.87808e-18 -0 2.37649e-16 -0 2.3765e-16)
(2.36901e-16 -2.86447e-18 -0 2.36895e-16 -0 2.36898e-16)
(3.69326e-16 -5.32111e-18 -0 3.6933e-16 -0 3.69328e-16)
(3.67377e-16 -5.29134e-18 -0 3.67375e-16 -0 3.67376e-16)
(3.64979e-16 -5.24969e-18 -0 3.64974e-16 -0 3.64977e-16)
(3.63808e-16 -5.22526e-18 -0 3.63796e-16 -0 3.63802e-16)
(5.42543e-16 -8.96235e-18 -0 5.42553e-16 -0 5.42548e-16)
(5.39658e-16 -8.91393e-18 -0 5.39654e-16 -0 5.39656e-16)
(5.36107e-16 -8.84302e-18 -0 5.36097e-16 -0 5.36102e-16)
(5.34375e-16 -8.80212e-18 -0 5.34352e-16 -0 5.34363e-16)
(7.68287e-16 -1.41441e-17 -0 7.68302e-16 -0 7.68295e-16)
(7.64187e-16 -1.40713e-17 -0 7.6418e-16 -0 7.64184e-16)
(7.59141e-16 -1.3958e-17 -0 7.59122e-16 -0 7.59132e-16)
(7.56681e-16 -1.38936e-17 -0 7.56639e-16 -0 7.56659e-16)
(1.05573e-15 -2.11575e-17 -0 1.05576e-15 -0 1.05574e-15)
(1.05009e-15 -2.10542e-17 -0 1.05008e-15 -0 1.05008e-15)
(1.04314e-15 -2.08793e-17 -0 1.04311e-15 -0 1.04313e-15)
(1.03976e-15 -2.07829e-17 -0 1.03969e-15 -0 1.03973e-15)
(1.41512e-15 -3.02627e-17 -0 1.41516e-15 -0 1.41514e-15)
(1.40757e-15 -3.01248e-17 -0 1.40755e-15 -0 1.40756e-15)
(1.39825e-15 -2.98681e-17 -0 1.3982e-15 -0 1.39823e-15)
(1.39372e-15 -2.97291e-17 -0 1.39361e-15 -0 1.39367e-15)
(1.85795e-15 -4.16758e-17 -0 1.85801e-15 -0 1.85798e-15)
(1.84804e-15 -4.15052e-17 -0 1.84801e-15 -0 1.84803e-15)
(1.83582e-15 -4.11538e-17 -0 1.83573e-15 -0 1.83578e-15)
(1.82988e-15 -4.0949e-17 -0 1.82972e-15 -0 1.8298e-15)
(2.3971e-15 -5.55589e-17 -0 2.39719e-15 -0 2.39715e-15)
(2.38434e-15 -5.53593e-17 -0 2.38429e-15 -0 2.38432e-15)
(2.36859e-15 -5.49118e-17 -0 2.36844e-15 -0 2.36852e-15)
(2.36095e-15 -5.46059e-17 -0 2.3607e-15 -0 2.36082e-15)
(1.4803e-16 -1.67193e-20 -0 1.4803e-16 -0 1.4803e-16)
(1.4803e-16 -1.67167e-20 -0 1.4803e-16 -0 1.4803e-16)
(1.4803e-16 -1.67801e-20 -0 1.4803e-16 -0 1.4803e-16)
(1.4803e-16 -1.67791e-20 -0 1.4803e-16 -0 1.4803e-16)
(1.4803e-16 -8.92352e-20 -0 1.4803e-16 -0 1.4803e-16)
(1.4803e-16 -8.92729e-20 -0 1.4803e-16 -0 1.4803e-16)
(1.4803e-16 -8.95689e-20 -0 1.4803e-16 -0 1.4803e-16)
(1.4803e-16 -8.95305e-20 -0 1.4803e-16 -0 1.4803e-16)
(1.4803e-16 -2.40652e-19 -0 1.4803e-16 -0 1.4803e-16)
(1.4803e-16 -2.40889e-19 -0 1.4803e-16 -0 1.4803e-16)
(1.4803e-16 -2.41642e-19 -0 1.4803e-16 -0 1.4803e-16)
(1.4803e-16 -2.4164e-19 -0 1.4803e-16 -0 1.4803e-16)
(1.4803e-16 -4.68911e-19 -0 1.4803e-16 -0 1.4803e-16)
(1.4803e-16 -4.69537e-19 -0 1.4803e-16 -0 1.4803e-16)
(1.4803e-16 -4.70947e-19 -0 1.4803e-16 -0 1.4803e-16)
(1.4803e-16 -4.71113e-19 -0 1.4803e-16 -0 1.4803e-16)
(1.4803e-16 -7.59534e-19 -0 1.48029e-16 -0 1.4803e-16)
(1.48029e-16 -7.60639e-19 -0 1.4803e-16 -0 1.4803e-16)
(1.4803e-16 -7.62824e-19 -0 1.4803e-16 -0 1.4803e-16)
(1.4803e-16 -7.63267e-19 -0 1.4803e-16 -0 1.4803e-16)
(1.4803e-16 -1.08859e-18 -0 1.48029e-16 -0 1.4803e-16)
(1.48029e-16 -1.09017e-18 -0 1.4803e-16 -0 1.4803e-16)
(1.48029e-16 -1.09317e-18 -0 1.4803e-16 -0 1.4803e-16)
(1.48029e-16 -1.09397e-18 -0 1.4803e-16 -0 1.4803e-16)
(1.48031e-16 -1.43612e-18 -0 1.48029e-16 -0 1.4803e-16)
(1.48029e-16 -1.43806e-18 -0 1.48031e-16 -0 1.4803e-16)
(1.48575e-16 -1.44718e-18 -0 1.48576e-16 -0 1.48575e-16)
(1.48843e-16 -1.45095e-18 -0 1.48844e-16 -0 1.48843e-16)
(2.37321e-16 -2.86212e-18 -0 2.37317e-16 -0 2.37319e-16)
(2.39064e-16 -2.88666e-18 -0 2.39069e-16 -0 2.39066e-16)
(2.40469e-16 -2.91098e-18 -0 2.40473e-16 -0 2.40471e-16)
(2.40922e-16 -2.91869e-18 -0 2.40924e-16 -0 2.40923e-16)
(3.64464e-16 -5.22497e-18 -0 3.64456e-16 -0 3.64461e-16)
(3.67185e-16 -5.26935e-18 -0 3.67195e-16 -0 3.6719e-16)
(3.69385e-16 -5.31377e-18 -0 3.69392e-16 -0 3.69388e-16)
(3.70095e-16 -5.32768e-18 -0 3.701e-16 -0 3.70098e-16)
(5.35346e-16 -8.80928e-18 -0 5.35331e-16 -0 5.35339e-16)
(5.39363e-16 -8.88242e-18 -0 5.39381e-16 -0 5.39372e-16)
(5.42621e-16 -8.95639e-18 -0 5.42636e-16 -0 5.42628e-16)
(5.4368e-16 -8.97934e-18 -0 5.4369e-16 -0 5.43685e-16)
(7.5806e-16 -1.39188e-17 -0 7.58033e-16 -0 7.58048e-16)
(7.63748e-16 -1.40303e-17 -0 7.63782e-16 -0 7.63764e-16)
(7.68379e-16 -1.41444e-17 -0 7.68407e-16 -0 7.68393e-16)
(7.69899e-16 -1.41805e-17 -0 7.69917e-16 -0 7.69908e-16)
(1.04166e-15 -2.08477e-17 -0 1.04161e-15 -0 1.04164e-15)
(1.04945e-15 -2.1009e-17 -0 1.04951e-15 -0 1.04948e-15)
(1.05583e-15 -2.1171e-17 -0 1.05588e-15 -0 1.05585e-15)
(1.05794e-15 -2.12245e-17 -0 1.05797e-15 -0 1.05796e-15)
(1.39626e-15 -2.98601e-17 -0 1.39619e-15 -0 1.39623e-15)
(1.40667e-15 -3.00828e-17 -0 1.40676e-15 -0 1.40672e-15)
(1.41522e-15 -3.02975e-17 -0 1.4153e-15 -0 1.41526e-15)
(1.41809e-15 -3.03727e-17 -0 1.41813e-15 -0 1.41811e-15)
(1.83321e-15 -4.1179e-17 -0 1.8331e-15 -0 1.83316e-15)
(1.8468e-15 -4.149e-17 -0 1.84695e-15 -0 1.84687e-15)
(1.85803e-15 -4.17471e-17 -0 1.85815e-15 -0 1.85809e-15)
(1.86184e-15 -4.18397e-17 -0 1.86191e-15 -0 1.86188e-15)
(2.36521e-15 -5.49657e-17 -0 2.36507e-15 -0 2.36515e-15)
(2.38266e-15 -5.54133e-17 -0 2.38289e-15 -0 2.38276e-15)
(2.39713e-15 -5.57257e-17 -0 2.39732e-15 -0 2.39723e-15)
(2.40211e-15 -5.58201e-17 -0 2.40222e-15 -0 2.40216e-15)
)
;

boundaryField
{
    topWall
    {
        type            kqRWallFunction;
        value           nonuniform List<symmTensor> 0();
    }
    botWall
    {
        type            kqRWallFunction;
        value           uniform (1.4803e-16 -0 -0 1.4803e-16 -0 1.4803e-16);
    }
    inlet
    {
        type            cyclic;
    }
    outlet
    {
        type            cyclic;
    }
    fixWall
    {
        type            empty;
    }
    procBoundary0to1
    {
        type            processor;
        value           nonuniform List<symmTensor> 8((3.04718e-15 -7.19816e-17 -0 3.0473e-15 -0 3.04724e-15) (3.03099e-15 -7.17904e-17 -0 3.0309e-15 -0 3.03095e-15) (3.01099e-15 -7.11696e-17 -0 3.01077e-15 -0 3.01088e-15) (3.0013e-15 -7.0771e-17 -0 3.00094e-15 -0 3.00111e-15) (3.0067e-15 -7.13321e-17 -0 3.00651e-15 -0 3.00661e-15) (3.02874e-15 -7.18826e-17 -0 3.02906e-15 -0 3.02889e-15) (3.04712e-15 -7.22858e-17 -0 3.04739e-15 -0 3.04725e-15) (3.05353e-15 -7.23713e-17 -0 3.05368e-15 -0 3.0536e-15));
    }
}


// ************************************************************************* //
