/*--------------------------------*- C++ -*----------------------------------*\
  =========                 |
  \\      /  F ield         | OpenFOAM: The Open Source CFD Toolbox
   \\    /   O peration     | Website:  https://openfoam.org
    \\  /    A nd           | Version:  dev
     \\/     M anipulation  |

   OpenFOAM for Windows 20.09 (v1)
   Built by CFD Support, www.cfdsupport.com (based on Symscape).
\*---------------------------------------------------------------------------*/
FoamFile
{
    version     2.0;
    format      ascii;
    class       volVectorField;
    location    "10";
    object      U;
}
// * * * * * * * * * * * * * * * * * * * * * * * * * * * * * * * * * * * * * //

dimensions      [0 1 -1 0 0 0 0];

internalField   nonuniform List<vector> 
120
(
(0.00283447 1.16139e-06 0)
(0.00282796 -1.71882e-07 0)
(0.00284405 -3.15893e-08 0)
(0.00285128 -5.37537e-08 0)
(0.00810146 6.42434e-07 0)
(0.00810216 -4.56615e-07 0)
(0.00810844 -1.64646e-07 0)
(0.00811186 1.40425e-09 0)
(0.0129445 1.00716e-06 0)
(0.0129498 -4.79311e-07 0)
(0.0129491 -1.35016e-07 0)
(0.0129454 2.80584e-07 0)
(0.0173863 1.17905e-07 0)
(0.0173935 -4.93365e-07 0)
(0.0173874 1.95279e-08 0)
(0.0173754 8.3258e-07 0)
(0.0214492 1.0369e-07 0)
(0.0214566 -4.52752e-07 0)
(0.0214457 2.84678e-07 0)
(0.0214257 1.62084e-06 0)
(0.0251557 -8.21768e-07 0)
(0.0251622 -4.15936e-07 0)
(0.0251471 6.43036e-07 0)
(0.02512 2.62255e-06 0)
(0.0285282 -8.97677e-07 0)
(0.0285331 -2.90007e-07 0)
(0.0285139 1.0996e-06 0)
(0.0284808 3.78247e-06 0)
(0.0315883 -1.82e-06 0)
(0.0315917 -1.577e-07 0)
(0.0315687 1.61753e-06 0)
(0.0315307 5.08088e-06 0)
(0.0343572 -2.17316e-06 0)
(0.0343595 6.67491e-08 0)
(0.0343328 2.22623e-06 0)
(0.0342907 6.47143e-06 0)
(0.0368559 -2.91615e-06 0)
(0.0368576 2.79313e-07 0)
(0.0368275 2.86181e-06 0)
(0.036782 7.93234e-06 0)
(0.0391044 -3.50789e-06 0)
(0.0391062 5.71276e-07 0)
(0.039073 3.59002e-06 0)
(0.0390245 9.45293e-06 0)
(0.0411224 -4.03544e-06 0)
(0.0411249 8.5313e-07 0)
(0.0410886 4.32e-06 0)
(0.0410375 1.09646e-05 0)
(0.0429286 -4.89316e-06 0)
(0.0429323 1.06413e-06 0)
(0.0428925 5.14908e-06 0)
(0.042839 1.25078e-05 0)
(0.0445411 -5.22997e-06 0)
(0.0445463 1.44188e-06 0)
(0.0445035 5.96459e-06 0)
(0.0444478 1.40194e-05 0)
(0.0459765 -5.93275e-06 0)
(0.045984 1.78425e-06 0)
(0.0459386 6.91253e-06 0)
(0.0458801 1.54673e-05 0)
(0.00283845 7.45086e-08 0)
(0.0028373 -4.65327e-08 0)
(0.00284894 -4.75719e-09 0)
(0.00285023 -3.96147e-08 0)
(0.00807251 4.37575e-07 0)
(0.00807199 -3.05592e-07 0)
(0.00810168 -1.44429e-07 0)
(0.00809975 -6.5539e-08 0)
(0.0128813 1.01727e-06 0)
(0.0128844 -7.28001e-07 0)
(0.0129293 -4.00899e-07 0)
(0.0129263 -1.08754e-07 0)
(0.0172893 1.77259e-06 0)
(0.0172979 -1.31731e-06 0)
(0.0173563 -7.83795e-07 0)
(0.0173543 -3.00371e-07 0)
(0.0213211 2.64137e-06 0)
(0.0213354 -2.06885e-06 0)
(0.0214057 -1.28418e-06 0)
(0.0214056 -5.8818e-07 0)
(0.0250002 3.60805e-06 0)
(0.0250199 -2.95007e-06 0)
(0.0251005 -1.89976e-06 0)
(0.025103 -1.01641e-06 0)
(0.0283493 4.64079e-06 0)
(0.0283737 -3.96336e-06 0)
(0.0284632 -2.61203e-06 0)
(0.0284683 -1.49758e-06 0)
(0.0313902 5.72315e-06 0)
(0.0314184 -5.06759e-06 0)
(0.0315157 -3.42383e-06 0)
(0.0315234 -2.09024e-06 0)
(0.0341443 6.84272e-06 0)
(0.0341754 -6.27916e-06 0)
(0.0342795 -4.30142e-06 0)
(0.0342891 -2.68732e-06 0)
(0.0366321 7.97487e-06 0)
(0.0366652 -7.54012e-06 0)
(0.0367751 -5.26883e-06 0)
(0.0367865 -3.3764e-06 0)
(0.0388737 9.12431e-06 0)
(0.038908 -8.88062e-06 0)
(0.0390226 -6.26143e-06 0)
(0.0390353 -4.01045e-06 0)
(0.040888 1.02535e-05 0)
(0.0409225 -1.02372e-05 0)
(0.041041 -7.3452e-06 0)
(0.041055 -4.71541e-06 0)
(0.0426936 1.14409e-05 0)
(0.0427282 -1.15585e-05 0)
(0.0428488 -8.34239e-06 0)
(0.0428636 -5.33203e-06 0)
(0.0443075 1.25699e-05 0)
(0.0443413 -1.27833e-05 0)
(0.0444632 -9.43278e-06 0)
(0.0444789 -5.98511e-06 0)
(0.0457467 1.35075e-05 0)
(0.0457809 -1.45051e-05 0)
(0.0459017 -1.06719e-05 0)
(0.0459172 -6.62469e-06 0)
)
;

boundaryField
{
    topWall
    {
        type            noSlip;
    }
    botWall
    {
        type            noSlip;
    }
    inlet
    {
        type            cyclic;
    }
    outlet
    {
        type            cyclic;
    }
    fixWall
    {
        type            empty;
    }
    procBoundary0to1
    {
        type            processor;
        value           nonuniform List<vector> 8((0.0472513 -6.38711e-06 0) (0.0472612 2.19033e-06 0) (0.0472144 7.8146e-06 0) (0.0471527 1.69673e-05 0) (0.0470258 1.44741e-05 0) (0.0470609 -1.58698e-05 0) (0.0471813 -1.17694e-05 0) (0.0471962 -7.25507e-06 0));
    }
}


// ************************************************************************* //
