/*--------------------------------*- C++ -*----------------------------------*\
  =========                 |
  \\      /  F ield         | OpenFOAM: The Open Source CFD Toolbox
   \\    /   O peration     | Website:  https://openfoam.org
    \\  /    A nd           | Version:  dev
     \\/     M anipulation  |

   OpenFOAM for Windows 20.09 (v1)
   Built by CFD Support, www.cfdsupport.com (based on Symscape).
\*---------------------------------------------------------------------------*/
FoamFile
{
    version     2.0;
    format      ascii;
    class       volVectorField;
    location    "10";
    object      UMean;
}
// * * * * * * * * * * * * * * * * * * * * * * * * * * * * * * * * * * * * * //

dimensions      [0 1 -1 0 0 0 0];

internalField   nonuniform List<vector> 
120
(
(0.00202463 3.33972e-06 0)
(0.00201913 -1.40644e-07 0)
(0.00203473 2.25651e-09 0)
(0.00203453 -1.81601e-08 0)
(0.00565943 -3.94537e-07 0)
(0.0056579 -5.54209e-07 0)
(0.00567446 -8.16673e-08 0)
(0.00566799 9.12644e-08 0)
(0.00888513 2.9011e-06 0)
(0.00888688 -7.52562e-07 0)
(0.008905 -8.40936e-08 0)
(0.00889159 3.46642e-07 0)
(0.0117353 2.50973e-07 0)
(0.0117393 -1.08302e-06 0)
(0.011759 -7.64858e-08 0)
(0.011739 7.56183e-07 0)
(0.0142427 1.9838e-06 0)
(0.0142489 -1.32773e-06 0)
(0.0142691 2.39278e-08 0)
(0.0142434 1.29791e-06 0)
(0.0164389 6.35528e-07 0)
(0.0164473 -1.73844e-06 0)
(0.0164674 8.67997e-08 0)
(0.0164371 1.93369e-06 0)
(0.0183542 2.24875e-06 0)
(0.0183647 -1.97935e-06 0)
(0.0183843 3.00748e-07 0)
(0.0183506 2.63778e-06 0)
(0.0200175 1.07443e-06 0)
(0.0200299 -2.44599e-06 0)
(0.020049 3.82107e-07 0)
(0.0200132 3.40331e-06 0)
(0.0214557 2.23738e-06 0)
(0.0214704 -2.66391e-06 0)
(0.0214887 6.87982e-07 0)
(0.0214516 4.17028e-06 0)
(0.0226945 1.41251e-06 0)
(0.0227111 -3.17897e-06 0)
(0.0227288 7.51111e-07 0)
(0.0226917 4.98813e-06 0)
(0.0237567 2.17288e-06 0)
(0.0237762 -3.39476e-06 0)
(0.023793 1.1278e-06 0)
(0.0237562 5.74532e-06 0)
(0.0246647 1.67868e-06 0)
(0.0246863 -3.92827e-06 0)
(0.0247022 1.12254e-06 0)
(0.0246673 6.53485e-06 0)
(0.0254369 2.1119e-06 0)
(0.0254625 -4.18405e-06 0)
(0.0254766 1.53477e-06 0)
(0.0254434 7.18261e-06 0)
(0.0260913 1.87547e-06 0)
(0.0261201 -4.64273e-06 0)
(0.026133 1.55509e-06 0)
(0.0261032 7.89802e-06 0)
(0.026643 2.179e-06 0)
(0.0266778 -5.12687e-06 0)
(0.0266884 1.80678e-06 0)
(0.0266608 8.44061e-06 0)
(0.00202636 3.86337e-08 0)
(0.00202376 -1.0062e-08 0)
(0.00203176 -4.14103e-08 0)
(0.00204044 -4.64773e-08 0)
(0.00564516 2.74801e-07 0)
(0.00564081 -9.64848e-08 0)
(0.00566043 -2.57345e-07 0)
(0.00567353 -2.09214e-07 0)
(0.00885637 5.96649e-07 0)
(0.0088521 -2.6541e-07 0)
(0.00888045 -6.25192e-07 0)
(0.00889712 -2.4504e-07 0)
(0.0116938 1.08725e-06 0)
(0.0116902 -5.05814e-07 0)
(0.0117259 -1.0612e-06 0)
(0.0117462 -4.1586e-07 0)
(0.0141907 1.54376e-06 0)
(0.0141877 -8.07281e-07 0)
(0.014229 -1.63484e-06 0)
(0.0142522 -5.25812e-07 0)
(0.0163789 2.17838e-06 0)
(0.0163761 -1.16004e-06 0)
(0.0164222 -2.19725e-06 0)
(0.0164475 -7.83285e-07 0)
(0.0182886 2.69172e-06 0)
(0.0182856 -1.53754e-06 0)
(0.0183354 -2.89969e-06 0)
(0.0183621 -9.2357e-07 0)
(0.0199487 3.42165e-06 0)
(0.0199454 -1.95542e-06 0)
(0.0199981 -3.53466e-06 0)
(0.0200253 -1.2214e-06 0)
(0.021386 3.9558e-06 0)
(0.0213824 -2.36475e-06 0)
(0.0214371 -4.30269e-06 0)
(0.0214637 -1.34752e-06 0)
(0.0226263 4.72574e-06 0)
(0.0226223 -2.82219e-06 0)
(0.0226787 -4.96764e-06 0)
(0.0227035 -1.63482e-06 0)
(0.0236924 5.26251e-06 0)
(0.0236882 -3.24836e-06 0)
(0.0237454 -5.71422e-06 0)
(0.0237673 -1.69852e-06 0)
(0.0246062 5.99913e-06 0)
(0.0246018 -3.70732e-06 0)
(0.02466 -6.3985e-06 0)
(0.0246778 -1.89636e-06 0)
(0.0253868 6.50695e-06 0)
(0.0253822 -4.16314e-06 0)
(0.0254408 -6.9707e-06 0)
(0.0254531 -1.84958e-06 0)
(0.0260521 7.16487e-06 0)
(0.0260478 -4.58931e-06 0)
(0.0261077 -7.67027e-06 0)
(0.0261129 -1.74912e-06 0)
(0.026617 7.58841e-06 0)
(0.0266134 -5.10167e-06 0)
(0.0266743 -8.13521e-06 0)
(0.0266707 -1.76315e-06 0)
)
;

boundaryField
{
    topWall
    {
        type            calculated;
        value           nonuniform List<vector> 0();
    }
    botWall
    {
        type            calculated;
        value           uniform (0 0 0);
    }
    inlet
    {
        type            cyclic;
    }
    outlet
    {
        type            cyclic;
    }
    fixWall
    {
        type            empty;
    }
    procBoundary0to1
    {
        type            processor;
        value           nonuniform List<vector> 8((0.0271067 1.96475e-06 0) (0.0271459 -5.53543e-06 0) (0.0271547 2.03264e-06 0) (0.0271318 8.88313e-06 0) (0.0270989 8.01293e-06 0) (0.0270956 -5.56327e-06 0) (0.0271571 -8.69045e-06 0) (0.0271438 -1.31409e-06 0));
    }
}


// ************************************************************************* //
