/*--------------------------------*- C++ -*----------------------------------*\
  =========                 |
  \\      /  F ield         | OpenFOAM: The Open Source CFD Toolbox
   \\    /   O peration     | Website:  https://openfoam.org
    \\  /    A nd           | Version:  dev
     \\/     M anipulation  |

   OpenFOAM for Windows 20.09 (v1)
   Built by CFD Support, www.cfdsupport.com (based on Symscape).
\*---------------------------------------------------------------------------*/
FoamFile
{
    version     2.0;
    format      ascii;
    class       volSymmTensorField;
    location    "10";
    object      UPrime2Mean;
}
// * * * * * * * * * * * * * * * * * * * * * * * * * * * * * * * * * * * * * //

dimensions      [0 2 -2 0 0 0 0];

internalField   nonuniform List<symmTensor> 
120
(
(1.67329e-07 -8.89595e-10 0 4.59106e-11 0 0)
(1.64594e-07 -3.11051e-11 0 1.17577e-14 0 0)
(1.67606e-07 3.05048e-13 0 5.89163e-16 0 0)
(1.72097e-07 -1.03426e-11 0 1.49627e-15 0 0)
(1.53856e-06 4.3836e-10 0 1.30192e-12 0 0)
(1.51897e-06 -2.24724e-11 0 8.89043e-14 0 0)
(1.51106e-06 -6.88898e-11 0 4.3141e-15 0 0)
(1.53922e-06 -1.57264e-10 0 6.15965e-14 0 0)
(4.25112e-06 -2.95725e-09 0 2.12347e-11 0 0)
(4.20292e-06 2.65715e-10 0 3.84768e-13 0 0)
(4.16702e-06 -1.70217e-10 0 1.88971e-14 0 0)
(4.23072e-06 -5.1543e-10 0 3.46807e-13 0 0)
(8.22273e-06 -9.16514e-10 0 1.68365e-12 0 0)
(8.13993e-06 1.21389e-09 0 1.28913e-12 0 0)
(8.06311e-06 -2.63508e-10 0 7.4916e-14 0 0)
(8.16477e-06 -1.05931e-09 0 9.93756e-13 0 0)
(1.33309e-05 -2.60223e-09 0 5.37462e-12 0 0)
(1.32111e-05 2.52868e-09 0 2.69853e-12 0 0)
(1.30883e-05 -3.11011e-10 0 1.74259e-13 0 0)
(1.32253e-05 -1.6749e-09 0 2.10402e-12 0 0)
(1.94329e-05 -3.39502e-09 0 7.57972e-12 0 0)
(1.92715e-05 4.76017e-09 0 5.08648e-12 0 0)
(1.9101e-05 -1.96084e-10 0 3.78081e-13 0 0)
(1.92693e-05 -2.32028e-09 0 3.64647e-12 0 0)
(2.636e-05 -6.75097e-09 0 1.26294e-11 0 0)
(2.61568e-05 7.15769e-09 0 7.79198e-12 0 0)
(2.59375e-05 -6.47139e-11 0 6.52624e-13 0 0)
(2.61319e-05 -2.80772e-09 0 5.75245e-12 0 0)
(3.39361e-05 -7.56852e-09 0 1.77979e-11 0 0)
(3.36918e-05 1.08065e-08 0 1.19457e-11 0 0)
(3.34235e-05 4.64955e-10 0 1.11231e-12 0 0)
(3.36386e-05 -3.30361e-09 0 8.31678e-12 0 0)
(4.19785e-05 -1.19124e-08 0 2.22062e-11 0 0)
(4.16974e-05 1.41881e-08 0 1.57689e-11 0 0)
(4.1377e-05 8.82464e-10 0 1.66093e-12 0 0)
(4.16069e-05 -3.40657e-09 0 1.15299e-11 0 0)
(5.03097e-05 -1.32045e-08 0 2.972e-11 0 0)
(4.9996e-05 1.91547e-08 0 2.17083e-11 0 0)
(4.96239e-05 1.99621e-09 0 2.50126e-12 0 0)
(4.98613e-05 -3.67138e-09 0 1.52271e-11 0 0)
(5.87641e-05 -1.79584e-08 0 3.50879e-11 0 0)
(5.84216e-05 2.33388e-08 0 2.62835e-11 0 0)
(5.79946e-05 2.85015e-09 0 3.42397e-12 0 0)
(5.82311e-05 -3.32161e-09 0 1.97173e-11 0 0)
(6.71858e-05 -1.9772e-08 0 4.30517e-11 0 0)
(6.68227e-05 2.94514e-08 0 3.4354e-11 0 0)
(6.63448e-05 4.73151e-09 0 4.80387e-12 0 0)
(6.65667e-05 -3.25565e-09 0 2.46354e-11 0 0)
(7.54505e-05 -2.47344e-08 0 4.95291e-11 0 0)
(7.50625e-05 3.41235e-08 0 3.98725e-11 0 0)
(7.45293e-05 6.31258e-09 0 6.26373e-12 0 0)
(7.4727e-05 -2.59953e-09 0 3.10117e-11 0 0)
(8.34446e-05 -2.6815e-08 0 5.72231e-11 0 0)
(8.30413e-05 4.06305e-08 0 4.87272e-11 0 0)
(8.24539e-05 8.85916e-09 0 8.33086e-12 0 0)
(8.26106e-05 -2.02834e-09 0 3.70235e-11 0 0)
(9.10937e-05 -3.13606e-08 0 6.46558e-11 0 0)
(9.06588e-05 4.74829e-08 0 5.76731e-11 0 0)
(9.00101e-05 1.18565e-08 0 1.06477e-11 0 0)
(9.01197e-05 -7.82754e-10 0 4.32097e-11 0 0)
(1.71436e-07 6.68997e-12 0 3.55885e-16 0 0)
(1.72935e-07 -9.99047e-12 0 1.73868e-15 0 0)
(1.71345e-07 1.96503e-11 0 3.84548e-15 0 0)
(1.68375e-07 -1.1601e-11 0 3.86193e-15 0 0)
(1.52953e-06 5.56399e-11 0 7.98741e-15 0 0)
(1.53977e-06 -1.1924e-10 0 2.27539e-14 0 0)
(1.5311e-06 2.28776e-10 0 5.82729e-14 0 0)
(1.5136e-06 1.54344e-11 0 1.91782e-13 0 0)
(4.19817e-06 2.48386e-10 0 5.0428e-14 0 0)
(4.223e-06 -3.80388e-10 0 9.31786e-14 0 0)
(4.20883e-06 7.83071e-10 0 2.55529e-13 0 0)
(4.17039e-06 -1.59735e-10 0 5.83115e-13 0 0)
(8.0942e-06 5.11262e-10 0 1.65608e-13 0 0)
(8.1394e-06 -8.73824e-10 0 2.40781e-13 0 0)
(8.12444e-06 1.62137e-09 0 6.34034e-13 0 0)
(8.06288e-06 -4.65463e-10 0 1.33528e-12 0 0)
(1.3104e-05 1.15524e-09 0 4.26692e-13 0 0)
(1.3175e-05 -1.59691e-09 0 4.68022e-13 0 0)
(1.31665e-05 2.88055e-09 0 1.34629e-12 0 0)
(1.30814e-05 -1.35061e-09 0 2.4227e-12 0 0)
(1.90892e-05 1.71636e-09 0 8.23466e-13 0 0)
(1.91911e-05 -2.69328e-09 0 8.43134e-13 0 0)
(1.91957e-05 4.19853e-09 0 2.26802e-12 0 0)
(1.90902e-05 -2.37123e-09 0 3.805e-12 0 0)
(2.58903e-05 3.02219e-09 0 1.54189e-12 0 0)
(2.6027e-05 -4.12183e-09 0 1.34463e-12 0 0)
(2.60523e-05 5.97061e-09 0 3.70939e-12 0 0)
(2.59278e-05 -4.25916e-09 0 5.62155e-12 0 0)
(3.33365e-05 3.79646e-09 0 2.33275e-12 0 0)
(3.35083e-05 -6.02959e-09 0 2.08514e-12 0 0)
(3.35614e-05 7.49321e-09 0 5.27315e-12 0 0)
(3.34217e-05 -6.07982e-09 0 7.60304e-12 0 0)
(4.1251e-05 5.81736e-09 0 3.73271e-12 0 0)
(4.14583e-05 -8.38272e-09 0 3.02806e-12 0 0)
(4.15455e-05 9.53481e-09 0 7.50815e-12 0 0)
(4.13916e-05 -8.94744e-09 0 1.0058e-11 0 0)
(4.94586e-05 6.66478e-09 0 4.92214e-12 0 0)
(4.96972e-05 -1.11678e-08 0 4.30053e-12 0 0)
(4.98235e-05 1.09825e-08 0 9.69356e-12 0 0)
(4.96625e-05 -1.1502e-08 0 1.26179e-11 0 0)
(5.77934e-05 9.2064e-09 0 7.10969e-12 0 0)
(5.80634e-05 -1.45029e-08 0 5.87482e-12 0 0)
(5.82334e-05 1.29717e-08 0 1.26123e-11 0 0)
(5.80691e-05 -1.50895e-08 0 1.52551e-11 0 0)
(6.61014e-05 1.01318e-08 0 8.74017e-12 0 0)
(6.63966e-05 -1.81507e-08 0 7.78384e-12 0 0)
(6.6613e-05 1.41342e-08 0 1.52875e-11 0 0)
(6.64571e-05 -1.83199e-08 0 1.85207e-11 0 0)
(7.42502e-05 1.2994e-08 0 1.17625e-11 0 0)
(7.45765e-05 -2.21272e-08 0 9.90708e-12 0 0)
(7.48389e-05 1.56633e-08 0 1.85872e-11 0 0)
(7.46991e-05 -2.20458e-08 0 2.09494e-11 0 0)
(8.21233e-05 1.40762e-08 0 1.38345e-11 0 0)
(8.24719e-05 -2.62482e-08 0 1.25087e-11 0 0)
(8.2777e-05 1.68367e-08 0 2.19068e-11 0 0)
(8.26689e-05 -2.63137e-08 0 2.39216e-11 0 0)
(8.96364e-05 1.60336e-08 0 1.68625e-11 0 0)
(9.00155e-05 -3.18271e-08 0 1.60367e-11 0 0)
(9.0357e-05 1.65644e-08 0 2.44708e-11 0 0)
(9.02944e-05 -3.00423e-08 0 2.5929e-11 0 0)
)
;

boundaryField
{
    topWall
    {
        type            calculated;
        value           nonuniform List<symmTensor> 0();
    }
    botWall
    {
        type            calculated;
        value           uniform (0 0 0 0 0 0);
    }
    inlet
    {
        type            cyclic;
    }
    outlet
    {
        type            cyclic;
    }
    fixWall
    {
        type            empty;
    }
    procBoundary0to1
    {
        type            processor;
        value           nonuniform List<symmTensor> 8((9.83191e-05 -3.34577e-08 0 6.97413e-11 0 0) (9.78775e-05 5.36649e-08 0 6.62392e-11 0 0) (9.71815e-05 1.50495e-08 0 1.3888e-11 0 0) (9.72079e-05 7.87621e-10 0 4.99857e-11 0 0) (9.66784e-05 1.75137e-08 0 1.94483e-11 0 0) (9.70982e-05 -3.72884e-08 0 1.9827e-11 0 0) (9.75073e-05 1.70323e-08 0 2.83872e-11 0 0) (9.74905e-05 -3.56109e-08 0 2.63255e-11 0 0));
    }
}


// ************************************************************************* //
