/*--------------------------------*- C++ -*----------------------------------*\
  =========                 |
  \\      /  F ield         | OpenFOAM: The Open Source CFD Toolbox
   \\    /   O peration     | Website:  https://openfoam.org
    \\  /    A nd           | Version:  dev
     \\/     M anipulation  |

   OpenFOAM for Windows 20.09 (v1)
   Built by CFD Support, www.cfdsupport.com (based on Symscape).
\*---------------------------------------------------------------------------*/
FoamFile
{
    version     2.0;
    format      ascii;
    class       volScalarField;
    location    "60";
    object      k;
}
// * * * * * * * * * * * * * * * * * * * * * * * * * * * * * * * * * * * * * //

dimensions      [0 2 -2 0 0 0 0];

internalField   nonuniform List<scalar> 
1600
(
0.000247179
0.000247178
0.000247177
0.000247177
0.000247176
0.000247177
0.000247177
0.000247178
0.000247178
0.000247178
0.000247178
0.000247178
0.000247177
0.000247176
0.000247176
0.000247175
0.000247175
0.000247174
0.000247174
0.000247174
0.000247174
0.000247175
0.000247175
0.000247175
0.000247175
0.000247175
0.000247175
0.000247175
0.000247175
0.000247175
0.000247176
0.000247176
0.000247176
0.000247176
0.000247176
0.000247176
0.000247176
0.000247176
0.000247176
0.000247177
0.000347709
0.000347709
0.000347708
0.000347707
0.000347708
0.000347708
0.000347709
0.00034771
0.000347711
0.000347712
0.000347712
0.000347712
0.000347711
0.00034771
0.000347709
0.000347708
0.000347707
0.000347707
0.000347707
0.000347707
0.000347707
0.000347707
0.000347707
0.000347707
0.000347707
0.000347707
0.000347707
0.000347707
0.000347707
0.000347707
0.000347707
0.000347708
0.000347708
0.000347708
0.000347708
0.000347708
0.000347708
0.000347708
0.000347708
0.000347709
0.000391621
0.00039162
0.00039162
0.00039162
0.00039162
0.000391621
0.000391622
0.000391623
0.000391624
0.000391625
0.000391625
0.000391625
0.000391625
0.000391623
0.000391622
0.00039162
0.000391619
0.000391619
0.000391619
0.000391619
0.000391619
0.000391619
0.000391619
0.000391619
0.000391619
0.000391619
0.000391619
0.000391619
0.000391619
0.000391619
0.000391619
0.000391619
0.000391619
0.000391619
0.000391619
0.000391619
0.00039162
0.00039162
0.00039162
0.000391621
0.000424284
0.000424284
0.000424284
0.000424284
0.000424284
0.000424285
0.000424287
0.000424288
0.000424289
0.00042429
0.00042429
0.00042429
0.00042429
0.000424288
0.000424286
0.000424285
0.000424283
0.000424283
0.000424282
0.000424282
0.000424282
0.000424282
0.000424282
0.000424282
0.000424282
0.000424282
0.000424283
0.000424283
0.000424283
0.000424283
0.000424283
0.000424283
0.000424283
0.000424283
0.000424283
0.000424283
0.000424283
0.000424283
0.000424283
0.000424284
0.000452241
0.00045224
0.00045224
0.00045224
0.000452241
0.000452242
0.000452243
0.000452244
0.000452246
0.000452246
0.000452247
0.000452247
0.000452247
0.000452245
0.000452243
0.000452241
0.000452239
0.000452238
0.000452238
0.000452238
0.000452238
0.000452238
0.000452238
0.000452238
0.000452238
0.000452238
0.000452238
0.000452238
0.000452238
0.000452238
0.000452238
0.000452239
0.000452239
0.000452239
0.000452239
0.000452239
0.000452239
0.000452239
0.000452239
0.00045224
0.000477494
0.000477495
0.000477495
0.000477495
0.000477496
0.000477497
0.000477498
0.000477499
0.0004775
0.000477501
0.000477502
0.000477502
0.000477501
0.0004775
0.000477497
0.000477495
0.000477493
0.000477492
0.000477492
0.000477492
0.000477492
0.000477492
0.000477492
0.000477492
0.000477492
0.000477492
0.000477492
0.000477492
0.000477492
0.000477492
0.000477492
0.000477492
0.000477492
0.000477493
0.000477493
0.000477493
0.000477493
0.000477493
0.000477493
0.000477494
0.000500884
0.000500886
0.000500887
0.000500887
0.000500888
0.000500888
0.000500889
0.00050089
0.000500891
0.000500892
0.000500893
0.000500893
0.000500893
0.000500891
0.000500888
0.000500886
0.000500884
0.000500883
0.000500882
0.000500882
0.000500882
0.000500882
0.000500882
0.000500882
0.000500882
0.000500883
0.000500883
0.000500883
0.000500883
0.000500883
0.000500883
0.000500883
0.000500883
0.000500883
0.000500883
0.000500883
0.000500883
0.000500883
0.000500883
0.000500883
0.000522817
0.00052282
0.000522821
0.000522821
0.000522821
0.000522822
0.000522822
0.000522823
0.000522824
0.000522825
0.000522825
0.000522825
0.000522825
0.000522824
0.000522821
0.000522818
0.000522816
0.000522815
0.000522814
0.000522814
0.000522814
0.000522814
0.000522814
0.000522814
0.000522814
0.000522814
0.000522814
0.000522815
0.000522815
0.000522815
0.000522815
0.000522815
0.000522815
0.000522815
0.000522815
0.000522815
0.000522815
0.000522815
0.000522815
0.000522815
0.000543495
0.000543498
0.000543498
0.000543499
0.000543499
0.000543499
0.000543499
0.0005435
0.0005435
0.000543501
0.000543501
0.000543502
0.000543501
0.0005435
0.000543497
0.000543494
0.000543492
0.00054349
0.00054349
0.00054349
0.00054349
0.00054349
0.00054349
0.00054349
0.00054349
0.00054349
0.00054349
0.00054349
0.00054349
0.000543491
0.000543491
0.000543491
0.000543491
0.000543491
0.000543491
0.000543491
0.000543491
0.000543491
0.000543491
0.000543492
0.000563006
0.000563008
0.000563009
0.000563009
0.000563008
0.000563008
0.000563009
0.000563009
0.000563009
0.00056301
0.00056301
0.000563011
0.000563011
0.000563009
0.000563006
0.000563003
0.000563001
0.000562999
0.000562999
0.000562998
0.000562999
0.000562999
0.000562999
0.000562999
0.000562999
0.000562999
0.000562999
0.000562999
0.000562999
0.000562999
0.000562999
0.000563
0.000563
0.000563
0.000563
0.000563
0.000563
0.000563
0.000563
0.000563001
0.000581366
0.000581368
0.000581368
0.000581368
0.000581368
0.000581368
0.000581368
0.000581368
0.000581369
0.000581369
0.00058137
0.00058137
0.00058137
0.000581369
0.000581366
0.000581363
0.00058136
0.000581359
0.000581358
0.000581358
0.000581358
0.000581358
0.000581358
0.000581358
0.000581358
0.000581358
0.000581358
0.000581358
0.000581359
0.000581359
0.000581359
0.000581359
0.000581359
0.000581359
0.000581359
0.000581359
0.000581359
0.000581359
0.000581359
0.000581361
0.000598543
0.000598545
0.000598545
0.000598545
0.000598545
0.000598545
0.000598545
0.000598546
0.000598546
0.000598547
0.000598548
0.000598548
0.000598548
0.000598547
0.000598544
0.000598541
0.000598538
0.000598537
0.000598536
0.000598536
0.000598536
0.000598536
0.000598536
0.000598536
0.000598536
0.000598536
0.000598536
0.000598536
0.000598537
0.000598537
0.000598537
0.000598537
0.000598537
0.000598537
0.000598537
0.000598537
0.000598537
0.000598537
0.000598537
0.000598538
0.000614468
0.000614469
0.000614469
0.000614469
0.000614469
0.000614469
0.00061447
0.000614471
0.000614471
0.000614472
0.000614473
0.000614474
0.000614474
0.000614473
0.00061447
0.000614467
0.000614464
0.000614462
0.000614461
0.000614461
0.000614461
0.000614461
0.000614461
0.000614461
0.000614462
0.000614462
0.000614462
0.000614462
0.000614462
0.000614462
0.000614463
0.000614463
0.000614463
0.000614462
0.000614463
0.000614463
0.000614463
0.000614463
0.000614463
0.000614464
0.000629037
0.000629037
0.000629038
0.000629039
0.000629039
0.000629039
0.00062904
0.000629041
0.000629042
0.000629043
0.000629044
0.000629044
0.000629044
0.000629044
0.000629041
0.000629038
0.000629035
0.000629033
0.000629032
0.000629032
0.000629032
0.000629032
0.000629032
0.000629032
0.000629032
0.000629032
0.000629033
0.000629033
0.000629033
0.000629033
0.000629033
0.000629033
0.000629033
0.000629033
0.000629033
0.000629033
0.000629033
0.000629033
0.000629033
0.000629034
0.00064212
0.000642122
0.000642123
0.000642123
0.000642124
0.000642124
0.000642125
0.000642126
0.000642127
0.000642128
0.000642129
0.00064213
0.00064213
0.000642129
0.000642127
0.000642124
0.000642122
0.00064212
0.000642118
0.000642118
0.000642118
0.000642118
0.000642118
0.000642118
0.000642118
0.000642118
0.000642119
0.000642119
0.000642119
0.000642119
0.000642119
0.000642119
0.000642119
0.000642119
0.000642119
0.000642119
0.000642119
0.000642119
0.000642119
0.000642119
0.000653568
0.000653567
0.000653567
0.000653568
0.000653568
0.000653568
0.000653569
0.00065357
0.000653571
0.000653573
0.000653574
0.000653574
0.000653575
0.000653574
0.000653572
0.000653569
0.000653567
0.000653565
0.000653563
0.000653563
0.000653563
0.000653563
0.000653563
0.000653563
0.000653563
0.000653563
0.000653563
0.000653564
0.000653564
0.000653564
0.000653564
0.000653564
0.000653564
0.000653564
0.000653564
0.000653564
0.000653564
0.000653564
0.000653564
0.000653566
0.000663192
0.00066319
0.00066319
0.00066319
0.00066319
0.000663191
0.000663191
0.000663193
0.000663194
0.000663195
0.000663196
0.000663197
0.000663197
0.000663197
0.000663195
0.000663192
0.00066319
0.000663188
0.000663186
0.000663186
0.000663186
0.000663186
0.000663186
0.000663186
0.000663186
0.000663186
0.000663186
0.000663186
0.000663186
0.000663186
0.000663186
0.000663186
0.000663186
0.000663186
0.000663186
0.000663186
0.000663186
0.000663186
0.000663187
0.00066319
0.000670783
0.000670784
0.000670785
0.000670785
0.000670785
0.000670785
0.000670786
0.000670787
0.000670788
0.000670789
0.00067079
0.000670791
0.000670791
0.000670791
0.000670789
0.000670787
0.000670785
0.000670783
0.000670781
0.00067078
0.00067078
0.00067078
0.00067078
0.00067078
0.000670781
0.000670781
0.000670781
0.000670781
0.000670781
0.000670781
0.000670781
0.000670781
0.000670781
0.000670781
0.000670781
0.000670781
0.000670781
0.000670781
0.000670781
0.000670783
0.000676118
0.000676119
0.000676119
0.000676118
0.000676118
0.000676119
0.000676119
0.00067612
0.000676121
0.000676123
0.000676124
0.000676124
0.000676125
0.000676124
0.000676123
0.000676121
0.000676118
0.000676116
0.000676115
0.000676114
0.000676114
0.000676114
0.000676114
0.000676114
0.000676114
0.000676114
0.000676114
0.000676114
0.000676114
0.000676114
0.000676114
0.000676114
0.000676114
0.000676115
0.000676115
0.000676115
0.000676115
0.000676115
0.000676115
0.000676117
0.000678931
0.000678931
0.000678931
0.000678931
0.000678931
0.000678931
0.000678932
0.000678932
0.000678934
0.000678935
0.000678936
0.000678937
0.000678937
0.000678936
0.000678935
0.000678933
0.000678931
0.000678929
0.000678927
0.000678927
0.000678927
0.000678927
0.000678927
0.000678927
0.000678927
0.000678927
0.000678927
0.000678927
0.000678927
0.000678927
0.000678927
0.000678927
0.000678927
0.000678927
0.000678927
0.000678927
0.000678927
0.000678927
0.000678927
0.00067893
0.00067893
0.000678932
0.000678932
0.000678931
0.000678931
0.000678931
0.000678932
0.000678932
0.000678933
0.000678935
0.000678936
0.000678936
0.000678936
0.000678936
0.000678935
0.000678933
0.00067893
0.000678928
0.000678927
0.000678927
0.000678926
0.000678927
0.000678927
0.000678927
0.000678927
0.000678927
0.000678927
0.000678927
0.000678927
0.000678927
0.000678927
0.000678927
0.000678927
0.000678927
0.000678927
0.000678927
0.000678927
0.000678927
0.000678927
0.000678929
0.000676121
0.00067612
0.000676119
0.000676119
0.000676118
0.000676118
0.000676119
0.00067612
0.000676121
0.000676122
0.000676123
0.000676123
0.000676124
0.000676123
0.000676122
0.000676119
0.000676117
0.000676115
0.000676114
0.000676114
0.000676114
0.000676114
0.000676114
0.000676114
0.000676114
0.000676114
0.000676114
0.000676114
0.000676114
0.000676114
0.000676114
0.000676114
0.000676114
0.000676114
0.000676114
0.000676114
0.000676114
0.000676114
0.000676115
0.000676118
0.000670786
0.000670785
0.000670784
0.000670784
0.000670784
0.000670784
0.000670785
0.000670786
0.000670787
0.000670788
0.000670789
0.000670789
0.000670789
0.000670789
0.000670787
0.000670785
0.000670783
0.000670781
0.00067078
0.000670779
0.00067078
0.00067078
0.00067078
0.00067078
0.00067078
0.00067078
0.00067078
0.00067078
0.00067078
0.00067078
0.00067078
0.00067078
0.00067078
0.00067078
0.00067078
0.00067078
0.00067078
0.00067078
0.000670781
0.000670784
0.000663189
0.000663189
0.000663189
0.000663189
0.000663189
0.00066319
0.00066319
0.000663191
0.000663192
0.000663193
0.000663194
0.000663194
0.000663194
0.000663194
0.000663192
0.000663189
0.000663187
0.000663185
0.000663184
0.000663184
0.000663184
0.000663184
0.000663185
0.000663184
0.000663185
0.000663185
0.000663185
0.000663185
0.000663185
0.000663185
0.000663185
0.000663185
0.000663185
0.000663185
0.000663185
0.000663185
0.000663185
0.000663185
0.000663185
0.000663186
0.000653567
0.000653567
0.000653567
0.000653566
0.000653566
0.000653567
0.000653567
0.000653568
0.000653568
0.000653569
0.00065357
0.000653571
0.000653571
0.00065357
0.000653568
0.000653565
0.000653563
0.000653561
0.000653561
0.00065356
0.000653561
0.000653561
0.000653561
0.000653561
0.000653561
0.000653561
0.000653561
0.000653561
0.000653561
0.000653561
0.000653561
0.000653561
0.000653561
0.000653561
0.000653561
0.000653562
0.000653562
0.000653562
0.000653562
0.000653563
0.000642121
0.000642122
0.000642121
0.000642121
0.000642121
0.000642121
0.000642121
0.000642122
0.000642123
0.000642124
0.000642124
0.000642125
0.000642125
0.000642124
0.000642121
0.000642119
0.000642116
0.000642115
0.000642114
0.000642115
0.000642115
0.000642115
0.000642115
0.000642115
0.000642115
0.000642115
0.000642115
0.000642115
0.000642115
0.000642115
0.000642115
0.000642115
0.000642115
0.000642115
0.000642116
0.000642116
0.000642116
0.000642116
0.000642116
0.000642117
0.000629034
0.000629035
0.000629035
0.000629034
0.000629034
0.000629034
0.000629035
0.000629035
0.000629036
0.000629037
0.000629037
0.000629038
0.000629038
0.000629037
0.000629034
0.000629031
0.000629029
0.000629028
0.000629027
0.000629027
0.000629028
0.000629028
0.000629028
0.000629028
0.000629028
0.000629028
0.000629028
0.000629028
0.000629028
0.000629028
0.000629028
0.000629028
0.000629028
0.000629028
0.000629029
0.000629029
0.000629029
0.000629029
0.000629029
0.00062903
0.000614462
0.000614462
0.000614462
0.000614462
0.000614462
0.000614462
0.000614462
0.000614463
0.000614464
0.000614465
0.000614465
0.000614466
0.000614466
0.000614464
0.000614462
0.000614459
0.000614457
0.000614455
0.000614455
0.000614455
0.000614455
0.000614455
0.000614456
0.000614456
0.000614456
0.000614456
0.000614456
0.000614456
0.000614456
0.000614456
0.000614456
0.000614456
0.000614456
0.000614456
0.000614456
0.000614456
0.000614456
0.000614456
0.000614457
0.000614457
0.000598534
0.000598535
0.000598535
0.000598535
0.000598535
0.000598535
0.000598535
0.000598536
0.000598537
0.000598538
0.000598539
0.000598539
0.000598539
0.000598537
0.000598535
0.000598532
0.00059853
0.000598529
0.000598529
0.000598529
0.000598529
0.000598529
0.000598529
0.000598529
0.000598529
0.000598529
0.000598529
0.000598529
0.000598529
0.000598529
0.000598529
0.000598529
0.00059853
0.00059853
0.000598529
0.00059853
0.000598529
0.000598529
0.00059853
0.00059853
0.000581354
0.000581355
0.000581355
0.000581355
0.000581355
0.000581355
0.000581356
0.000581357
0.000581358
0.000581359
0.00058136
0.00058136
0.00058136
0.000581358
0.000581355
0.000581353
0.000581351
0.00058135
0.00058135
0.000581349
0.00058135
0.00058135
0.00058135
0.00058135
0.00058135
0.00058135
0.00058135
0.00058135
0.00058135
0.00058135
0.00058135
0.00058135
0.00058135
0.00058135
0.00058135
0.00058135
0.00058135
0.00058135
0.00058135
0.000581351
0.000562992
0.000562993
0.000562993
0.000562993
0.000562993
0.000562994
0.000562995
0.000562996
0.000562997
0.000562998
0.000562999
0.000563
0.000562999
0.000562997
0.000562994
0.000562992
0.00056299
0.000562989
0.000562989
0.000562989
0.000562989
0.000562989
0.000562989
0.000562989
0.000562989
0.000562989
0.000562989
0.000562989
0.00056299
0.00056299
0.00056299
0.00056299
0.00056299
0.00056299
0.00056299
0.00056299
0.00056299
0.00056299
0.00056299
0.00056299
0.000543481
0.000543482
0.000543483
0.000543483
0.000543484
0.000543484
0.000543485
0.000543487
0.000543488
0.000543489
0.00054349
0.00054349
0.000543489
0.000543487
0.000543485
0.000543482
0.000543481
0.00054348
0.000543479
0.00054348
0.00054348
0.00054348
0.00054348
0.00054348
0.00054348
0.00054348
0.00054348
0.00054348
0.00054348
0.00054348
0.00054348
0.00054348
0.00054348
0.00054348
0.00054348
0.00054348
0.00054348
0.00054348
0.00054348
0.000543481
0.000522805
0.000522806
0.000522807
0.000522807
0.000522807
0.000522808
0.000522809
0.00052281
0.000522811
0.000522812
0.000522813
0.000522813
0.000522813
0.00052281
0.000522808
0.000522806
0.000522804
0.000522803
0.000522803
0.000522803
0.000522803
0.000522803
0.000522803
0.000522803
0.000522803
0.000522803
0.000522804
0.000522804
0.000522804
0.000522804
0.000522804
0.000522804
0.000522804
0.000522804
0.000522804
0.000522804
0.000522804
0.000522804
0.000522804
0.000522806
0.000500874
0.000500875
0.000500875
0.000500875
0.000500876
0.000500876
0.000500877
0.000500878
0.000500879
0.00050088
0.00050088
0.00050088
0.00050088
0.000500878
0.000500875
0.000500873
0.000500872
0.000500871
0.000500871
0.000500871
0.000500871
0.000500871
0.000500871
0.000500871
0.000500871
0.000500871
0.000500871
0.000500871
0.000500871
0.000500871
0.000500871
0.000500871
0.000500871
0.000500872
0.000500872
0.000500872
0.000500872
0.000500872
0.000500872
0.000500874
0.000477484
0.000477485
0.000477485
0.000477485
0.000477486
0.000477486
0.000477487
0.000477488
0.000477489
0.000477489
0.00047749
0.000477489
0.000477489
0.000477487
0.000477485
0.000477483
0.000477482
0.000477481
0.000477481
0.000477481
0.000477481
0.000477481
0.000477481
0.000477481
0.000477481
0.000477481
0.000477481
0.000477481
0.000477481
0.000477481
0.000477481
0.000477481
0.000477481
0.000477482
0.000477482
0.000477482
0.000477482
0.000477482
0.000477482
0.000477485
0.000452231
0.000452232
0.000452232
0.000452232
0.000452232
0.000452232
0.000452233
0.000452234
0.000452235
0.000452235
0.000452235
0.000452235
0.000452234
0.000452232
0.000452231
0.000452229
0.000452228
0.000452228
0.000452227
0.000452227
0.000452227
0.000452227
0.000452227
0.000452227
0.000452228
0.000452228
0.000452228
0.000452228
0.000452228
0.000452228
0.000452228
0.000452228
0.000452228
0.000452229
0.000452229
0.000452229
0.000452229
0.000452229
0.000452229
0.000452231
0.000424276
0.000424276
0.000424276
0.000424276
0.000424276
0.000424277
0.000424278
0.000424278
0.000424279
0.000424279
0.000424279
0.000424279
0.000424278
0.000424277
0.000424275
0.000424274
0.000424273
0.000424273
0.000424272
0.000424272
0.000424272
0.000424272
0.000424272
0.000424273
0.000424273
0.000424273
0.000424273
0.000424273
0.000424273
0.000424273
0.000424273
0.000424274
0.000424274
0.000424274
0.000424274
0.000424274
0.000424274
0.000424274
0.000424274
0.000424276
0.000391614
0.000391613
0.000391613
0.000391613
0.000391613
0.000391613
0.000391614
0.000391615
0.000391616
0.000391616
0.000391616
0.000391615
0.000391614
0.000391613
0.000391612
0.000391611
0.00039161
0.00039161
0.00039161
0.00039161
0.00039161
0.00039161
0.00039161
0.00039161
0.00039161
0.00039161
0.000391611
0.000391611
0.000391611
0.000391611
0.000391611
0.000391611
0.000391611
0.000391612
0.000391612
0.000391612
0.000391612
0.000391612
0.000391612
0.000391613
0.000347703
0.000347702
0.000347702
0.000347702
0.000347702
0.000347702
0.000347703
0.000347703
0.000347704
0.000347704
0.000347704
0.000347703
0.000347702
0.000347702
0.000347701
0.0003477
0.0003477
0.000347699
0.000347699
0.000347699
0.000347699
0.000347699
0.0003477
0.0003477
0.0003477
0.0003477
0.0003477
0.0003477
0.0003477
0.000347701
0.000347701
0.000347701
0.000347701
0.000347701
0.000347701
0.000347701
0.000347701
0.000347701
0.000347701
0.000347703
0.000247172
0.000247172
0.000247171
0.00024717
0.00024717
0.00024717
0.00024717
0.00024717
0.00024717
0.00024717
0.00024717
0.000247169
0.000247168
0.000247168
0.000247167
0.000247167
0.000247167
0.000247167
0.000247167
0.000247167
0.000247167
0.000247167
0.000247167
0.000247167
0.000247168
0.000247168
0.000247168
0.000247168
0.000247168
0.000247169
0.000247169
0.000247169
0.000247169
0.000247169
0.000247169
0.000247169
0.000247169
0.00024717
0.00024717
0.000247171
)
;

boundaryField
{
    bottomWall
    {
        type            kqRWallFunction;
        value           nonuniform List<scalar> 
40
(
0.000247179
0.000247178
0.000247177
0.000247177
0.000247176
0.000247177
0.000247177
0.000247178
0.000247178
0.000247178
0.000247178
0.000247178
0.000247177
0.000247176
0.000247176
0.000247175
0.000247175
0.000247174
0.000247174
0.000247174
0.000247174
0.000247175
0.000247175
0.000247175
0.000247175
0.000247175
0.000247175
0.000247175
0.000247175
0.000247175
0.000247176
0.000247176
0.000247176
0.000247176
0.000247176
0.000247176
0.000247176
0.000247176
0.000247176
0.000247177
)
;
    }
    topWall
    {
        type            kqRWallFunction;
        value           nonuniform List<scalar> 
40
(
0.000247172
0.000247172
0.000247171
0.00024717
0.00024717
0.00024717
0.00024717
0.00024717
0.00024717
0.00024717
0.00024717
0.000247169
0.000247168
0.000247168
0.000247167
0.000247167
0.000247167
0.000247167
0.000247167
0.000247167
0.000247167
0.000247167
0.000247167
0.000247167
0.000247168
0.000247168
0.000247168
0.000247168
0.000247168
0.000247169
0.000247169
0.000247169
0.000247169
0.000247169
0.000247169
0.000247169
0.000247169
0.00024717
0.00024717
0.000247171
)
;
    }
    sides1_half0
    {
        type            empty;
    }
    sides1_half1
    {
        type            empty;
    }
    sides2_half0
    {
        type            empty;
    }
    sides2_half1
    {
        type            empty;
    }
    inout1_half0
    {
        type            cyclic;
    }
    inout1_half1
    {
        type            cyclic;
    }
    inout2_half0
    {
        type            cyclic;
    }
    inout2_half1
    {
        type            cyclic;
    }
}


// ************************************************************************* //
