/*--------------------------------*- C++ -*----------------------------------*\
  =========                 |
  \\      /  F ield         | OpenFOAM: The Open Source CFD Toolbox
   \\    /   O peration     | Website:  https://openfoam.org
    \\  /    A nd           | Version:  dev
     \\/     M anipulation  |

   OpenFOAM for Windows 20.09 (v1)
   Built by CFD Support, www.cfdsupport.com (based on Symscape).
\*---------------------------------------------------------------------------*/
FoamFile
{
    version     2.0;
    format      ascii;
    class       volScalarField;
    location    "60";
    object      nut;
}
// * * * * * * * * * * * * * * * * * * * * * * * * * * * * * * * * * * * * * //

dimensions      [0 2 -1 0 0 0 0];

internalField   nonuniform List<scalar> 
1600
(
0.000165296
0.000165296
0.000165295
0.000165295
0.000165294
0.000165295
0.000165295
0.000165295
0.000165296
0.000165296
0.000165296
0.000165296
0.000165295
0.000165295
0.000165294
0.000165294
0.000165293
0.000165293
0.000165293
0.000165293
0.000165293
0.000165293
0.000165293
0.000165293
0.000165293
0.000165294
0.000165294
0.000165294
0.000165294
0.000165294
0.000165294
0.000165294
0.000165294
0.000165294
0.000165294
0.000165294
0.000165294
0.000165294
0.000165294
0.000165295
0.000478182
0.000478176
0.000478172
0.000478172
0.000478173
0.000478175
0.000478177
0.00047818
0.000478183
0.000478184
0.000478185
0.000478186
0.000478186
0.000478184
0.000478182
0.00047818
0.000478178
0.000478177
0.000478177
0.000478176
0.000478176
0.000478176
0.000478176
0.000478176
0.000478176
0.000478176
0.000478176
0.000478176
0.000478176
0.000478176
0.000478176
0.000478176
0.000478176
0.000478176
0.000478176
0.000478176
0.000478176
0.000478176
0.000478176
0.000478173
0.000776992
0.000776984
0.00077698
0.00077698
0.000776981
0.000776984
0.000776989
0.000776995
0.000777
0.000777005
0.000777008
0.00077701
0.00077701
0.000777007
0.000777003
0.000776998
0.000776994
0.000776991
0.00077699
0.00077699
0.00077699
0.00077699
0.00077699
0.00077699
0.00077699
0.00077699
0.00077699
0.00077699
0.00077699
0.00077699
0.00077699
0.00077699
0.00077699
0.00077699
0.00077699
0.00077699
0.00077699
0.000776989
0.000776989
0.000776987
0.00106755
0.00106755
0.00106754
0.00106754
0.00106754
0.00106755
0.00106756
0.00106757
0.00106758
0.00106758
0.00106759
0.00106759
0.0010676
0.00106759
0.00106758
0.00106758
0.00106757
0.00106756
0.00106756
0.00106756
0.00106756
0.00106756
0.00106756
0.00106756
0.00106756
0.00106756
0.00106756
0.00106756
0.00106756
0.00106756
0.00106756
0.00106756
0.00106756
0.00106756
0.00106756
0.00106756
0.00106756
0.00106756
0.00106756
0.00106756
0.00134342
0.00134341
0.0013434
0.0013434
0.0013434
0.00134341
0.00134343
0.00134344
0.00134346
0.00134347
0.00134347
0.00134348
0.00134349
0.00134348
0.00134347
0.00134346
0.00134345
0.00134344
0.00134344
0.00134344
0.00134344
0.00134344
0.00134344
0.00134344
0.00134344
0.00134343
0.00134343
0.00134344
0.00134344
0.00134344
0.00134344
0.00134344
0.00134344
0.00134344
0.00134344
0.00134344
0.00134343
0.00134343
0.00134343
0.00134343
0.00160061
0.00160058
0.00160057
0.00160057
0.00160058
0.0016006
0.00160062
0.00160064
0.00160066
0.00160067
0.00160068
0.00160069
0.0016007
0.00160069
0.00160067
0.00160066
0.00160064
0.00160063
0.00160063
0.00160063
0.00160063
0.00160063
0.00160063
0.00160063
0.00160063
0.00160063
0.00160063
0.00160063
0.00160063
0.00160063
0.00160063
0.00160063
0.00160063
0.00160063
0.00160063
0.00160063
0.00160063
0.00160062
0.00160062
0.00160063
0.00183741
0.0018374
0.00183739
0.00183741
0.00183742
0.00183744
0.00183747
0.0018375
0.00183751
0.00183753
0.00183754
0.00183756
0.00183756
0.00183756
0.00183753
0.00183751
0.0018375
0.00183749
0.00183748
0.00183748
0.00183748
0.00183748
0.00183748
0.00183748
0.00183748
0.00183748
0.00183748
0.00183748
0.00183748
0.00183748
0.00183748
0.00183748
0.00183748
0.00183748
0.00183747
0.00183747
0.00183747
0.00183747
0.00183747
0.00183747
0.00205369
0.00205368
0.00205368
0.00205369
0.00205371
0.00205374
0.00205377
0.00205379
0.0020538
0.00205382
0.00205383
0.00205385
0.00205386
0.00205385
0.00205382
0.0020538
0.00205378
0.00205377
0.00205376
0.00205376
0.00205376
0.00205376
0.00205376
0.00205376
0.00205376
0.00205375
0.00205375
0.00205375
0.00205376
0.00205376
0.00205376
0.00205376
0.00205376
0.00205375
0.00205375
0.00205375
0.00205374
0.00205375
0.00205374
0.00205374
0.00225006
0.00225004
0.00225002
0.00225003
0.00225004
0.00225006
0.00225008
0.00225009
0.0022501
0.00225011
0.00225012
0.00225015
0.00225017
0.00225016
0.00225012
0.0022501
0.00225008
0.00225006
0.00225006
0.00225005
0.00225005
0.00225005
0.00225005
0.00225005
0.00225004
0.00225004
0.00225004
0.00225005
0.00225005
0.00225004
0.00225004
0.00225005
0.00225005
0.00225005
0.00225004
0.00225004
0.00225004
0.00225003
0.00225003
0.00225005
0.00242753
0.00242745
0.00242739
0.00242737
0.00242736
0.00242736
0.00242737
0.00242737
0.00242738
0.00242738
0.0024274
0.00242742
0.00242745
0.00242743
0.0024274
0.00242738
0.00242735
0.00242733
0.00242732
0.00242732
0.00242732
0.00242732
0.00242731
0.00242731
0.00242731
0.00242731
0.00242731
0.00242731
0.00242731
0.00242731
0.00242732
0.00242732
0.00242732
0.00242732
0.00242731
0.00242731
0.00242731
0.0024273
0.00242731
0.00242737
0.00258694
0.00258686
0.00258678
0.00258674
0.00258672
0.00258671
0.00258671
0.00258671
0.00258671
0.00258671
0.00258673
0.00258676
0.00258678
0.00258677
0.00258674
0.00258671
0.00258669
0.00258667
0.00258666
0.00258665
0.00258665
0.00258665
0.00258664
0.00258665
0.00258664
0.00258664
0.00258664
0.00258664
0.00258664
0.00258664
0.00258665
0.00258665
0.00258665
0.00258664
0.00258664
0.00258664
0.00258663
0.00258663
0.00258664
0.00258672
0.00272938
0.00272928
0.00272919
0.00272914
0.00272912
0.00272912
0.00272911
0.00272912
0.00272913
0.00272915
0.00272917
0.00272921
0.00272922
0.00272921
0.00272918
0.00272915
0.00272912
0.00272911
0.00272909
0.00272908
0.00272908
0.00272908
0.00272908
0.00272908
0.00272907
0.00272908
0.00272907
0.00272907
0.00272907
0.00272908
0.00272908
0.00272908
0.00272907
0.00272906
0.00272907
0.00272907
0.00272907
0.00272906
0.00272907
0.00272916
0.00285573
0.00285558
0.00285551
0.00285549
0.00285548
0.00285548
0.00285549
0.00285552
0.00285556
0.00285558
0.00285561
0.00285564
0.00285566
0.00285565
0.00285562
0.00285559
0.00285556
0.00285554
0.00285552
0.00285552
0.00285551
0.00285551
0.00285551
0.00285551
0.00285551
0.0028555
0.00285551
0.00285551
0.00285551
0.00285552
0.00285551
0.0028555
0.0028555
0.00285549
0.0028555
0.0028555
0.0028555
0.0028555
0.0028555
0.00285559
0.00296651
0.00296648
0.00296647
0.00296648
0.0029665
0.00296653
0.00296657
0.00296662
0.00296667
0.0029667
0.00296673
0.00296676
0.00296678
0.00296677
0.00296675
0.00296672
0.00296668
0.00296666
0.00296664
0.00296663
0.00296663
0.00296663
0.00296663
0.00296663
0.00296663
0.00296663
0.00296664
0.00296664
0.00296664
0.00296663
0.00296663
0.00296663
0.00296662
0.00296662
0.00296662
0.00296663
0.00296663
0.00296662
0.00296662
0.0029666
0.00306267
0.00306262
0.00306262
0.00306266
0.00306269
0.00306274
0.0030628
0.00306286
0.00306291
0.00306296
0.00306299
0.00306302
0.00306304
0.00306304
0.00306302
0.00306298
0.00306295
0.00306293
0.00306291
0.0030629
0.0030629
0.0030629
0.0030629
0.0030629
0.0030629
0.0030629
0.00306291
0.0030629
0.0030629
0.0030629
0.0030629
0.00306289
0.00306289
0.00306289
0.00306289
0.00306289
0.00306289
0.00306288
0.00306288
0.00306284
0.00314428
0.0031442
0.00314419
0.0031442
0.00314424
0.00314429
0.00314437
0.00314444
0.0031445
0.00314454
0.00314458
0.00314461
0.00314464
0.00314463
0.00314461
0.00314458
0.00314455
0.00314453
0.00314451
0.0031445
0.0031445
0.00314451
0.0031445
0.0031445
0.0031445
0.0031445
0.0031445
0.0031445
0.0031445
0.0031445
0.00314449
0.0031445
0.00314449
0.00314449
0.00314449
0.00314449
0.00314448
0.00314448
0.00314447
0.00314446
0.00321111
0.00321103
0.00321102
0.00321103
0.00321105
0.00321111
0.00321118
0.00321125
0.00321131
0.00321136
0.0032114
0.00321143
0.00321145
0.00321146
0.00321144
0.00321141
0.00321138
0.00321136
0.00321134
0.00321134
0.00321134
0.00321133
0.00321133
0.00321133
0.00321133
0.00321133
0.00321133
0.00321133
0.00321133
0.00321132
0.00321132
0.00321132
0.00321132
0.00321132
0.00321132
0.00321132
0.00321131
0.0032113
0.0032113
0.00321129
0.00326275
0.00326271
0.0032627
0.0032627
0.00326271
0.00326276
0.00326283
0.0032629
0.00326295
0.003263
0.00326304
0.00326307
0.00326309
0.0032631
0.00326309
0.00326306
0.00326304
0.00326301
0.003263
0.00326299
0.00326298
0.00326298
0.00326298
0.00326298
0.00326298
0.00326298
0.00326297
0.00326298
0.00326297
0.00326297
0.00326297
0.00326297
0.00326297
0.00326297
0.00326297
0.00326296
0.00326296
0.00326295
0.00326295
0.00326293
0.00329852
0.00329849
0.00329847
0.00329846
0.00329847
0.00329851
0.00329856
0.00329862
0.00329867
0.00329872
0.00329875
0.00329878
0.0032988
0.00329882
0.0032988
0.00329877
0.00329875
0.00329873
0.00329872
0.0032987
0.0032987
0.0032987
0.00329869
0.0032987
0.0032987
0.00329869
0.00329869
0.00329869
0.0032987
0.00329869
0.00329869
0.00329869
0.00329869
0.00329869
0.00329868
0.00329868
0.00329867
0.00329867
0.00329867
0.00329867
0.00331727
0.00331723
0.00331718
0.00331717
0.00331717
0.00331719
0.00331723
0.00331728
0.00331733
0.00331737
0.0033174
0.00331743
0.00331745
0.00331746
0.00331745
0.00331742
0.0033174
0.00331738
0.00331736
0.00331735
0.00331735
0.00331735
0.00331735
0.00331735
0.00331735
0.00331735
0.00331735
0.00331735
0.00331735
0.00331735
0.00331734
0.00331734
0.00331734
0.00331733
0.00331733
0.00331733
0.00331732
0.00331732
0.00331732
0.00331734
0.00331748
0.00331733
0.00331724
0.0033172
0.00331719
0.00331719
0.00331723
0.00331728
0.00331733
0.00331737
0.0033174
0.00331743
0.00331745
0.00331746
0.00331743
0.00331741
0.00331739
0.00331737
0.00331735
0.00331735
0.00331735
0.00331734
0.00331734
0.00331734
0.00331734
0.00331734
0.00331734
0.00331734
0.00331734
0.00331733
0.00331733
0.00331732
0.00331732
0.00331732
0.00331732
0.00331732
0.00331732
0.00331732
0.00331732
0.00331739
0.00329862
0.00329854
0.0032985
0.00329849
0.00329849
0.00329853
0.00329858
0.00329863
0.00329868
0.00329872
0.00329875
0.00329878
0.0032988
0.00329879
0.00329877
0.00329875
0.00329872
0.0032987
0.00329869
0.00329869
0.00329869
0.00329868
0.00329868
0.00329868
0.00329868
0.00329869
0.00329868
0.00329868
0.00329867
0.00329867
0.00329866
0.00329866
0.00329866
0.00329866
0.00329866
0.00329866
0.00329866
0.00329866
0.00329867
0.00329869
0.0032628
0.00326272
0.00326269
0.00326269
0.00326273
0.00326278
0.00326285
0.00326291
0.00326296
0.003263
0.00326303
0.00326306
0.00326308
0.00326306
0.00326305
0.00326302
0.00326299
0.00326297
0.00326296
0.00326296
0.00326296
0.00326296
0.00326296
0.00326296
0.00326296
0.00326296
0.00326296
0.00326295
0.00326295
0.00326294
0.00326294
0.00326293
0.00326294
0.00326293
0.00326293
0.00326294
0.00326294
0.00326294
0.00326293
0.00326293
0.00321109
0.00321102
0.003211
0.00321101
0.00321104
0.00321111
0.00321119
0.00321126
0.00321131
0.00321135
0.00321139
0.00321142
0.00321142
0.00321141
0.00321139
0.00321136
0.00321134
0.00321132
0.00321131
0.00321131
0.00321131
0.0032113
0.0032113
0.00321131
0.0032113
0.0032113
0.0032113
0.0032113
0.00321129
0.00321129
0.00321129
0.00321128
0.00321128
0.00321128
0.00321129
0.00321129
0.00321128
0.00321128
0.00321128
0.00321125
0.00314426
0.00314418
0.00314416
0.00314416
0.00314419
0.00314427
0.00314435
0.00314442
0.00314448
0.00314453
0.00314456
0.00314459
0.00314459
0.00314459
0.00314456
0.00314453
0.00314451
0.00314449
0.00314448
0.00314447
0.00314447
0.00314446
0.00314447
0.00314447
0.00314447
0.00314447
0.00314447
0.00314447
0.00314446
0.00314447
0.00314446
0.00314445
0.00314445
0.00314446
0.00314446
0.00314446
0.00314445
0.00314445
0.00314444
0.00314442
0.00306268
0.00306259
0.00306256
0.00306256
0.00306259
0.00306267
0.00306275
0.00306283
0.00306289
0.00306293
0.00306297
0.003063
0.003063
0.00306299
0.00306296
0.00306293
0.0030629
0.00306288
0.00306287
0.00306287
0.00306286
0.00306286
0.00306286
0.00306287
0.00306287
0.00306288
0.00306287
0.00306287
0.00306287
0.00306286
0.00306286
0.00306286
0.00306286
0.00306286
0.00306286
0.00306286
0.00306285
0.00306284
0.00306284
0.00306282
0.00296643
0.00296633
0.00296631
0.0029663
0.00296633
0.0029664
0.00296649
0.00296656
0.00296662
0.00296667
0.00296671
0.00296674
0.00296674
0.00296672
0.00296669
0.00296666
0.00296663
0.00296662
0.00296661
0.0029666
0.0029666
0.0029666
0.0029666
0.00296661
0.00296661
0.00296661
0.00296661
0.0029666
0.0029666
0.0029666
0.00296659
0.0029666
0.0029666
0.0029666
0.00296659
0.00296659
0.00296658
0.00296658
0.00296658
0.00296656
0.00285532
0.00285522
0.0028552
0.0028552
0.00285522
0.0028553
0.00285538
0.00285545
0.00285551
0.00285555
0.00285559
0.00285562
0.00285562
0.0028556
0.00285557
0.00285554
0.00285552
0.00285551
0.0028555
0.0028555
0.00285549
0.00285549
0.0028555
0.0028555
0.0028555
0.00285549
0.00285549
0.00285548
0.00285548
0.00285548
0.00285548
0.00285548
0.00285548
0.00285547
0.00285547
0.00285547
0.00285546
0.00285547
0.00285547
0.00285545
0.0027289
0.00272881
0.00272879
0.00272879
0.00272882
0.00272889
0.00272897
0.00272903
0.00272909
0.00272913
0.00272917
0.00272919
0.00272919
0.00272917
0.00272914
0.00272912
0.0027291
0.00272909
0.00272908
0.00272908
0.00272907
0.00272908
0.00272908
0.00272908
0.00272907
0.00272906
0.00272906
0.00272906
0.00272906
0.00272906
0.00272906
0.00272906
0.00272905
0.00272905
0.00272905
0.00272905
0.00272905
0.00272905
0.00272904
0.00272903
0.00258648
0.00258641
0.0025864
0.0025864
0.00258642
0.00258649
0.00258656
0.00258662
0.00258666
0.0025867
0.00258673
0.00258676
0.00258676
0.00258674
0.00258671
0.00258669
0.00258667
0.00258666
0.00258665
0.00258665
0.00258665
0.00258665
0.00258665
0.00258664
0.00258664
0.00258663
0.00258663
0.00258663
0.00258663
0.00258663
0.00258663
0.00258663
0.00258663
0.00258662
0.00258663
0.00258663
0.00258662
0.00258662
0.00258662
0.0025866
0.00242717
0.00242713
0.00242712
0.00242712
0.00242715
0.0024272
0.00242725
0.0024273
0.00242733
0.00242736
0.00242739
0.00242742
0.00242742
0.00242741
0.00242738
0.00242735
0.00242734
0.00242733
0.00242732
0.00242732
0.00242732
0.00242732
0.00242732
0.00242732
0.00242731
0.00242731
0.00242731
0.0024273
0.0024273
0.00242731
0.0024273
0.00242731
0.0024273
0.0024273
0.0024273
0.0024273
0.0024273
0.00242729
0.00242729
0.00242728
0.00224997
0.00224996
0.00224993
0.00224993
0.00224994
0.00224997
0.00225001
0.00225004
0.00225006
0.00225009
0.00225011
0.00225013
0.00225014
0.00225013
0.0022501
0.00225008
0.00225006
0.00225005
0.00225005
0.00225005
0.00225005
0.00225005
0.00225005
0.00225004
0.00225004
0.00225003
0.00225004
0.00225004
0.00225004
0.00225004
0.00225004
0.00225004
0.00225004
0.00225003
0.00225003
0.00225003
0.00225003
0.00225002
0.00225002
0.00225002
0.00205385
0.00205379
0.00205373
0.00205371
0.00205371
0.00205371
0.00205373
0.00205375
0.00205377
0.00205378
0.0020538
0.00205382
0.00205383
0.00205382
0.00205379
0.00205378
0.00205376
0.00205375
0.00205375
0.00205375
0.00205375
0.00205375
0.00205375
0.00205374
0.00205374
0.00205374
0.00205375
0.00205374
0.00205375
0.00205375
0.00205375
0.00205374
0.00205374
0.00205374
0.00205374
0.00205374
0.00205373
0.00205373
0.00205373
0.00205378
0.0018376
0.00183755
0.0018375
0.00183747
0.00183746
0.00183746
0.00183747
0.00183747
0.00183748
0.00183749
0.00183751
0.00183753
0.00183753
0.00183752
0.0018375
0.00183749
0.00183748
0.00183747
0.00183747
0.00183747
0.00183747
0.00183746
0.00183746
0.00183746
0.00183746
0.00183746
0.00183746
0.00183747
0.00183747
0.00183747
0.00183746
0.00183746
0.00183746
0.00183746
0.00183746
0.00183746
0.00183746
0.00183745
0.00183746
0.0018375
0.00160073
0.00160069
0.00160065
0.00160063
0.00160062
0.00160062
0.00160062
0.00160063
0.00160063
0.00160064
0.00160065
0.00160066
0.00160067
0.00160066
0.00160065
0.00160063
0.00160063
0.00160062
0.00160062
0.00160062
0.00160062
0.00160062
0.00160061
0.00160062
0.00160062
0.00160062
0.00160062
0.00160062
0.00160062
0.00160062
0.00160062
0.00160061
0.00160061
0.00160061
0.00160061
0.00160061
0.00160061
0.00160061
0.00160062
0.00160065
0.00134347
0.00134345
0.00134343
0.00134343
0.00134342
0.00134342
0.00134343
0.00134343
0.00134344
0.00134344
0.00134345
0.00134346
0.00134346
0.00134345
0.00134344
0.00134343
0.00134343
0.00134342
0.00134342
0.00134342
0.00134342
0.00134342
0.00134342
0.00134342
0.00134342
0.00134342
0.00134342
0.00134342
0.00134342
0.00134342
0.00134342
0.00134342
0.00134342
0.00134342
0.00134342
0.00134342
0.00134342
0.00134342
0.00134342
0.00134344
0.00106758
0.00106756
0.00106755
0.00106755
0.00106755
0.00106755
0.00106755
0.00106756
0.00106756
0.00106757
0.00106757
0.00106757
0.00106757
0.00106757
0.00106756
0.00106756
0.00106755
0.00106755
0.00106755
0.00106755
0.00106755
0.00106755
0.00106755
0.00106755
0.00106755
0.00106755
0.00106755
0.00106755
0.00106755
0.00106755
0.00106755
0.00106755
0.00106755
0.00106755
0.00106755
0.00106755
0.00106755
0.00106755
0.00106755
0.00106755
0.000776993
0.000776983
0.000776979
0.000776978
0.000776978
0.00077698
0.000776983
0.000776986
0.000776988
0.00077699
0.000776992
0.000776992
0.000776991
0.000776988
0.000776985
0.000776982
0.00077698
0.000776978
0.000776978
0.000776978
0.000776977
0.000776977
0.000776978
0.000776978
0.000776978
0.000776978
0.000776978
0.000776978
0.000776978
0.000776978
0.000776978
0.000776978
0.000776979
0.000776979
0.000776979
0.000776979
0.000776979
0.000776979
0.000776979
0.000776975
0.000478176
0.000478171
0.000478169
0.000478169
0.000478169
0.00047817
0.000478172
0.000478173
0.000478174
0.000478175
0.000478176
0.000478175
0.000478174
0.000478173
0.000478171
0.00047817
0.000478169
0.000478168
0.000478168
0.000478168
0.000478168
0.000478168
0.000478168
0.000478168
0.000478168
0.000478168
0.000478168
0.000478168
0.000478168
0.000478169
0.000478169
0.000478169
0.000478169
0.000478169
0.000478169
0.000478169
0.000478169
0.000478169
0.000478169
0.000478166
0.000165292
0.000165291
0.000165291
0.00016529
0.00016529
0.00016529
0.00016529
0.000165291
0.000165291
0.000165291
0.00016529
0.00016529
0.000165289
0.000165289
0.000165289
0.000165288
0.000165288
0.000165288
0.000165288
0.000165288
0.000165288
0.000165288
0.000165288
0.000165288
0.000165289
0.000165289
0.000165289
0.000165289
0.000165289
0.000165289
0.000165289
0.000165289
0.00016529
0.00016529
0.00016529
0.00016529
0.00016529
0.00016529
0.00016529
0.000165291
)
;

boundaryField
{
    bottomWall
    {
        type            nutkWallFunction;
        Cmu             0.09;
        kappa           0.41;
        E               9.8;
        value           uniform 0;
    }
    topWall
    {
        type            nutkWallFunction;
        Cmu             0.09;
        kappa           0.41;
        E               9.8;
        value           uniform 0;
    }
    sides1_half0
    {
        type            empty;
    }
    sides1_half1
    {
        type            empty;
    }
    sides2_half0
    {
        type            empty;
    }
    sides2_half1
    {
        type            empty;
    }
    inout1_half0
    {
        type            cyclic;
    }
    inout1_half1
    {
        type            cyclic;
    }
    inout2_half0
    {
        type            cyclic;
    }
    inout2_half1
    {
        type            cyclic;
    }
}


// ************************************************************************* //
