/*--------------------------------*- C++ -*----------------------------------*\
  =========                 |
  \\      /  F ield         | OpenFOAM: The Open Source CFD Toolbox
   \\    /   O peration     | Website:  https://openfoam.org
    \\  /    A nd           | Version:  dev
     \\/     M anipulation  |

   OpenFOAM for Windows 20.09 (v1)
   Built by CFD Support, www.cfdsupport.com (based on Symscape).
\*---------------------------------------------------------------------------*/
FoamFile
{
    version     2.0;
    format      ascii;
    class       volScalarField;
    location    "60";
    object      p;
}
// * * * * * * * * * * * * * * * * * * * * * * * * * * * * * * * * * * * * * //

dimensions      [0 2 -2 0 0 0 0];

internalField   nonuniform List<scalar> 
1600
(
1.27727e-08
8.71014e-09
5.05936e-09
8.05233e-09
1.0707e-08
9.68265e-09
8.15518e-09
8.11761e-09
8.89156e-09
9.80839e-09
1.07073e-08
1.17701e-08
1.29902e-08
1.40515e-08
1.4531e-08
1.44069e-08
1.39434e-08
1.33776e-08
1.29456e-08
1.2665e-08
1.25134e-08
1.24347e-08
1.23985e-08
1.2383e-08
1.24144e-08
1.24275e-08
1.24982e-08
1.24645e-08
1.25998e-08
1.24651e-08
1.27395e-08
1.23958e-08
1.2786e-08
1.2257e-08
1.25372e-08
1.22038e-08
1.21179e-08
1.27207e-08
7.95145e-09
8.93314e-09
1.34819e-08
7.66956e-09
5.19672e-09
9.01731e-09
1.11471e-08
9.95883e-09
8.63653e-09
8.44149e-09
8.9945e-09
9.71135e-09
1.03967e-08
1.11785e-08
1.2248e-08
1.32683e-08
1.38169e-08
1.3875e-08
1.36207e-08
1.32472e-08
1.28934e-08
1.26563e-08
1.25143e-08
1.24373e-08
1.2398e-08
1.23855e-08
1.24154e-08
1.24261e-08
1.24988e-08
1.24692e-08
1.26094e-08
1.24866e-08
1.27501e-08
1.24581e-08
1.27642e-08
1.23199e-08
1.25529e-08
1.20632e-08
1.27253e-08
1.20594e-08
7.48306e-09
1.09708e-08
1.34527e-08
5.9522e-09
5.85165e-09
1.03351e-08
1.15648e-08
1.01501e-08
8.94291e-09
8.72431e-09
9.129e-09
9.72999e-09
1.03612e-08
1.11084e-08
1.21506e-08
1.31223e-08
1.36274e-08
1.36916e-08
1.34608e-08
1.31357e-08
1.28256e-08
1.26004e-08
1.24595e-08
1.23773e-08
1.23345e-08
1.23229e-08
1.23498e-08
1.23541e-08
1.24255e-08
1.23926e-08
1.25323e-08
1.241e-08
1.26854e-08
1.23824e-08
1.27026e-08
1.22209e-08
1.25469e-08
1.18332e-08
1.30183e-08
1.11555e-08
6.98711e-09
1.3397e-08
1.31515e-08
4.30615e-09
6.65611e-09
1.13926e-08
1.17205e-08
1.02249e-08
9.25179e-09
9.0789e-09
9.37216e-09
9.85444e-09
1.03762e-08
1.10278e-08
1.19737e-08
1.28465e-08
1.3308e-08
1.3404e-08
1.32501e-08
1.30064e-08
1.27437e-08
1.25358e-08
1.24054e-08
1.23175e-08
1.22756e-08
1.22707e-08
1.22979e-08
1.22965e-08
1.23627e-08
1.23301e-08
1.24674e-08
1.23609e-08
1.26256e-08
1.23243e-08
1.26456e-08
1.21124e-08
1.25609e-08
1.15545e-08
1.32125e-08
9.99529e-09
6.68438e-09
1.60931e-08
1.22849e-08
2.78974e-09
7.43445e-09
1.21589e-08
1.17332e-08
1.03121e-08
9.63664e-09
9.51052e-09
9.69887e-09
1.00457e-08
1.04284e-08
1.09699e-08
1.17699e-08
1.25088e-08
1.29418e-08
1.30668e-08
1.30222e-08
1.28747e-08
1.2647e-08
1.24744e-08
1.23597e-08
1.22744e-08
1.22373e-08
1.22389e-08
1.22635e-08
1.22559e-08
1.23238e-08
1.23e-08
1.24311e-08
1.23425e-08
1.25753e-08
1.22794e-08
1.25911e-08
1.20172e-08
1.2555e-08
1.1271e-08
1.32613e-08
8.80829e-09
7.00345e-09
1.87071e-08
1.08703e-08
1.62152e-09
8.25216e-09
1.27694e-08
1.17954e-08
1.05425e-08
1.011e-08
9.99479e-09
1.00784e-08
1.02866e-08
1.05372e-08
1.09558e-08
1.15649e-08
1.21666e-08
1.25704e-08
1.27349e-08
1.27934e-08
1.27167e-08
1.25484e-08
1.24197e-08
1.23169e-08
1.22408e-08
1.22142e-08
1.22155e-08
1.22291e-08
1.22435e-08
1.23033e-08
1.22816e-08
1.24121e-08
1.23236e-08
1.25125e-08
1.22307e-08
1.2522e-08
1.19162e-08
1.24994e-08
1.09992e-08
1.31645e-08
7.81859e-09
7.77786e-09
2.05902e-08
9.08842e-09
1.12545e-09
9.19695e-09
1.33527e-08
1.20512e-08
1.09543e-08
1.06314e-08
1.04843e-08
1.04628e-08
1.05445e-08
1.06887e-08
1.09663e-08
1.13867e-08
1.18635e-08
1.22211e-08
1.24199e-08
1.25498e-08
1.2549e-08
1.24461e-08
1.23477e-08
1.22552e-08
1.22055e-08
1.21981e-08
1.2189e-08
1.22193e-08
1.22385e-08
1.22798e-08
1.22766e-08
1.23836e-08
1.22837e-08
1.2433e-08
1.21758e-08
1.24223e-08
1.18008e-08
1.2388e-08
1.07605e-08
1.29906e-08
7.13606e-09
8.61478e-09
2.1221e-08
7.27471e-09
1.06416e-09
1.01667e-08
1.39571e-08
1.24695e-08
1.14271e-08
1.11063e-08
1.08953e-08
1.07783e-08
1.07675e-08
1.08415e-08
1.09949e-08
1.12653e-08
1.16103e-08
1.18978e-08
1.21244e-08
1.23062e-08
1.23678e-08
1.23103e-08
1.2242e-08
1.21922e-08
1.21828e-08
1.21785e-08
1.21801e-08
1.22094e-08
1.22094e-08
1.22682e-08
1.22736e-08
1.2326e-08
1.22314e-08
1.23581e-08
1.21101e-08
1.22956e-08
1.16828e-08
1.22364e-08
1.06078e-08
1.28094e-08
6.77512e-09
9.39352e-09
2.09722e-08
6.10774e-09
1.42529e-09
1.09182e-08
1.44297e-08
1.28051e-08
1.17289e-08
1.13835e-08
1.11248e-08
1.09524e-08
1.09153e-08
1.09652e-08
1.10535e-08
1.12092e-08
1.13888e-08
1.15965e-08
1.18552e-08
1.20597e-08
1.2152e-08
1.21703e-08
1.21534e-08
1.21332e-08
1.21419e-08
1.21577e-08
1.2174e-08
1.21638e-08
1.21853e-08
1.22643e-08
1.22463e-08
1.22775e-08
1.22088e-08
1.22914e-08
1.20271e-08
1.21623e-08
1.15797e-08
1.20937e-08
1.05679e-08
1.2642e-08
6.7142e-09
1.00753e-08
2.0347e-08
6.06722e-09
1.63508e-09
1.10276e-08
1.44582e-08
1.27624e-08
1.16669e-08
1.13465e-08
1.11145e-08
1.09719e-08
1.09841e-08
1.10652e-08
1.1149e-08
1.1187e-08
1.11992e-08
1.13435e-08
1.15988e-08
1.18122e-08
1.19652e-08
1.20548e-08
1.20573e-08
1.20488e-08
1.20895e-08
1.21367e-08
1.21302e-08
1.21328e-08
1.21826e-08
1.22399e-08
1.22299e-08
1.22616e-08
1.21999e-08
1.22142e-08
1.19421e-08
1.20373e-08
1.14998e-08
1.19854e-08
1.0601e-08
1.24907e-08
6.96021e-09
1.09487e-08
2.04716e-08
6.96193e-09
1.50812e-09
1.04771e-08
1.39898e-08
1.23564e-08
1.13058e-08
1.10817e-08
1.09427e-08
1.09085e-08
1.09968e-08
1.11579e-08
1.12637e-08
1.11627e-08
1.10575e-08
1.11453e-08
1.13712e-08
1.16084e-08
1.18084e-08
1.19169e-08
1.19467e-08
1.19846e-08
1.2042e-08
1.20855e-08
1.20878e-08
1.21252e-08
1.21817e-08
1.22139e-08
1.22191e-08
1.22515e-08
1.21613e-08
1.21259e-08
1.18698e-08
1.19195e-08
1.14487e-08
1.19034e-08
1.06641e-08
1.23745e-08
7.48377e-09
1.20624e-08
2.14755e-08
8.19169e-09
1.43028e-09
9.66199e-09
1.33372e-08
1.18799e-08
1.08874e-08
1.0764e-08
1.07847e-08
1.08917e-08
1.10517e-08
1.12741e-08
1.13448e-08
1.11286e-08
1.09439e-08
1.09854e-08
1.11986e-08
1.14417e-08
1.16429e-08
1.17737e-08
1.18603e-08
1.19384e-08
1.19878e-08
1.20141e-08
1.20713e-08
1.21332e-08
1.21628e-08
1.21893e-08
1.2199e-08
1.22041e-08
1.2091e-08
1.20315e-08
1.18116e-08
1.18362e-08
1.14304e-08
1.18401e-08
1.07445e-08
1.22955e-08
8.14295e-09
1.30061e-08
2.2356e-08
9.08986e-09
1.36069e-09
8.93379e-09
1.28534e-08
1.15866e-08
1.06233e-08
1.06291e-08
1.08239e-08
1.10214e-08
1.12036e-08
1.13957e-08
1.13797e-08
1.10975e-08
1.08619e-08
1.08698e-08
1.10635e-08
1.12836e-08
1.14776e-08
1.16428e-08
1.17833e-08
1.18841e-08
1.19242e-08
1.19767e-08
1.20651e-08
1.21264e-08
1.21443e-08
1.21635e-08
1.21556e-08
1.21171e-08
1.202e-08
1.19612e-08
1.17698e-08
1.17807e-08
1.14364e-08
1.17772e-08
1.08309e-08
1.22238e-08
8.73833e-09
1.35527e-08
2.25916e-08
9.31515e-09
1.56596e-09
8.65663e-09
1.27343e-08
1.16345e-08
1.06993e-08
1.08019e-08
1.10919e-08
1.12661e-08
1.13928e-08
1.14951e-08
1.14095e-08
1.10963e-08
1.08334e-08
1.08061e-08
1.09483e-08
1.11269e-08
1.13176e-08
1.15308e-08
1.17179e-08
1.18128e-08
1.18741e-08
1.19693e-08
1.20451e-08
1.20974e-08
1.2125e-08
1.21263e-08
1.20861e-08
1.20574e-08
1.19801e-08
1.19042e-08
1.17371e-08
1.17394e-08
1.14481e-08
1.16922e-08
1.08773e-08
1.20939e-08
9.12948e-09
1.34997e-08
2.17136e-08
9.14348e-09
2.12439e-09
8.7257e-09
1.28577e-08
1.19682e-08
1.10735e-08
1.11682e-08
1.14274e-08
1.15427e-08
1.15879e-08
1.15981e-08
1.14572e-08
1.11294e-08
1.08465e-08
1.07776e-08
1.08529e-08
1.09946e-08
1.12053e-08
1.14567e-08
1.16395e-08
1.17421e-08
1.18551e-08
1.19423e-08
1.20025e-08
1.20601e-08
1.20831e-08
1.20779e-08
1.20481e-08
1.20298e-08
1.19361e-08
1.18518e-08
1.1726e-08
1.17088e-08
1.14284e-08
1.15722e-08
1.08584e-08
1.18916e-08
9.30906e-09
1.29212e-08
1.99862e-08
9.04228e-09
2.68828e-09
8.69881e-09
1.29525e-08
1.23591e-08
1.15131e-08
1.15585e-08
1.17589e-08
1.1812e-08
1.17797e-08
1.17073e-08
1.15199e-08
1.11823e-08
1.08846e-08
1.07652e-08
1.07875e-08
1.09191e-08
1.11445e-08
1.13875e-08
1.15592e-08
1.17057e-08
1.1823e-08
1.18925e-08
1.1961e-08
1.2011e-08
1.20337e-08
1.20373e-08
1.20271e-08
1.19923e-08
1.18977e-08
1.18354e-08
1.17176e-08
1.16544e-08
1.13715e-08
1.14337e-08
1.08053e-08
1.16621e-08
9.37195e-09
1.21936e-08
1.82541e-08
9.14281e-09
3.14235e-09
8.47406e-09
1.28879e-08
1.26469e-08
1.18782e-08
1.18806e-08
1.20338e-08
1.20398e-08
1.19471e-08
1.1808e-08
1.15836e-08
1.12444e-08
1.09315e-08
1.07731e-08
1.07657e-08
1.0885e-08
1.10955e-08
1.13187e-08
1.15069e-08
1.16678e-08
1.17741e-08
1.18526e-08
1.19248e-08
1.19657e-08
1.19912e-08
1.20023e-08
1.1992e-08
1.19576e-08
1.18873e-08
1.18223e-08
1.16827e-08
1.1583e-08
1.13059e-08
1.13113e-08
1.07539e-08
1.14453e-08
9.39597e-09
1.15424e-08
1.68837e-08
9.39892e-09
3.53186e-09
8.14215e-09
1.2684e-08
1.28074e-08
1.21253e-08
1.20935e-08
1.2218e-08
1.22005e-08
1.20707e-08
1.18859e-08
1.16355e-08
1.13002e-08
1.09798e-08
1.08004e-08
1.07724e-08
1.08699e-08
1.10544e-08
1.12633e-08
1.14635e-08
1.16223e-08
1.17359e-08
1.18266e-08
1.18895e-08
1.19316e-08
1.19597e-08
1.19706e-08
1.19625e-08
1.19362e-08
1.18735e-08
1.17894e-08
1.16381e-08
1.15185e-08
1.12512e-08
1.1217e-08
1.07106e-08
1.12529e-08
9.40885e-09
1.10111e-08
1.58723e-08
9.70169e-09
3.84174e-09
7.79051e-09
1.24317e-08
1.28659e-08
1.22516e-08
1.21938e-08
1.23108e-08
1.22904e-08
1.21445e-08
1.19328e-08
1.16654e-08
1.13351e-08
1.10193e-08
1.08262e-08
1.07836e-08
1.08666e-08
1.10298e-08
1.12297e-08
1.14259e-08
1.1588e-08
1.17118e-08
1.18016e-08
1.18617e-08
1.19086e-08
1.19385e-08
1.19495e-08
1.19441e-08
1.19176e-08
1.18503e-08
1.17553e-08
1.16026e-08
1.14704e-08
1.12109e-08
1.11463e-08
1.06684e-08
1.10917e-08
9.41688e-09
1.06082e-08
1.51596e-08
9.87764e-09
3.98975e-09
7.49786e-09
1.22079e-08
1.28484e-08
1.22814e-08
1.22199e-08
1.23426e-08
1.23259e-08
1.21735e-08
1.19474e-08
1.16673e-08
1.13383e-08
1.10282e-08
1.08351e-08
1.07919e-08
1.087e-08
1.10244e-08
1.12176e-08
1.14077e-08
1.15675e-08
1.16914e-08
1.1781e-08
1.18453e-08
1.18927e-08
1.19234e-08
1.19374e-08
1.19318e-08
1.19025e-08
1.18318e-08
1.17353e-08
1.15829e-08
1.14419e-08
1.11848e-08
1.10982e-08
1.06291e-08
1.09724e-08
9.39704e-09
1.03441e-08
1.47231e-08
9.71638e-09
3.82227e-09
7.33331e-09
1.21129e-08
1.28246e-08
1.22833e-08
1.22282e-08
1.23486e-08
1.23266e-08
1.2168e-08
1.19335e-08
1.16391e-08
1.13012e-08
1.09996e-08
1.08247e-08
1.07961e-08
1.08792e-08
1.1033e-08
1.12224e-08
1.14072e-08
1.15601e-08
1.16797e-08
1.17695e-08
1.18336e-08
1.18802e-08
1.1913e-08
1.1931e-08
1.19286e-08
1.19009e-08
1.18298e-08
1.17334e-08
1.15793e-08
1.1435e-08
1.11747e-08
1.10778e-08
1.05913e-08
1.09071e-08
9.30333e-09
1.01864e-08
1.453e-08
9.16841e-09
3.30698e-09
7.28731e-09
1.21708e-08
1.28183e-08
1.22828e-08
1.22318e-08
1.2338e-08
1.23011e-08
1.21361e-08
1.18962e-08
1.15811e-08
1.12301e-08
1.09477e-08
1.0803e-08
1.07948e-08
1.08886e-08
1.10487e-08
1.1241e-08
1.14182e-08
1.15633e-08
1.16801e-08
1.17644e-08
1.1826e-08
1.18741e-08
1.19124e-08
1.19364e-08
1.19397e-08
1.19154e-08
1.18444e-08
1.1747e-08
1.15892e-08
1.14493e-08
1.11757e-08
1.10797e-08
1.05555e-08
1.09025e-08
9.14046e-09
1.01381e-08
1.45565e-08
8.43281e-09
2.49044e-09
7.20902e-09
1.22021e-08
1.27356e-08
1.22148e-08
1.21907e-08
1.22923e-08
1.2243e-08
1.20784e-08
1.18362e-08
1.14977e-08
1.11441e-08
1.08915e-08
1.07759e-08
1.07878e-08
1.08972e-08
1.1073e-08
1.12656e-08
1.1435e-08
1.1576e-08
1.16857e-08
1.17664e-08
1.18299e-08
1.18804e-08
1.19227e-08
1.19525e-08
1.1965e-08
1.19448e-08
1.18671e-08
1.17696e-08
1.16119e-08
1.14747e-08
1.11802e-08
1.11063e-08
1.05347e-08
1.09593e-08
8.96918e-09
1.02616e-08
1.49138e-08
7.69503e-09
1.4998e-09
7.07268e-09
1.21673e-08
1.2543e-08
1.20447e-08
1.20754e-08
1.21869e-08
1.21375e-08
1.19884e-08
1.17498e-08
1.1401e-08
1.10608e-08
1.08327e-08
1.07432e-08
1.07822e-08
1.09172e-08
1.11081e-08
1.12986e-08
1.14642e-08
1.15892e-08
1.16873e-08
1.17764e-08
1.18437e-08
1.18973e-08
1.19413e-08
1.19791e-08
1.19995e-08
1.19803e-08
1.18911e-08
1.17972e-08
1.16376e-08
1.15061e-08
1.12024e-08
1.11709e-08
1.05366e-08
1.10751e-08
8.81028e-09
1.05369e-08
1.55563e-08
7.03767e-09
5.7928e-10
6.94196e-09
1.21098e-08
1.22805e-08
1.17891e-08
1.18738e-08
1.20036e-08
1.19707e-08
1.18551e-08
1.16379e-08
1.13073e-08
1.09811e-08
1.07714e-08
1.07215e-08
1.07944e-08
1.09535e-08
1.11628e-08
1.1358e-08
1.14993e-08
1.15961e-08
1.16845e-08
1.17805e-08
1.18582e-08
1.1916e-08
1.19662e-08
1.20176e-08
1.20311e-08
1.20025e-08
1.19194e-08
1.18307e-08
1.16625e-08
1.15614e-08
1.12507e-08
1.12704e-08
1.05573e-08
1.12339e-08
8.64955e-09
1.09146e-08
1.63999e-08
6.52826e-09
1.4387e-14
7.04899e-09
1.21125e-08
1.1996e-08
1.14661e-08
1.15827e-08
1.17322e-08
1.17336e-08
1.16669e-08
1.1503e-08
1.1216e-08
1.09047e-08
1.07284e-08
1.0725e-08
1.08276e-08
1.10194e-08
1.12495e-08
1.14213e-08
1.15268e-08
1.16055e-08
1.16851e-08
1.17768e-08
1.1859e-08
1.19316e-08
1.20004e-08
1.20611e-08
1.20597e-08
1.20235e-08
1.19408e-08
1.18646e-08
1.17064e-08
1.16451e-08
1.13091e-08
1.13933e-08
1.0587e-08
1.14191e-08
8.47227e-09
1.13337e-08
1.73623e-08
6.18682e-09
-2.31921e-10
7.53744e-09
1.22301e-08
1.16945e-08
1.1079e-08
1.12031e-08
1.13719e-08
1.14217e-08
1.142e-08
1.1343e-08
1.11181e-08
1.08496e-08
1.07229e-08
1.07443e-08
1.08875e-08
1.11234e-08
1.13346e-08
1.14685e-08
1.15534e-08
1.16203e-08
1.16965e-08
1.17764e-08
1.18644e-08
1.19566e-08
1.20475e-08
1.21084e-08
1.20866e-08
1.20433e-08
1.1955e-08
1.19112e-08
1.17724e-08
1.17409e-08
1.13754e-08
1.15366e-08
1.05994e-08
1.16166e-08
8.28517e-09
1.17651e-08
1.84437e-08
6.15353e-09
-1.12756e-10
8.13157e-09
1.23515e-08
1.13735e-08
1.06247e-08
1.07399e-08
1.09304e-08
1.10384e-08
1.11221e-08
1.11523e-08
1.10154e-08
1.08186e-08
1.07401e-08
1.07914e-08
1.09836e-08
1.12243e-08
1.14037e-08
1.15234e-08
1.15878e-08
1.16472e-08
1.17213e-08
1.18011e-08
1.1898e-08
1.20048e-08
1.21056e-08
1.21426e-08
1.20971e-08
1.2062e-08
1.19882e-08
1.19849e-08
1.18389e-08
1.18383e-08
1.14449e-08
1.16704e-08
1.05894e-08
1.18411e-08
8.10268e-09
1.21787e-08
1.96633e-08
6.47416e-09
8.69894e-11
8.55888e-09
1.23934e-08
1.10023e-08
1.01051e-08
1.02107e-08
1.04295e-08
1.06028e-08
1.07867e-08
1.09352e-08
1.09129e-08
1.08005e-08
1.07695e-08
1.08673e-08
1.1091e-08
1.13228e-08
1.14904e-08
1.15884e-08
1.16387e-08
1.17016e-08
1.17734e-08
1.18582e-08
1.19574e-08
1.20711e-08
1.21384e-08
1.21448e-08
1.21091e-08
1.21001e-08
1.2043e-08
1.20754e-08
1.18977e-08
1.19238e-08
1.14867e-08
1.17887e-08
1.05974e-08
1.21158e-08
7.9412e-09
1.25536e-08
2.10641e-08
7.11544e-09
1.30623e-10
8.71408e-09
1.22898e-08
1.05633e-08
9.55673e-09
9.66336e-09
9.91146e-09
1.01497e-08
1.04333e-08
1.07037e-08
1.08131e-08
1.08035e-08
1.08241e-08
1.09718e-08
1.1221e-08
1.14399e-08
1.15782e-08
1.16547e-08
1.17125e-08
1.17797e-08
1.18525e-08
1.19297e-08
1.20213e-08
1.21098e-08
1.21395e-08
1.21547e-08
1.21282e-08
1.21437e-08
1.21103e-08
1.21602e-08
1.19366e-08
1.1999e-08
1.15173e-08
1.19328e-08
1.06429e-08
1.24271e-08
7.80843e-09
1.28473e-08
2.26521e-08
8.00997e-09
-7.17449e-11
8.55236e-09
1.20531e-08
1.01353e-08
9.07493e-09
9.16554e-09
9.43426e-09
9.72343e-09
1.00911e-08
1.04657e-08
1.07208e-08
1.08291e-08
1.09153e-08
1.11273e-08
1.1383e-08
1.15581e-08
1.16643e-08
1.17354e-08
1.17918e-08
1.18554e-08
1.19292e-08
1.19951e-08
1.20722e-08
1.21258e-08
1.21466e-08
1.21723e-08
1.21368e-08
1.21957e-08
1.21567e-08
1.22077e-08
1.19682e-08
1.2104e-08
1.15833e-08
1.21038e-08
1.07134e-08
1.27452e-08
7.7041e-09
1.29704e-08
2.43307e-08
8.85424e-09
-3.86132e-10
8.29185e-09
1.18798e-08
9.92656e-09
8.80871e-09
8.83817e-09
9.0598e-09
9.37043e-09
9.79119e-09
1.02328e-08
1.06118e-08
1.08525e-08
1.10548e-08
1.13243e-08
1.15514e-08
1.16963e-08
1.17757e-08
1.18196e-08
1.18652e-08
1.19244e-08
1.19836e-08
1.20493e-08
1.2104e-08
1.21402e-08
1.21541e-08
1.21707e-08
1.21553e-08
1.22389e-08
1.21673e-08
1.22559e-08
1.20357e-08
1.22462e-08
1.16709e-08
1.22781e-08
1.0807e-08
1.30493e-08
7.62261e-09
1.27043e-08
2.5567e-08
9.27786e-09
-6.03946e-11
8.44745e-09
1.20507e-08
1.01357e-08
8.87961e-09
8.72061e-09
8.83567e-09
9.12505e-09
9.5501e-09
1.00059e-08
1.04672e-08
1.08717e-08
1.12396e-08
1.15483e-08
1.17406e-08
1.18537e-08
1.18826e-08
1.18946e-08
1.19415e-08
1.19864e-08
1.20282e-08
1.20847e-08
1.2103e-08
1.21386e-08
1.21471e-08
1.21739e-08
1.21855e-08
1.22766e-08
1.21963e-08
1.23498e-08
1.2125e-08
1.23795e-08
1.17511e-08
1.24342e-08
1.09308e-08
1.33142e-08
7.55282e-09
1.16756e-08
2.51597e-08
9.33432e-09
1.04724e-09
9.00952e-09
1.25396e-08
1.06782e-08
9.22041e-09
8.79363e-09
8.7599e-09
8.98949e-09
9.36204e-09
9.78534e-09
1.03152e-08
1.09166e-08
1.14448e-08
1.17783e-08
1.19503e-08
1.20036e-08
1.19808e-08
1.19782e-08
1.20052e-08
1.20275e-08
1.20592e-08
1.20884e-08
1.20952e-08
1.21341e-08
1.21405e-08
1.2202e-08
1.22234e-08
1.23398e-08
1.22582e-08
1.24533e-08
1.2181e-08
1.24663e-08
1.18274e-08
1.25613e-08
1.10691e-08
1.34949e-08
7.59243e-09
1.00038e-08
2.29811e-08
9.5359e-09
2.3486e-09
9.34121e-09
1.29202e-08
1.12605e-08
9.62361e-09
8.93779e-09
8.76214e-09
8.92368e-09
9.21212e-09
9.6037e-09
1.02177e-08
1.09948e-08
1.16408e-08
1.20077e-08
1.2164e-08
1.21565e-08
1.2097e-08
1.20575e-08
1.20427e-08
1.2049e-08
1.20665e-08
1.20807e-08
1.20979e-08
1.21402e-08
1.21556e-08
1.22468e-08
1.22639e-08
1.2404e-08
1.23067e-08
1.2517e-08
1.21897e-08
1.25215e-08
1.19044e-08
1.26352e-08
1.12109e-08
1.35689e-08
7.93473e-09
8.33451e-09
2.01434e-08
1.02269e-08
3.33449e-09
8.92455e-09
1.28184e-08
1.16781e-08
9.94433e-09
9.02253e-09
8.74863e-09
8.8621e-09
9.11189e-09
9.52196e-09
1.0221e-08
1.11057e-08
1.18306e-08
1.22412e-08
1.23715e-08
1.23186e-08
1.22157e-08
1.21179e-08
1.20702e-08
1.20603e-08
1.20653e-08
1.20821e-08
1.21087e-08
1.21597e-08
1.21817e-08
1.22848e-08
1.22903e-08
1.24479e-08
1.232e-08
1.25443e-08
1.21912e-08
1.25668e-08
1.19726e-08
1.26438e-08
1.13733e-08
1.35303e-08
8.68281e-09
7.20424e-09
1.76834e-08
1.11124e-08
4.09731e-09
7.90738e-09
1.22414e-08
1.19027e-08
1.01419e-08
8.99913e-09
8.66128e-09
8.78585e-09
9.08607e-09
9.56272e-09
1.03233e-08
1.12616e-08
1.20248e-08
1.24537e-08
1.25603e-08
1.24757e-08
1.23248e-08
1.21803e-08
1.21043e-08
1.20776e-08
1.20769e-08
1.21007e-08
1.21342e-08
1.21893e-08
1.22124e-08
1.2322e-08
1.23161e-08
1.24829e-08
1.23305e-08
1.25806e-08
1.22117e-08
1.25996e-08
1.20399e-08
1.26128e-08
1.1577e-08
1.33658e-08
9.75135e-09
6.77365e-09
1.55202e-08
1.1788e-08
5.04317e-09
6.73878e-09
1.13178e-08
1.19428e-08
1.02231e-08
8.86974e-09
8.51246e-09
8.71429e-09
9.09569e-09
9.65871e-09
1.04701e-08
1.14309e-08
1.22007e-08
1.26266e-08
1.2717e-08
1.26094e-08
1.24212e-08
1.22519e-08
1.21571e-08
1.21195e-08
1.21191e-08
1.21474e-08
1.21857e-08
1.22448e-08
1.227e-08
1.23814e-08
1.23677e-08
1.25382e-08
1.23769e-08
1.26374e-08
1.22582e-08
1.26348e-08
1.21237e-08
1.25738e-08
1.18153e-08
1.30888e-08
1.08793e-08
6.87555e-09
1.32947e-08
1.21638e-08
6.23807e-09
5.77668e-09
1.01477e-08
1.17419e-08
1.01699e-08
8.66803e-09
8.34423e-09
8.65961e-09
9.08454e-09
9.64717e-09
1.04967e-08
1.14673e-08
1.22845e-08
1.2734e-08
1.28298e-08
1.27094e-08
1.24976e-08
1.23175e-08
1.22163e-08
1.21733e-08
1.21754e-08
1.22092e-08
1.22525e-08
1.23157e-08
1.23447e-08
1.24536e-08
1.24389e-08
1.26036e-08
1.24455e-08
1.26931e-08
1.23239e-08
1.26792e-08
1.22063e-08
1.25598e-08
1.20286e-08
1.27329e-08
1.182e-08
7.16958e-09
1.1121e-08
1.15605e-08
7.18469e-09
5.51759e-09
9.37091e-09
1.15424e-08
1.00558e-08
8.47125e-09
8.27826e-09
8.79053e-09
9.47677e-09
1.02432e-08
1.12053e-08
1.21896e-08
1.2927e-08
1.32358e-08
1.31676e-08
1.28694e-08
1.25738e-08
1.23357e-08
1.21848e-08
1.21184e-08
1.21096e-08
1.214e-08
1.21803e-08
1.22443e-08
1.22785e-08
1.23902e-08
1.23825e-08
1.25519e-08
1.23959e-08
1.26601e-08
1.22432e-08
1.26865e-08
1.21269e-08
1.25308e-08
1.2165e-08
1.21441e-08
1.25735e-08
7.53364e-09
8.89737e-09
)
;

boundaryField
{
    bottomWall
    {
        type            zeroGradient;
    }
    topWall
    {
        type            zeroGradient;
    }
    sides1_half0
    {
        type            empty;
    }
    sides1_half1
    {
        type            empty;
    }
    sides2_half0
    {
        type            empty;
    }
    sides2_half1
    {
        type            empty;
    }
    inout1_half0
    {
        type            cyclic;
    }
    inout1_half1
    {
        type            cyclic;
    }
    inout2_half0
    {
        type            cyclic;
    }
    inout2_half1
    {
        type            cyclic;
    }
}


// ************************************************************************* //
