/*--------------------------------*- C++ -*----------------------------------*\
  =========                 |
  \\      /  F ield         | OpenFOAM: The Open Source CFD Toolbox
   \\    /   O peration     | Website:  https://openfoam.org
    \\  /    A nd           | Version:  dev
     \\/     M anipulation  |

   OpenFOAM for Windows 20.09 (v1)
   Built by CFD Support, www.cfdsupport.com (based on Symscape).
\*---------------------------------------------------------------------------*/
FoamFile
{
    version     2.0;
    format      ascii;
    class       surfaceScalarField;
    location    "60";
    object      phi;
}
// * * * * * * * * * * * * * * * * * * * * * * * * * * * * * * * * * * * * * //

dimensions      [0 3 -1 0 0 0 0];

internalField   nonuniform List<scalar> 
3120
(
0.00066766
-1.56468e-09
0.000667659
9.47393e-10
0.000667658
1.36075e-09
0.000667657
5.27952e-10
0.000667657
3.24472e-10
0.000667657
2.51464e-10
0.000667657
4.77891e-11
0.000667657
-1.2975e-10
0.000667657
-1.74112e-10
0.000667657
-1.38777e-10
0.000667657
-7.03558e-11
0.000667657
-6.05534e-12
0.000667657
1.29877e-11
0.000667657
1.12302e-11
0.000667657
1.54892e-11
0.000667657
1.54011e-11
0.000667657
3.76319e-12
0.000667657
-1.31457e-11
0.000667657
-3.35258e-11
0.000667657
-5.063e-11
0.000667657
-6.59225e-11
0.000667658
-7.63336e-11
0.000667658
-8.66174e-11
0.000667658
-9.35028e-11
0.000667658
-1.01107e-10
0.000667658
-1.04541e-10
0.000667658
-1.06164e-10
0.000667658
-1.07844e-10
0.000667658
-1.10263e-10
0.000667658
-9.72203e-11
0.000667658
-1.2475e-10
0.000667659
-4.16779e-11
0.000667659
-1.91144e-10
0.000667659
1.05757e-10
0.000667659
-2.8969e-10
0.000667659
2.12708e-10
0.000667659
-1.85197e-11
0.000667659
-1.45421e-10
0.000667658
1.17537e-09
-1.07077e-09
0.000766822
-1.05317e-09
0.000766821
2.01826e-09
0.000766821
1.96008e-09
0.00076682
8.73677e-10
0.00076682
5.64663e-10
0.00076682
3.65936e-10
0.00076682
2.39911e-11
0.00076682
-2.56906e-10
0.00076682
-3.51263e-10
0.00076682
-3.15252e-10
0.000766821
-2.08113e-10
0.000766821
-1.04533e-10
0.000766821
-7.13408e-11
0.000766821
-6.25499e-11
0.000766821
-4.21435e-11
0.000766821
-2.75061e-11
0.000766821
-2.72047e-11
0.000766821
-3.94155e-11
0.000766821
-6.39906e-11
0.000766821
-8.8339e-11
0.000766821
-1.12469e-10
0.000766821
-1.31466e-10
0.000766821
-1.49876e-10
0.000766821
-1.63317e-10
0.000766821
-1.75694e-10
0.000766821
-1.83874e-10
0.000766821
-1.85042e-10
0.000766822
-1.93553e-10
0.000766822
-1.86389e-10
0.000766822
-1.84288e-10
0.000766822
-1.90027e-10
0.000766822
-1.22669e-10
0.000766822
-2.47568e-10
0.000766822
6.31841e-11
0.000766822
-3.57608e-10
0.000766822
2.59964e-10
0.000766822
-1.31912e-10
0.000766822
3.57676e-11
0.000766822
1.00728e-09
-1.74532e-09
0.000833974
1.49843e-11
0.000833973
2.72221e-09
0.000833973
2.188e-09
0.000833973
1.07344e-09
0.000833972
6.96971e-10
0.000833972
3.96936e-10
0.000833972
-3.00643e-11
0.000833973
-3.74715e-10
0.000833973
-5.10043e-10
0.000833973
-4.83937e-10
0.000833973
-3.56284e-10
0.000833973
-2.29659e-10
0.000833973
-1.81383e-10
0.000833973
-1.57303e-10
0.000833973
-1.21692e-10
0.000833973
-8.67497e-11
0.000833974
-6.81289e-11
0.000833974
-7.02188e-11
0.000833974
-9.02976e-11
0.000833974
-1.16893e-10
0.000833974
-1.47033e-10
0.000833974
-1.72429e-10
0.000833974
-1.96643e-10
0.000833974
-2.15721e-10
0.000833974
-2.32356e-10
0.000833974
-2.44981e-10
0.000833974
-2.47721e-10
0.000833974
-2.61183e-10
0.000833974
-2.4728e-10
0.000833974
-2.53816e-10
0.000833974
-2.38421e-10
0.000833974
-1.95685e-10
0.000833974
-2.68983e-10
0.000833974
-1.13873e-11
0.000833974
-3.48119e-10
0.000833974
2.2233e-10
0.000833974
-1.78414e-10
0.000833974
1.9589e-10
0.000833975
5.6485e-10
-1.73807e-09
0.000891409
1.04921e-09
0.000891409
3.07287e-09
0.000891409
2.22934e-09
0.000891409
1.17207e-09
0.000891409
7.46485e-10
0.000891409
3.73299e-10
0.000891409
-9.75228e-11
0.000891409
-4.71463e-10
0.000891409
-6.34e-10
0.000891409
-6.21098e-10
0.000891409
-4.87043e-10
0.00089141
-3.48416e-10
0.00089141
-2.88019e-10
0.00089141
-2.5367e-10
0.00089141
-2.06742e-10
0.00089141
-1.51959e-10
0.00089141
-1.14044e-10
0.00089141
-1.01772e-10
0.00089141
-1.12531e-10
0.00089141
-1.39078e-10
0.00089141
-1.71963e-10
0.00089141
-2.0182e-10
0.00089141
-2.29767e-10
0.00089141
-2.53109e-10
0.00089141
-2.73038e-10
0.00089141
-2.89327e-10
0.00089141
-2.95025e-10
0.00089141
-3.10608e-10
0.00089141
-2.93051e-10
0.00089141
-3.03527e-10
0.00089141
-2.74202e-10
0.00089141
-2.51444e-10
0.00089141
-2.7493e-10
0.000891411
-8.57338e-11
0.000891411
-3.07689e-10
0.000891411
1.52204e-10
0.000891411
-1.6523e-10
0.000891411
2.73971e-10
0.000891411
2.00956e-10
-1.26258e-09
0.000944862
1.83358e-09
0.000944862
3.13574e-09
0.000944862
2.15539e-09
0.000944862
1.19337e-09
0.000944862
7.36248e-10
0.000944862
3.2142e-10
0.000944862
-1.54977e-10
0.000944862
-5.30642e-10
0.000944862
-7.07794e-10
0.000944862
-7.09802e-10
0.000944862
-5.81108e-10
0.000944862
-4.40856e-10
0.000944862
-3.78117e-10
0.000944863
-3.4353e-10
0.000944863
-2.88935e-10
0.000944863
-2.17831e-10
0.000944863
-1.61565e-10
0.000944863
-1.32017e-10
0.000944863
-1.3283e-10
0.000944863
-1.56444e-10
0.000944863
-1.88867e-10
0.000944863
-2.21009e-10
0.000944863
-2.52038e-10
0.000944863
-2.77995e-10
0.000944863
-2.99826e-10
0.000944863
-3.20369e-10
0.000944863
-3.27121e-10
0.000944863
-3.42342e-10
0.000944863
-3.24684e-10
0.000944863
-3.35886e-10
0.000944863
-2.97988e-10
0.000944863
-2.88306e-10
0.000944863
-2.72632e-10
0.000944863
-1.45681e-10
0.000944863
-2.58971e-10
0.000944863
7.93312e-11
0.000944863
-1.18407e-10
0.000944863
2.95825e-10
0.000944863
2.2128e-11
-5.64453e-10
0.000996684
2.30904e-09
0.000996684
2.98662e-09
0.000996685
2.00363e-09
0.000996685
1.1586e-09
0.000996685
6.95981e-10
0.000996685
2.74997e-10
0.000996685
-1.77816e-10
0.000996685
-5.36998e-10
0.000996685
-7.20568e-10
0.000996685
-7.40298e-10
0.000996685
-6.27597e-10
0.000996685
-4.98022e-10
0.000996685
-4.47274e-10
0.000996685
-4.21231e-10
0.000996685
-3.63026e-10
0.000996685
-2.79876e-10
0.000996685
-2.07012e-10
0.000996685
-1.61882e-10
0.000996685
-1.51209e-10
0.000996685
-1.67801e-10
0.000996685
-1.97808e-10
0.000996685
-2.32654e-10
0.000996685
-2.65651e-10
0.000996685
-2.93022e-10
0.000996685
-3.17466e-10
0.000996685
-3.38252e-10
0.000996685
-3.45971e-10
0.000996685
-3.61369e-10
0.000996685
-3.43811e-10
0.000996685
-3.53314e-10
0.000996685
-3.11554e-10
0.000996685
-3.10138e-10
0.000996685
-2.66872e-10
0.000996686
-1.87708e-10
0.000996685
-2.11319e-10
0.000996686
1.90388e-11
0.000996685
-5.69758e-11
0.000996685
2.91557e-10
0.000996686
4.56764e-12
1.50462e-10
0.00104806
2.4747e-09
0.00104806
2.69411e-09
0.00104806
1.80722e-09
0.00104806
1.09982e-09
0.00104806
6.65564e-10
0.00104806
2.68024e-10
0.00104806
-1.46532e-10
0.00104806
-4.8208e-10
0.00104806
-6.69817e-10
0.00104806
-7.11759e-10
0.00104806
-6.24899e-10
0.00104806
-5.19853e-10
0.00104806
-4.92625e-10
0.00104806
-4.80795e-10
0.00104806
-4.24002e-10
0.00104806
-3.33673e-10
0.00104806
-2.48622e-10
0.00104806
-1.89974e-10
0.00104806
-1.66436e-10
0.00104806
-1.75444e-10
0.00104806
-2.03607e-10
0.00104806
-2.38782e-10
0.00104806
-2.71734e-10
0.00104806
-3.00661e-10
0.00104806
-3.25198e-10
0.00104806
-3.45469e-10
0.00104806
-3.55872e-10
0.00104806
-3.70205e-10
0.00104806
-3.52981e-10
0.00104806
-3.59664e-10
0.00104806
-3.18587e-10
0.00104806
-3.20672e-10
0.00104806
-2.59402e-10
0.00104806
-2.12946e-10
0.00104806
-1.68322e-10
0.00104806
-2.32438e-11
0.00104806
7.40435e-12
0.00104806
2.77079e-10
0.00104806
7.44877e-11
7.25453e-10
0.00109965
2.35829e-09
0.00109965
2.29264e-09
0.00109965
1.59894e-09
0.00109965
1.05322e-09
0.00109965
6.75758e-10
0.00109965
3.1742e-10
0.00109965
-5.73158e-11
0.00109965
-3.71787e-10
0.00109965
-5.66163e-10
0.00109965
-6.34676e-10
0.00109965
-5.81163e-10
0.00109965
-5.11109e-10
0.00109965
-5.13117e-10
0.00109965
-5.17683e-10
0.00109965
-4.67825e-10
0.00109965
-3.76495e-10
0.00109965
-2.84829e-10
0.00109965
-2.14922e-10
0.00109965
-1.80917e-10
0.00109965
-1.83743e-10
0.00109965
-2.06946e-10
0.00109965
-2.38873e-10
0.00109965
-2.71508e-10
0.00109965
-3.00528e-10
0.00109965
-3.24727e-10
0.00109965
-3.45979e-10
0.00109965
-3.57731e-10
0.00109965
-3.70545e-10
0.00109965
-3.55443e-10
0.00109965
-3.59997e-10
0.00109965
-3.20695e-10
0.00109965
-3.21316e-10
0.00109965
-2.50092e-10
0.00109965
-2.22431e-10
0.00109965
-1.30827e-10
0.00109965
-4.69986e-11
0.00109965
6.87437e-11
0.00109965
2.58418e-10
0.00109965
1.67959e-10
1.09499e-09
0.00115188
2.05372e-09
0.00115188
1.86958e-09
0.00115188
1.41168e-09
0.00115188
1.03117e-09
0.00115188
7.21042e-10
0.00115188
4.05056e-10
0.00115188
6.53375e-11
0.00115188
-2.32105e-10
0.00115188
-4.35066e-10
0.00115188
-5.29906e-10
0.00115188
-5.11879e-10
0.00115188
-4.78895e-10
0.00115188
-5.08274e-10
0.00115188
-5.32094e-10
0.00115188
-4.95461e-10
0.00115188
-4.08364e-10
0.00115188
-3.14039e-10
0.00115188
-2.37337e-10
0.00115188
-1.94857e-10
0.00115188
-1.89371e-10
0.00115188
-2.06162e-10
0.00115188
-2.35281e-10
0.00115188
-2.6637e-10
0.00115188
-2.94051e-10
0.00115188
-3.19651e-10
0.00115188
-3.41132e-10
0.00115188
-3.53164e-10
0.00115188
-3.64765e-10
0.00115188
-3.51882e-10
0.00115188
-3.53787e-10
0.00115188
-3.16402e-10
0.00115188
-3.13307e-10
0.00115188
-2.36969e-10
0.00115188
-2.17656e-10
0.00115188
-9.79458e-11
0.00115188
-5.2848e-11
0.00115188
1.22552e-10
0.00115188
2.36859e-10
0.00115188
2.3369e-10
1.23834e-09
0.00120502
1.71067e-09
0.00120502
1.46261e-09
0.00120502
1.22524e-09
0.00120502
9.95307e-10
0.00120502
7.50132e-10
0.00120502
4.77729e-10
0.00120502
1.75106e-10
0.00120502
-1.03135e-10
0.00120502
-3.08413e-10
0.00120502
-4.21354e-10
0.00120502
-4.33666e-10
0.00120502
-4.30525e-10
0.00120502
-4.82184e-10
0.00120502
-5.27376e-10
0.00120502
-5.06607e-10
0.00120502
-4.28037e-10
0.00120502
-3.35476e-10
0.00120502
-2.55063e-10
0.00120502
-2.0508e-10
0.00120502
-1.92124e-10
0.00120502
-2.03948e-10
0.00120502
-2.29099e-10
0.00120502
-2.56952e-10
0.00120502
-2.84264e-10
0.00120502
-3.0989e-10
0.00120502
-3.3075e-10
0.00120502
-3.42719e-10
0.00120502
-3.52132e-10
0.00120502
-3.40869e-10
0.00120502
-3.39013e-10
0.00120502
-3.04709e-10
0.00120502
-2.97284e-10
0.00120502
-2.19244e-10
0.00120502
-2.02653e-10
0.00120502
-6.90004e-11
0.00120502
-4.48213e-11
0.00120502
1.66687e-10
0.00120502
2.21578e-10
0.00120502
2.90703e-10
1.28063e-09
0.00125926
1.43792e-09
0.00125926
1.11017e-09
0.00125926
1.0246e-09
0.00125926
9.07778e-10
0.00125926
7.19627e-10
0.00125926
4.93931e-10
0.00125926
2.34714e-10
0.00125926
-1.65244e-11
0.00125926
-2.13291e-10
0.00125926
-3.31e-10
0.00125926
-3.59064e-10
0.00125926
-3.73468e-10
0.00125926
-4.42377e-10
0.00125926
-5.04918e-10
0.00125926
-4.99823e-10
0.00125926
-4.34315e-10
0.00125926
-3.47655e-10
0.00125926
-2.66124e-10
0.00125926
-2.11476e-10
0.00125926
-1.93246e-10
0.00125926
-1.99675e-10
0.00125926
-2.20107e-10
0.00125926
-2.44811e-10
0.00125926
-2.71477e-10
0.00125926
-2.95846e-10
0.00125926
-3.14015e-10
0.00125926
-3.25237e-10
0.00125926
-3.32912e-10
0.00125926
-3.21372e-10
0.00125926
-3.17178e-10
0.00125926
-2.85678e-10
0.00125926
-2.73785e-10
0.00125926
-1.98869e-10
0.00125926
-1.8099e-10
0.00125926
-4.34842e-11
0.00125926
-2.74062e-11
0.00125926
2.02525e-10
0.00125926
2.25525e-10
0.00125926
3.69057e-10
1.32028e-09
0.00131471
1.25907e-09
0.00131472
8.55654e-10
0.00131472
8.25587e-10
0.00131472
7.72197e-10
0.00131472
6.2953e-10
0.00131472
4.48589e-10
0.00131472
2.33691e-10
0.00131472
1.86284e-11
0.00131472
-1.54238e-10
0.00131472
-2.60927e-10
0.00131472
-2.92241e-10
0.00131472
-3.1682e-10
0.00131472
-3.95553e-10
0.00131472
-4.6939e-10
0.00131472
-4.78618e-10
0.00131472
-4.2764e-10
0.00131472
-3.49214e-10
0.00131472
-2.70183e-10
0.00131472
-2.13967e-10
0.00131472
-1.9125e-10
0.00131472
-1.92461e-10
0.00131472
-2.086e-10
0.00131472
-2.31618e-10
0.00131472
-2.55193e-10
0.00131472
-2.75897e-10
0.00131472
-2.92027e-10
0.00131472
-3.02094e-10
0.00131472
-3.07178e-10
0.00131472
-2.96065e-10
0.00131471
-2.905e-10
0.00131471
-2.61071e-10
0.00131471
-2.44986e-10
0.00131471
-1.75001e-10
0.00131471
-1.54001e-10
0.00131471
-1.93766e-11
0.00131471
-3.82311e-12
0.00131471
2.31961e-10
0.00131471
2.4961e-10
0.00131471
4.57421e-10
1.348e-09
0.00137149
1.12811e-09
0.00137149
6.50429e-10
0.00137149
6.29549e-10
0.00137149
6.14972e-10
0.00137149
5.0589e-10
0.00137149
3.62575e-10
0.00137149
1.94048e-10
0.00137149
2.48046e-11
0.00137149
-1.14209e-10
0.00137149
-2.0226e-10
0.00137149
-2.34118e-10
0.00137149
-2.65715e-10
0.00137149
-3.47109e-10
0.00137149
-4.26786e-10
0.00137149
-4.47472e-10
0.00137149
-4.09513e-10
0.00137149
-3.40895e-10
0.00137149
-2.67799e-10
0.00137149
-2.12846e-10
0.00137149
-1.86662e-10
0.00137149
-1.8305e-10
0.00137149
-1.95665e-10
0.00137149
-2.15046e-10
0.00137149
-2.33904e-10
0.00137149
-2.50997e-10
0.00137149
-2.65073e-10
0.00137149
-2.73639e-10
0.00137149
-2.77175e-10
0.00137149
-2.67662e-10
0.00137149
-2.59355e-10
0.00137149
-2.31202e-10
0.00137149
-2.12542e-10
0.00137149
-1.48122e-10
0.00137149
-1.23342e-10
0.00137149
3.37338e-12
0.00137149
2.26151e-11
0.00137149
2.54716e-10
0.00137149
2.83457e-10
0.00137149
5.50362e-10
1.36727e-09
0.00142963
9.75433e-10
0.00142963
4.74085e-10
0.00142963
4.63624e-10
0.00142963
4.77958e-10
0.00142963
3.92884e-10
0.00142963
2.80476e-10
0.00142963
1.55275e-10
0.00142963
2.90294e-11
0.00142963
-7.84947e-11
0.00142963
-1.5086e-10
0.00142963
-1.84021e-10
0.00142963
-2.19777e-10
0.00142963
-2.98858e-10
0.00142963
-3.78917e-10
0.00142963
-4.07565e-10
0.00142963
-3.82276e-10
0.00142963
-3.25308e-10
0.00142963
-2.60413e-10
0.00142963
-2.08078e-10
0.00142963
-1.79678e-10
0.00142963
-1.72541e-10
0.00142963
-1.80296e-10
0.00142963
-1.9371e-10
0.00142963
-2.08428e-10
0.00142963
-2.22643e-10
0.00142963
-2.34013e-10
0.00142963
-2.4182e-10
0.00142963
-2.44623e-10
0.00142963
-2.34173e-10
0.00142963
-2.23444e-10
0.00142963
-1.98033e-10
0.00142963
-1.78249e-10
0.00142963
-1.19815e-10
0.00142963
-9.19554e-11
0.00142963
2.28929e-11
0.00142963
4.69033e-11
0.00142963
2.66497e-10
0.00142963
3.08097e-10
0.00142963
6.0829e-10
1.31655e-09
0.00148918
7.79673e-10
0.00148918
3.18672e-10
0.00148918
3.37797e-10
0.00148918
3.79831e-10
0.00148918
3.172e-10
0.00148918
2.30507e-10
0.00148918
1.37161e-10
0.00148918
4.20965e-11
0.00148918
-4.20345e-11
0.00148918
-1.03464e-10
0.00148918
-1.38973e-10
0.00148918
-1.77422e-10
0.00148918
-2.50798e-10
0.00148918
-3.26884e-10
0.00148918
-3.6027e-10
0.00148918
-3.46967e-10
0.00148918
-3.02615e-10
0.00148918
-2.46997e-10
0.00148918
-1.98791e-10
0.00148918
-1.70144e-10
0.00148918
-1.59907e-10
0.00148918
-1.61795e-10
0.00148918
-1.70391e-10
0.00148918
-1.81501e-10
0.00148918
-1.92132e-10
0.00148918
-2.01109e-10
0.00148918
-2.07035e-10
0.00148918
-2.07184e-10
0.00148918
-1.96747e-10
0.00148918
-1.86152e-10
0.00148918
-1.63701e-10
0.00148918
-1.43195e-10
0.00148918
-9.1304e-11
0.00148918
-6.28845e-11
0.00148918
3.74068e-11
0.00148918
6.43509e-11
0.00148918
2.63395e-10
0.00148918
3.08577e-10
0.00148918
6.02016e-10
1.17172e-09
0.00155015
5.72737e-10
0.00155015
1.69044e-10
0.00155015
2.29211e-10
0.00155015
3.04867e-10
0.00155015
2.68283e-10
0.00155015
2.04568e-10
0.00155015
1.34978e-10
0.00155015
6.19569e-11
0.00155015
-6.07052e-12
0.00155015
-6.05119e-11
0.00155015
-9.85524e-11
0.00155015
-1.38239e-10
0.00155015
-2.03667e-10
0.00155015
-2.72296e-10
0.00155015
-3.07915e-10
0.00155015
-3.04454e-10
0.00155015
-2.71779e-10
0.00155015
-2.26303e-10
0.00155015
-1.84605e-10
0.00155015
-1.57438e-10
0.00155015
-1.44237e-10
0.00155015
-1.42004e-10
0.00155015
-1.46668e-10
0.00155015
-1.5378e-10
0.00155015
-1.60794e-10
0.00155015
-1.66401e-10
0.00155015
-1.6915e-10
0.00155015
-1.67153e-10
0.00155015
-1.58305e-10
0.00155015
-1.48313e-10
0.00155015
-1.27971e-10
0.00155015
-1.08189e-10
0.00155015
-6.43541e-11
0.00155015
-3.76582e-11
0.00155015
4.6406e-11
0.00155015
7.36641e-11
0.00155015
2.45684e-10
0.00155015
2.84931e-10
0.00155015
5.46795e-10
9.83691e-10
0.00161252
3.89357e-10
0.00161252
4.53511e-11
0.00161252
1.36029e-10
0.00161252
2.37456e-10
0.00161252
2.25439e-10
0.00161252
1.83319e-10
0.00161252
1.33536e-10
0.00161252
7.75472e-11
0.00161252
2.1741e-11
0.00161252
-2.68895e-11
0.00161252
-6.55301e-11
0.00161252
-1.03866e-10
0.00161252
-1.58985e-10
0.00161252
-2.17378e-10
0.00161252
-2.51887e-10
0.00161252
-2.55331e-10
0.00161252
-2.33492e-10
0.00161252
-1.99408e-10
0.00161252
-1.65909e-10
0.00161252
-1.41264e-10
0.00161252
-1.2689e-10
0.00161252
-1.21435e-10
0.00161252
-1.21902e-10
0.00161252
-1.2492e-10
0.00161252
-1.27985e-10
0.00161252
-1.29986e-10
0.00161252
-1.30167e-10
0.00161252
-1.27099e-10
0.00161252
-1.19014e-10
0.00161252
-1.09212e-10
0.00161252
-9.17781e-11
0.00161252
-7.42972e-11
0.00161252
-3.90778e-11
0.00161252
-1.56795e-11
0.00161252
5.12264e-11
0.00161252
7.62931e-11
0.00161252
2.15524e-10
0.00161252
2.43518e-10
0.00161252
4.59807e-10
7.83247e-10
0.00167625
2.47853e-10
0.00167625
-2.2177e-11
0.00167625
7.38035e-11
0.00167625
1.75589e-10
0.00167625
1.76983e-10
0.00167625
1.51202e-10
0.00167625
1.17421e-10
0.00167625
7.60532e-11
0.00167625
3.19856e-11
0.00167625
-9.01846e-12
0.00167625
-4.40867e-11
0.00167625
-7.69058e-11
0.00167625
-1.18704e-10
0.00167625
-1.63466e-10
0.00167625
-1.93061e-10
0.00167625
-2.0101e-10
0.00167625
-1.8986e-10
0.00167625
-1.67938e-10
0.00167625
-1.43483e-10
0.00167625
-1.2255e-10
0.00167625
-1.08057e-10
0.00167625
-9.9562e-11
0.00167625
-9.58607e-11
0.00167625
-9.4763e-11
0.00167625
-9.35889e-11
0.00167625
-9.24475e-11
0.00167625
-9.06124e-11
0.00167625
-8.64756e-11
0.00167625
-7.89066e-11
0.00167625
-6.97989e-11
0.00167625
-5.58651e-11
0.00167625
-4.14692e-11
0.00167625
-1.49767e-11
0.00167625
4.09289e-12
0.00167625
5.29351e-11
0.00167625
7.34559e-11
0.00167625
1.74929e-10
0.00167625
1.90989e-10
0.00167625
3.51153e-10
5.76207e-10
0.00174126
1.51902e-10
0.00174126
-7.88882e-12
0.00174126
5.84903e-11
0.00174126
1.21703e-10
0.00174126
1.17757e-10
0.00174126
9.93554e-11
0.00174126
7.7086e-11
0.00174126
4.95529e-11
0.00174126
1.90324e-11
0.00174126
-1.07234e-11
0.00174126
-3.69326e-11
0.00174126
-5.90206e-11
0.00174126
-8.34574e-11
0.00174126
-1.10922e-10
0.00174126
-1.33097e-10
0.00174126
-1.44135e-10
0.00174126
-1.42936e-10
0.00174126
-1.3293e-10
0.00174126
-1.17866e-10
0.00174126
-1.01828e-10
0.00174126
-8.75329e-11
0.00174126
-7.61693e-11
0.00174126
-6.85369e-11
0.00174126
-6.31056e-11
0.00174126
-5.79519e-11
0.00174126
-5.36879e-11
0.00174126
-4.98848e-11
0.00174126
-4.49801e-11
0.00174126
-3.80843e-11
0.00174126
-3.01908e-11
0.00174126
-1.99098e-11
0.00174126
-9.11632e-12
0.00174126
8.28385e-12
0.00174126
2.20792e-11
0.00174126
5.15422e-11
0.00174126
6.61041e-11
0.00174126
1.25247e-10
0.00174126
1.33805e-10
0.00174126
2.26854e-10
3.52103e-10
0.00180744
9.20878e-11
0.00180744
8.71879e-11
0.00180744
8.76603e-11
0.00180744
7.04012e-11
0.00180744
4.39542e-11
0.00180744
2.60475e-11
0.00180744
1.30648e-11
0.00180744
4.12257e-14
0.00180744
-1.45855e-11
0.00180744
-2.97999e-11
0.00180744
-4.26127e-11
0.00180744
-4.88299e-11
0.00180744
-5.18837e-11
0.00180744
-5.98259e-11
0.00180744
-7.31146e-11
0.00180744
-8.61932e-11
0.00180744
-9.42826e-11
0.00180744
-9.55749e-11
0.00180744
-8.99739e-11
0.00180744
-7.90289e-11
0.00180744
-6.5153e-11
0.00180744
-5.12098e-11
0.00180744
-3.9597e-11
0.00180744
-2.98316e-11
0.00180744
-2.08286e-11
0.00180744
-1.36112e-11
0.00180744
-7.96406e-12
0.00180744
-2.50538e-12
0.00180744
3.47949e-12
0.00180744
1.00266e-11
0.00180744
1.64991e-11
0.00180744
2.32048e-11
0.00180744
3.10136e-11
0.00180744
3.88357e-11
0.00180744
4.7252e-11
0.00180744
5.57698e-11
0.00180744
6.8006e-11
0.00180744
7.81221e-11
0.00180744
9.74023e-11
1.0636e-10
0.00180744
5.17987e-11
0.00180744
2.01853e-10
0.00180744
1.28769e-10
0.00180744
2.10341e-11
0.00180744
-3.42259e-11
0.00180744
-5.38406e-11
0.00180744
-5.78208e-11
0.00180744
-5.64166e-11
0.00180744
-5.51841e-11
0.00180744
-5.54554e-11
0.00180744
-5.34619e-11
0.00180744
-4.10299e-11
0.00180744
-2.13513e-11
0.00180744
-1.03771e-11
0.00180744
-1.51285e-11
0.00180744
-3.00226e-11
0.00180744
-4.66628e-11
0.00180744
-5.84437e-11
0.00180744
-6.15575e-11
0.00180744
-5.50769e-11
0.00180744
-4.14686e-11
0.00180744
-2.53112e-11
0.00180744
-1.00842e-11
0.00180744
3.80825e-12
0.00180744
1.63269e-11
0.00180744
2.61246e-11
0.00180744
3.34261e-11
0.00180744
3.93716e-11
0.00180744
4.45831e-11
0.00180744
4.99451e-11
0.00180744
5.23635e-11
0.00180744
5.47402e-11
0.00180744
5.27282e-11
0.00180744
5.41976e-11
0.00180744
4.12776e-11
0.00180744
4.36048e-11
0.00180744
8.24185e-12
0.00180744
2.06106e-11
0.00180744
-3.21408e-11
-1.29735e-10
0.00174127
6.03517e-13
0.00174127
2.75841e-10
0.00174127
1.52308e-10
0.00174127
-2.17242e-11
0.00174127
-9.93567e-11
0.00174127
-1.20289e-10
0.00174127
-1.15397e-10
0.00174127
-1.00715e-10
0.00174127
-8.53766e-11
0.00174127
-7.33349e-11
0.00174127
-5.86121e-11
0.00174127
-2.82799e-11
0.00174127
1.17282e-11
0.00174127
3.83764e-11
0.00174127
4.01461e-11
0.00174127
2.26017e-11
0.00174127
-2.24059e-12
0.00174127
-2.35815e-11
0.00174127
-3.41018e-11
0.00174127
-3.12366e-11
0.00174127
-1.78016e-11
0.00174127
5.63934e-13
0.00174127
1.91069e-11
0.00174127
3.65344e-11
0.00174127
5.22219e-11
0.00174127
6.43995e-11
0.00174127
7.31122e-11
0.00174127
7.94688e-11
0.00174127
8.41338e-11
0.00174127
8.84e-11
0.00174127
8.65359e-11
0.00174127
8.44974e-11
0.00174127
7.27513e-11
0.00174127
6.82059e-11
0.00174127
3.48459e-11
0.00174127
3.05834e-11
0.00174127
-4.88148e-11
0.00174127
-4.24721e-11
0.00174127
-1.6389e-10
-3.49732e-10
0.00167625
-7.37328e-11
0.00167625
2.79484e-10
0.00167625
1.30355e-10
0.00167625
-7.2009e-11
0.00167625
-1.57663e-10
0.00167625
-1.72127e-10
0.00167625
-1.53167e-10
0.00167625
-1.22974e-10
0.00167625
-9.43311e-11
0.00167625
-7.35136e-11
0.00167625
-4.99431e-11
0.00167625
-5.41546e-12
0.00167625
5.06261e-11
0.00167625
8.90819e-11
0.00167625
9.41674e-11
0.00167625
7.20488e-11
0.00167625
3.87557e-11
0.00167625
8.45743e-12
0.00167625
-8.4841e-12
0.00167625
-8.41545e-12
0.00167625
5.90156e-12
0.00167625
2.6848e-11
0.00167625
4.81452e-11
0.00167625
6.8649e-11
0.00167625
8.704e-11
0.00167625
1.0136e-10
0.00167625
1.11246e-10
0.00167625
1.18086e-10
0.00167625
1.22211e-10
0.00167625
1.25563e-10
0.00167625
1.19173e-10
0.00167625
1.12719e-10
0.00167625
9.14733e-11
0.00167625
8.18582e-11
0.00167625
2.90548e-11
0.00167625
1.93996e-11
0.00167625
-1.00694e-10
0.00167625
-1.05028e-10
0.00167625
-2.86023e-10
-5.48175e-10
0.00161252
-1.8245e-10
0.00161252
2.19722e-10
0.00161252
5.74801e-11
0.00161252
-1.42847e-10
0.00161252
-2.1884e-10
0.00161252
-2.13761e-10
0.00161252
-1.70868e-10
0.00161252
-1.19793e-10
0.00161252
-7.72151e-11
0.00161252
-5.0875e-11
0.00161252
-2.34049e-11
0.00161252
2.96432e-11
0.00161252
9.67219e-11
0.00161252
1.42647e-10
0.00161252
1.46829e-10
0.00161252
1.18108e-10
0.00161252
7.57794e-11
0.00161252
3.68148e-11
0.00161252
1.44883e-11
0.00161252
1.36445e-11
0.00161252
2.98155e-11
0.00161252
5.33052e-11
0.00161252
7.7135e-11
0.00161252
1.00067e-10
0.00161252
1.20849e-10
0.00161252
1.37099e-10
0.00161252
1.47846e-10
0.00161252
1.55482e-10
0.00161252
1.59187e-10
0.00161252
1.61239e-10
0.00161252
1.49985e-10
0.00161252
1.39966e-10
0.00161252
1.09626e-10
0.00161252
9.68941e-11
0.00161252
2.60887e-11
0.00161252
1.30014e-11
0.00161252
-1.44471e-10
0.00161252
-1.60628e-10
0.00161252
-3.92938e-10
-7.31364e-10
0.00155015
-3.32403e-10
0.00155015
9.60157e-11
0.00155015
-5.67442e-11
0.00155015
-2.35547e-10
0.00155015
-2.83965e-10
0.00155015
-2.46171e-10
0.00155015
-1.69367e-10
0.00155015
-9.16044e-11
0.00155015
-3.40823e-11
0.00155015
-4.76473e-12
0.00155015
2.11031e-11
0.00155015
7.66121e-11
0.00155015
1.49863e-10
0.00155015
1.97584e-10
0.00155015
1.97027e-10
0.00155015
1.5994e-10
0.00155015
1.07886e-10
0.00155015
6.12457e-11
0.00155015
3.5711e-11
0.00155015
3.49672e-11
0.00155015
5.28987e-11
0.00155015
7.8915e-11
0.00155015
1.0529e-10
0.00155015
1.30776e-10
0.00155015
1.53848e-10
0.00155015
1.71643e-10
0.00155015
1.82803e-10
0.00155015
1.91185e-10
0.00155015
1.94209e-10
0.00155015
1.95522e-10
0.00155015
1.79611e-10
0.00155015
1.66816e-10
0.00155015
1.28405e-10
0.00155015
1.15259e-10
0.00155015
2.74428e-11
0.00155015
1.29841e-11
0.00155015
-1.78213e-10
0.00155015
-2.06053e-10
0.00155015
-4.82256e-10
-9.04383e-10
0.00148919
-5.21757e-10
0.00148919
-8.21509e-11
0.00148919
-2.06292e-10
0.00148919
-3.45365e-10
0.00148919
-3.47242e-10
0.00148919
-2.67786e-10
0.00148919
-1.5045e-10
0.00148919
-4.22686e-11
0.00148919
3.07963e-11
0.00148919
6.11404e-11
0.00148919
8.05643e-11
0.00148919
1.3362e-10
0.00148919
2.07725e-10
0.00148919
2.5179e-10
0.00148919
2.4368e-10
0.00148919
1.96519e-10
0.00148919
1.34702e-10
0.00148919
8.22933e-11
0.00148919
5.47681e-11
0.00148919
5.44161e-11
0.00148919
7.42425e-11
0.00148919
1.02597e-10
0.00148919
1.31731e-10
0.00148919
1.60074e-10
0.00148919
1.85239e-10
0.00148919
2.04186e-10
0.00148919
2.1572e-10
0.00148919
2.25138e-10
0.00148919
2.27352e-10
0.00148919
2.28802e-10
0.00148919
2.08456e-10
0.00148919
1.94062e-10
0.00148919
1.4865e-10
0.00148919
1.36696e-10
0.00148919
3.26525e-11
0.00148919
1.9758e-11
0.00148919
-2.00336e-10
0.00148919
-2.40186e-10
0.00148919
-5.51937e-10
-1.07159e-09
0.00142963
-7.52834e-10
0.00142963
-3.1329e-10
0.00142963
-3.78793e-10
0.00142963
-4.53456e-10
0.00142964
-4.05402e-10
0.00142964
-2.79163e-10
0.00142964
-1.19113e-10
0.00142963
2.05493e-11
0.00142963
1.09416e-10
0.00142963
1.39525e-10
0.00142963
1.49641e-10
0.00142963
1.96359e-10
0.00142963
2.66325e-10
0.00142963
3.03065e-10
0.00142963
2.85208e-10
0.00142963
2.26871e-10
0.00142963
1.564e-10
0.00142963
9.93574e-11
0.00142963
7.00013e-11
0.00142963
7.11443e-11
0.00142963
9.33017e-11
0.00142963
1.2429e-10
0.00142963
1.56362e-10
0.00142963
1.87158e-10
0.00142963
2.14449e-10
0.00142963
2.34614e-10
0.00142963
2.46715e-10
0.00142963
2.574e-10
0.00142963
2.58787e-10
0.00142963
2.60848e-10
0.00142963
2.36037e-10
0.00142963
2.2184e-10
0.00142963
1.69658e-10
0.00142963
1.596e-10
0.00142963
4.17751e-11
0.00142963
3.2772e-11
0.00142963
-2.09781e-10
0.00142963
-2.61127e-10
0.00142963
-5.93015e-10
-1.22348e-09
0.00137149
-1.01332e-09
0.00137149
-5.80295e-10
0.00137149
-5.60141e-10
0.00137149
-5.54146e-10
0.00137149
-4.54697e-10
0.00137149
-2.84674e-10
0.00137149
-8.45882e-11
0.00137149
8.59775e-11
0.00137149
1.91023e-10
0.00137149
2.20993e-10
0.00137149
2.20802e-10
0.00137149
2.58816e-10
0.00137149
3.21984e-10
0.00137149
3.49257e-10
0.00137149
3.19846e-10
0.00137149
2.50082e-10
0.00137149
1.71709e-10
0.00137149
1.10825e-10
0.00137149
8.19343e-11
0.00137149
8.55653e-11
0.00137149
1.1021e-10
0.00137149
1.44613e-10
0.00137149
1.79679e-10
0.00137149
2.12678e-10
0.00137149
2.41335e-10
0.00137149
2.6294e-10
0.00137149
2.75651e-10
0.00137149
2.86926e-10
0.00137149
2.87422e-10
0.00137149
2.90968e-10
0.00137149
2.61283e-10
0.00137149
2.48892e-10
0.00137149
1.90254e-10
0.00137149
1.83117e-10
0.00137149
5.50571e-11
0.00137149
4.96623e-11
0.00137149
-2.0552e-10
0.00137149
-2.66709e-10
0.00137149
-5.966e-10
-1.34881e-09
0.00131472
-1.28563e-09
0.00131472
-8.65676e-10
0.00131472
-7.3129e-10
0.00131472
-6.42632e-10
0.00131472
-5.00611e-10
0.00131472
-2.96399e-10
0.00131472
-6.01962e-11
0.00131472
1.41678e-10
0.00131472
2.64217e-10
0.00131472
2.95741e-10
0.00131472
2.86384e-10
0.00131472
3.15321e-10
0.00131472
3.69673e-10
0.00131472
3.85992e-10
0.00131472
3.45032e-10
0.00131472
2.6455e-10
0.00131472
1.79923e-10
0.00131472
1.18281e-10
0.00131472
9.1758e-11
0.00131472
9.87316e-11
0.00131472
1.27042e-10
0.00131472
1.64547e-10
0.00131472
2.0233e-10
0.00131472
2.37027e-10
0.00131472
2.66322e-10
0.00131472
2.88665e-10
0.00131472
3.00575e-10
0.00131472
3.1294e-10
0.00131472
3.12693e-10
0.00131472
3.17516e-10
0.00131472
2.83314e-10
0.00131472
2.73953e-10
0.00131472
2.09431e-10
0.00131472
2.05778e-10
0.00131472
7.18421e-11
0.00131472
6.8388e-11
0.00131472
-1.85148e-10
0.00131472
-2.5548e-10
0.00131472
-5.52908e-10
-1.42367e-09
0.00125926
-1.53238e-09
0.00125926
-1.13688e-09
0.00125926
-8.8707e-10
0.00125926
-7.30507e-10
0.00125926
-5.61872e-10
0.00125926
-3.31234e-10
0.00125926
-5.89333e-11
0.00125926
1.77206e-10
0.00125926
3.19687e-10
0.00125926
3.55635e-10
0.00125926
3.40521e-10
0.00125926
3.60571e-10
0.00125926
4.04745e-10
0.00125926
4.09684e-10
0.00125926
3.57752e-10
0.00125926
2.6906e-10
0.00125926
1.8218e-10
0.00125926
1.22592e-10
0.00125926
9.99568e-11
0.00125926
1.12194e-10
0.00125926
1.44484e-10
0.00125926
1.84578e-10
0.00125926
2.244e-10
0.00125926
2.59741e-10
0.00125926
2.89149e-10
0.00125926
3.1105e-10
0.00125926
3.21755e-10
0.00125926
3.35578e-10
0.00125926
3.32793e-10
0.00125926
3.39863e-10
0.00125926
3.01812e-10
0.00125926
2.95666e-10
0.00125926
2.26159e-10
0.00125926
2.24954e-10
0.00125926
9.29452e-11
0.00125926
8.62481e-11
0.00125926
-1.48177e-10
0.00125926
-2.27222e-10
0.00125926
-4.5369e-10
-1.41499e-09
0.00120503
-1.69261e-09
0.00120503
-1.38631e-09
0.00120503
-1.05392e-09
0.00120503
-8.44384e-10
0.00120503
-6.57486e-10
0.00120503
-3.99368e-10
0.00120503
-8.57971e-11
0.00120503
1.87822e-10
0.00120503
3.52495e-10
0.00120503
3.95894e-10
0.00120503
3.78998e-10
0.00120503
3.91532e-10
0.00120503
4.24902e-10
0.00120503
4.17675e-10
0.00120503
3.56331e-10
0.00120503
2.63929e-10
0.00120503
1.78276e-10
0.00120503
1.23526e-10
0.00120503
1.0773e-10
0.00120503
1.256e-10
0.00120503
1.61168e-10
0.00120503
2.04465e-10
0.00120503
2.45141e-10
0.00120503
2.80528e-10
0.00120503
3.09202e-10
0.00120503
3.30525e-10
0.00120503
3.40123e-10
0.00120503
3.52935e-10
0.00120503
3.47249e-10
0.00120503
3.5737e-10
0.00120503
3.14595e-10
0.00120503
3.12261e-10
0.00120503
2.40713e-10
0.00120503
2.38855e-10
0.00120503
1.19102e-10
0.00120503
9.79384e-11
0.00120503
-9.59385e-11
0.00120503
-1.84241e-10
0.00120503
-2.92824e-10
-1.26401e-09
0.00115189
-1.73029e-09
0.00115189
-1.66093e-09
0.00115189
-1.26662e-09
0.00115189
-9.88562e-10
0.00115189
-7.79089e-10
0.00115189
-4.90618e-10
0.00115189
-1.32786e-10
0.00115189
1.77776e-10
0.00115189
3.63699e-10
0.00115189
4.16049e-10
0.00115189
3.9954e-10