/*--------------------------------*- C++ -*----------------------------------*\
  =========                 |
  \\      /  F ield         | OpenFOAM: The Open Source CFD Toolbox
   \\    /   O peration     | Website:  https://openfoam.org
    \\  /    A nd           | Version:  dev
     \\/     M anipulation  |

   OpenFOAM for Windows 20.09 (v1)
   Built by CFD Support, www.cfdsupport.com (based on Symscape).
\*---------------------------------------------------------------------------*/
FoamFile
{
    version     2.0;
    format      ascii;
    class       volVectorField;
    location    "60";
    object      U;
}
// * * * * * * * * * * * * * * * * * * * * * * * * * * * * * * * * * * * * * //

dimensions      [0 1 -1 0 0 0 0];

internalField   nonuniform List<vector> 
1600
(
(0.0965244 -5.52187e-08 0)
(0.0965244 1.11307e-08 0)
(0.0965242 4.19083e-08 0)
(0.0965241 2.01204e-08 0)
(0.096524 1.19468e-08 0)
(0.096524 1.09913e-08 0)
(0.096524 5.25977e-09 0)
(0.096524 -1.87272e-09 0)
(0.096524 -5.94521e-09 0)
(0.096524 -6.65669e-09 0)
(0.096524 -6.02452e-09 0)
(0.096524 -5.90905e-09 0)
(0.096524 -6.66338e-09 0)
(0.096524 -7.03331e-09 0)
(0.096524 -5.87062e-09 0)
(0.096524 -3.84653e-09 0)
(0.096524 -2.05137e-09 0)
(0.096524 -7.72113e-10 0)
(0.096524 -2.26817e-10 0)
(0.096524 -5.00161e-11 0)
(0.0965241 -2.97222e-10 0)
(0.0965241 -4.36199e-10 0)
(0.0965241 -6.62593e-10 0)
(0.0965241 -6.59463e-10 0)
(0.0965241 -8.44381e-10 0)
(0.0965241 -8.05654e-10 0)
(0.0965241 -8.58901e-10 0)
(0.0965241 -5.66004e-10 0)
(0.0965242 -8.98252e-10 0)
(0.0965242 3.20849e-10 0)
(0.0965242 -2.00305e-09 0)
(0.0965242 2.91596e-09 0)
(0.0965243 -6.18042e-09 0)
(0.0965242 9.02293e-09 0)
(0.0965243 -1.04252e-08 0)
(0.0965242 8.40909e-09 0)
(0.0965243 7.85768e-09 0)
(0.0965243 -1.64148e-08 0)
(0.0965241 5.07901e-08 0)
(0.0965242 -3.67141e-09 0)
(0.106889 -8.33076e-08 0)
(0.106889 7.36085e-08 0)
(0.106889 9.3846e-08 0)
(0.106889 4.3265e-08 0)
(0.106889 2.65983e-08 0)
(0.106889 1.75418e-08 0)
(0.106889 1.9878e-09 0)
(0.106889 -9.68767e-09 0)
(0.106889 -1.28352e-08 0)
(0.106889 -9.97346e-09 0)
(0.106889 -3.96387e-09 0)
(0.106889 1.33971e-09 0)
(0.106889 3.03008e-09 0)
(0.106889 3.08961e-09 0)
(0.106889 2.97493e-09 0)
(0.106889 2.20212e-09 0)
(0.106889 6.35115e-10 0)
(0.106889 -1.20096e-09 0)
(0.106889 -2.88534e-09 0)
(0.106889 -4.24725e-09 0)
(0.106889 -5.40763e-09 0)
(0.106889 -6.24143e-09 0)
(0.106889 -7.02994e-09 0)
(0.106889 -7.62128e-09 0)
(0.106889 -8.1691e-09 0)
(0.106889 -8.52574e-09 0)
(0.106889 -8.57886e-09 0)
(0.106889 -8.93848e-09 0)
(0.106889 -8.73836e-09 0)
(0.106889 -8.57151e-09 0)
(0.106889 -9.11766e-09 0)
(0.106889 -5.62512e-09 0)
(0.106889 -1.22454e-08 0)
(0.106889 3.74038e-09 0)
(0.106889 -1.81056e-08 0)
(0.106889 1.28815e-08 0)
(0.106889 -6.47929e-09 0)
(0.106889 -2.22599e-09 0)
(0.106889 6.04306e-08 0)
(0.106889 -8.17676e-08 0)
(0.112085 -2.6579e-08 0)
(0.112085 1.23221e-07 0)
(0.112085 1.08325e-07 0)
(0.112085 5.05742e-08 0)
(0.112085 3.22295e-08 0)
(0.112085 1.94121e-08 0)
(0.112085 -1.23125e-10 0)
(0.112085 -1.5938e-08 0)
(0.112085 -2.1715e-08 0)
(0.112085 -2.00713e-08 0)
(0.112085 -1.41999e-08 0)
(0.112085 -8.58851e-09 0)
(0.112085 -6.61541e-09 0)
(0.112085 -5.79855e-09 0)
(0.112085 -4.37179e-09 0)
(0.112085 -2.92829e-09 0)
(0.112085 -2.42278e-09 0)
(0.112085 -2.87601e-09 0)
(0.112085 -3.99261e-09 0)
(0.112085 -5.33799e-09 0)
(0.112085 -6.74218e-09 0)
(0.112085 -7.87123e-09 0)
(0.112085 -8.94689e-09 0)
(0.112085 -9.79201e-09 0)
(0.112085 -1.05503e-08 0)
(0.112085 -1.10868e-08 0)
(0.112085 -1.11834e-08 0)
(0.112085 -1.17595e-08 0)
(0.112085 -1.12105e-08 0)
(0.112085 -1.13541e-08 0)
(0.112085 -1.10344e-08 0)
(0.112085 -8.27914e-09 0)
(0.112085 -1.32205e-08 0)
(0.112085 1.23227e-09 0)
(0.112085 -1.80308e-08 0)
(0.112085 1.22855e-08 0)
(0.112085 -8.60455e-09 0)
(0.112085 5.96843e-09 0)
(0.112085 3.70417e-08 0)
(0.112085 -9.29552e-08 0)
(0.115512 2.99967e-08 0)
(0.115512 1.49206e-07 0)
(0.115512 1.12011e-07 0)
(0.115512 5.65641e-08 0)
(0.115512 3.62723e-08 0)
(0.115512 1.93794e-08 0)
(0.115512 -3.26669e-09 0)
(0.115512 -2.1493e-08 0)
(0.115512 -2.91211e-08 0)
(0.115512 -2.82174e-08 0)
(0.115512 -2.16718e-08 0)
(0.115512 -1.4918e-08 0)
(0.115512 -1.21159e-08 0)
(0.115512 -1.06194e-08 0)
(0.115512 -8.43304e-09 0)
(0.115512 -6.12011e-09 0)
(0.115512 -4.63281e-09 0)
(0.115512 -4.29866e-09 0)
(0.115512 -5.10327e-09 0)
(0.115512 -6.48459e-09 0)
(0.115512 -8.06019e-09 0)
(0.115512 -9.46931e-09 0)
(0.115512 -1.0788e-08 0)
(0.115512 -1.18581e-08 0)
(0.115512 -1.27777e-08 0)
(0.115512 -1.35146e-08 0)
(0.115512 -1.3714e-08 0)
(0.115512 -1.44575e-08 0)
(0.115512 -1.36427e-08 0)
(0.115512 -1.40792e-08 0)
(0.115512 -1.29245e-08 0)
(0.115512 -1.13258e-08 0)
(0.115512 -1.36802e-08 0)
(0.115512 -2.57321e-09 0)
(0.115512 -1.64713e-08 0)
(0.115512 9.36012e-09 0)
(0.115512 -9.06263e-09 0)
(0.115512 1.17983e-08 0)
(0.115512 1.67368e-08 0)
(0.115512 -7.73651e-08 0)
(0.118053 7.57519e-08 0)
(0.118053 1.56922e-07 0)
(0.118053 1.10253e-07 0)
(0.118053 5.94145e-08 0)
(0.118053 3.71421e-08 0)
(0.118053 1.73275e-08 0)
(0.118053 -6.54217e-09 0)
(0.118053 -2.55497e-08 0)
(0.118053 -3.41905e-08 0)
(0.118053 -3.39537e-08 0)
(0.118053 -2.72881e-08 0)
(0.118053 -2.01365e-08 0)
(0.118053 -1.70059e-08 0)
(0.118053 -1.5219e-08 0)
(0.118053 -1.25476e-08 0)
(0.118053 -9.36026e-09 0)
(0.118053 -6.9245e-09 0)
(0.118053 -5.83244e-09 0)
(0.118053 -6.18119e-09 0)
(0.118053 -7.42374e-09 0)
(0.118053 -9.08125e-09 0)
(0.118053 -1.06476e-08 0)
(0.118053 -1.21538e-08 0)
(0.118053 -1.33875e-08 0)
(0.118053 -1.44347e-08 0)
(0.118053 -1.54019e-08 0)
(0.118053 -1.56621e-08 0)
(0.118053 -1.64501e-08 0)
(0.118053 -1.55847e-08 0)
(0.118053 -1.61578e-08 0)
(0.118053 -1.43876e-08 0)
(0.118053 -1.36701e-08 0)
(0.118053 -1.37197e-08 0)
(0.118053 -5.98856e-09 0)
(0.118053 -1.41837e-08 0)
(0.118053 5.62659e-09 0)
(0.118053 -7.50393e-09 0)
(0.118053 1.43411e-08 0)
(0.118053 4.17644e-09 0)
(0.118053 -4.45341e-08 0)
(0.120066 1.06824e-07 0)
(0.120066 1.55229e-07 0)
(0.120066 1.0466e-07 0)
(0.120066 5.89946e-08 0)
(0.120066 3.58175e-08 0)
(0.120066 1.47406e-08 0)
(0.120066 -8.74426e-09 0)
(0.120066 -2.72744e-08 0)
(0.120066 -3.63682e-08 0)
(0.120066 -3.69111e-08 0)
(0.120066 -3.07667e-08 0)
(0.120066 -2.39097e-08 0)
(0.120066 -2.10392e-08 0)
(0.120066 -1.93832e-08 0)
(0.120066 -1.64835e-08 0)
(0.120066 -1.25713e-08 0)
(0.120066 -9.25413e-09 0)
(0.120066 -7.41036e-09 0)
(0.120066 -7.10613e-09 0)
(0.120066 -8.09675e-09 0)
(0.120066 -9.69717e-09 0)
(0.120066 -1.14493e-08 0)
(0.120066 -1.30463e-08 0)
(0.120066 -1.44034e-08 0)
(0.120066 -1.56035e-08 0)
(0.120066 -1.65244e-08 0)
(0.120066 -1.69649e-08 0)
(0.120066 -1.77833e-08 0)
(0.120066 -1.6815e-08 0)
(0.120066 -1.73484e-08 0)
(0.120066 -1.53506e-08 0)
(0.120066 -1.51756e-08 0)
(0.120066 -1.35391e-08 0)
(0.120066 -8.59857e-09 0)
(0.120066 -1.16985e-08 0)
(0.120066 2.2199e-09 0)
(0.120067 -4.64355e-09 0)
(0.120066 1.48364e-08 0)
(0.120067 -2.84267e-10 0)
(0.120066 -9.22577e-09 0)
(0.121732 1.22269e-07 0)
(0.121732 1.43968e-07 0)
(0.121732 9.59174e-08 0)
(0.121732 5.66371e-08 0)
(0.121732 3.40497e-08 0)
(0.121732 1.32861e-08 0)
(0.121732 -8.5991e-09 0)
(0.121732 -2.60337e-08 0)
(0.121732 -3.53449e-08 0)
(0.121732 -3.68818e-08 0)
(0.121732 -3.18129e-08 0)
(0.121732 -2.59139e-08 0)
(0.121732 -2.38554e-08 0)
(0.121732 -2.28086e-08 0)
(0.121732 -1.9888e-08 0)
(0.121732 -1.54693e-08 0)
(0.121732 -1.1497e-08 0)
(0.121732 -8.81871e-09 0)
(0.121732 -7.94489e-09 0)
(0.121732 -8.64718e-09 0)
(0.121732 -1.01505e-08 0)
(0.121732 -1.18368e-08 0)
(0.121732 -1.35065e-08 0)
(0.121732 -1.4964e-08 0)
(0.121732 -1.60815e-08 0)
(0.121732 -1.72217e-08 0)
(0.121732 -1.77014e-08 0)
(0.121732 -1.8372e-08 0)
(0.121732 -1.75392e-08 0)
(0.121732 -1.79643e-08 0)
(0.121732 -1.58869e-08 0)
(0.121732 -1.59189e-08 0)
(0.121732 -1.31962e-08 0)
(0.121732 -1.02615e-08 0)
(0.121732 -9.44296e-09 0)
(0.121732 -3.96887e-10 0)
(0.121732 -1.33792e-09 0)
(0.121732 1.44096e-08 0)
(0.121732 1.52091e-09 0)
(0.121732 2.32053e-08 0)
(0.123149 1.22518e-07 0)
(0.123149 1.26099e-07 0)
(0.123149 8.58005e-08 0)
(0.123149 5.41126e-08 0)
(0.123149 3.36179e-08 0)
(0.123149 1.44185e-08 0)
(0.123149 -5.44884e-09 0)
(0.123149 -2.17367e-08 0)
(0.123149 -3.13131e-08 0)
(0.123149 -3.40843e-08 0)
(0.123149 -3.05456e-08 0)
(0.123149 -2.61443e-08 0)
(0.123149 -2.54543e-08 0)
(0.123149 -2.52138e-08 0)
(0.123149 -2.25223e-08 0)
(0.123149 -1.79056e-08 0)
(0.123149 -1.34352e-08 0)
(0.123149 -1.01915e-08 0)
(0.123149 -8.77257e-09 0)
(0.123149 -9.06829e-09 0)
(0.123149 -1.0254e-08 0)
(0.123149 -1.19531e-08 0)
(0.123149 -1.36589e-08 0)
(0.123149 -1.50517e-08 0)
(0.123149 -1.63636e-08 0)
(0.123149 -1.74014e-08 0)
(0.123149 -1.78895e-08 0)
(0.123149 -1.86232e-08 0)
(0.123149 -1.78378e-08 0)
(0.123149 -1.81438e-08 0)
(0.123149 -1.60714e-08 0)
(0.123149 -1.6155e-08 0)
(0.123149 -1.28035e-08 0)
(0.123149 -1.10658e-08 0)
(0.123149 -7.44044e-09 0)
(0.123149 -1.99044e-09 0)
(0.123149 1.97524e-09 0)
(0.123149 1.35404e-08 0)
(0.123149 5.93076e-09 0)
(0.123149 4.65873e-08 0)
(0.124377 1.11461e-07 0)
(0.124377 1.05356e-07 0)
(0.124377 7.5638e-08 0)
(0.124377 5.24167e-08 0)
(0.124377 3.50623e-08 0)
(0.124377 1.80264e-08 0)
(0.124377 1.20862e-10 0)
(0.124377 -1.52141e-08 0)
(0.124377 -2.51917e-08 0)
(0.124377 -2.92955e-08 0)
(0.124377 -2.75452e-08 0)
(0.124377 -2.49619e-08 0)
(0.124377 -2.57152e-08 0)
(0.124377 -2.65472e-08 0)
(0.124377 -2.43758e-08 0)
(0.124377 -1.9807e-08 0)
(0.124377 -1.50823e-08 0)
(0.124377 -1.1419e-08 0)
(0.124377 -9.4361e-09 0)
(0.124377 -9.27773e-09 0)
(0.124377 -1.03525e-08 0)
(0.124377 -1.19407e-08 0)
(0.124377 -1.34829e-08 0)
(0.124377 -1.49186e-08 0)
(0.124377 -1.61968e-08 0)
(0.124377 -1.72526e-08 0)
(0.124377 -1.78746e-08 0)
(0.124377 -1.84749e-08 0)
(0.124377 -1.77837e-08 0)
(0.124377 -1.79053e-08 0)
(0.124377 -1.59959e-08 0)
(0.124377 -1.59827e-08 0)
(0.124377 -1.21938e-08 0)
(0.124377 -1.11334e-08 0)
(0.124377 -5.68055e-09 0)
(0.124377 -2.6277e-09 0)
(0.124377 4.87433e-09 0)
(0.124377 1.24525e-08 0)
(0.124377 9.78412e-09 0)
(0.124377 5.85192e-08 0)
(0.125454 9.47e-08 0)
(0.125454 8.15488e-08 0)
(0.125454 6.50726e-08 0)
(0.125454 5.05526e-08 0)
(0.125454 3.68054e-08 0)
(0.125454 2.2163e-08 0)
(0.125454 6.22562e-09 0)
(0.125454 -8.23098e-09 0)
(0.125454 -1.84538e-08 0)
(0.125454 -2.37009e-08 0)
(0.125454 -2.36371e-08 0)
(0.125454 -2.27573e-08 0)
(0.125454 -2.49563e-08 0)
(0.125454 -2.67532e-08 0)
(0.125454 -2.52416e-08 0)
(0.125454 -2.10755e-08 0)
(0.125454 -1.63839e-08 0)
(0.125454 -1.23705e-08 0)
(0.125454 -1.00078e-08 0)
(0.125454 -9.61721e-09 0)
(0.125454 -1.03295e-08 0)
(0.125454 -1.16283e-08 0)
(0.125454 -1.30948e-08 0)
(0.125454 -1.45374e-08 0)
(0.125454 -1.57884e-08 0)
(0.125454 -1.68416e-08 0)
(0.125454 -1.74595e-08 0)
(0.125454 -1.79816e-08 0)
(0.125454 -1.73877e-08 0)
(0.125454 -1.73761e-08 0)
(0.125454 -1.56121e-08 0)
(0.125454 -1.53536e-08 0)
(0.125454 -1.14534e-08 0)
(0.125454 -1.06271e-08 0)
(0.125454 -4.11948e-09 0)
(0.125454 -2.54212e-09 0)
(0.125454 7.3819e-09 0)
(0.125454 1.15246e-08 0)
(0.125454 1.37554e-08 0)
(0.125454 6.55862e-08 0)
(0.126404 7.87539e-08 0)
(0.126404 6.29197e-08 0)
(0.126404 5.54061e-08 0)
(0.126404 4.74617e-08 0)
(0.126404 3.7012e-08 0)
(0.126404 2.47053e-08 0)
(0.126404 1.06997e-08 0)
(0.126404 -2.60016e-09 0)
(0.126404 -1.27814e-08 0)
(0.126404 -1.86764e-08 0)
(0.126404 -1.96642e-08 0)
(0.126404 -2.00432e-08 0)
(0.126404 -2.32492e-08 0)
(0.126404 -2.59236e-08 0)
(0.126404 -2.53181e-08 0)
(0.126404 -2.17398e-08 0)
(0.126404 -1.72019e-08 0)
(0.126404 -1.31006e-08 0)
(0.126404 -1.04856e-08 0)
(0.126404 -9.66893e-09 0)
(0.126404 -1.00847e-08 0)
(0.126404 -1.12666e-08 0)
(0.126404 -1.26067e-08 0)
(0.126404 -1.39266e-08 0)
(0.126404 -1.52014e-08 0)
(0.126404 -1.61585e-08 0)
(0.126404 -1.67641e-08 0)
(0.126404 -1.72158e-08 0)
(0.126404 -1.65905e-08 0)
(0.126404 -1.6496e-08 0)
(0.126404 -1.4822e-08 0)
(0.126404 -1.43313e-08 0)
(0.126404 -1.05261e-08 0)
(0.126404 -9.64329e-09 0)
(0.126404 -2.75333e-09 0)
(0.126404 -1.85093e-09 0)
(0.126404 9.39409e-09 0)
(0.126404 1.12847e-08 0)
(0.126404 1.67931e-08 0)
(0.126404 6.62658e-08 0)
(0.127243 6.73163e-08 0)
(0.127243 4.78426e-08 0)
(0.127243 4.54134e-08 0)
(0.127243 4.19085e-08 0)
(0.127243 3.39816e-08 0)
(0.127243 2.39193e-08 0)
(0.127243 1.20629e-08 0)
(0.127243 4.20685e-10 0)
(0.127243 -8.78696e-09 0)
(0.127243 -1.44415e-08 0)
(0.127243 -1.6079e-08 0)
(0.127243 -1.72633e-08 0)
(0.127243 -2.09901e-08 0)
(0.127243 -2.44782e-08 0)
(0.127243 -2.46219e-08 0)
(0.127243 -2.16725e-08 0)
(0.127243 -1.75152e-08 0)
(0.127243 -1.34874e-08 0)
(0.127243 -1.06892e-08 0)
(0.127243 -9.63555e-09 0)
(0.127243 -9.82943e-09 0)
(0.127243 -1.07355e-08 0)
(0.127243 -1.19854e-08 0)
(0.127243 -1.3203e-08 0)
(0.127243 -1.42847e-08 0)
(0.127243 -1.524e-08 0)
(0.127243 -1.57623e-08 0)
(0.127243 -1.6021e-08 0)
(0.127243 -1.55404e-08 0)
(0.127243 -1.52493e-08 0)
(0.127243 -1.3743e-08 0)
(0.127243 -1.30278e-08 0)
(0.127243 -9.33246e-09 0)
(0.127243 -8.38658e-09 0)
(0.127243 -1.48327e-09 0)
(0.127243 -7.81395e-10 0)
(0.127243 1.10379e-08 0)
(0.127243 1.19868e-08 0)
(0.127243 2.08387e-08 0)
(0.127243 6.75543e-08 0)
(0.127982 5.93039e-08 0)
(0.127982 3.63698e-08 0)
(0.127982 3.58529e-08 0)
(0.127982 3.45869e-08 0)
(0.127982 2.83636e-08 0)
(0.127982 2.03249e-08 0)
(0.127982 1.10018e-08 0)
(0.127982 1.47997e-09 0)
(0.127982 -6.39148e-09 0)
(0.127982 -1.13852e-08 0)
(0.127982 -1.30834e-08 0)
(0.127982 -1.45178e-08 0)
(0.127982 -1.85547e-08 0)
(0.127982 -2.24704e-08 0)
(0.127982 -2.32637e-08 0)
(0.127982 -2.10306e-08 0)
(0.127982 -1.73586e-08 0)
(0.127982 -1.35456e-08 0)
(0.127982 -1.07418e-08 0)
(0.127982 -9.47438e-09 0)
(0.127982 -9.40439e-09 0)
(0.127982 -1.01752e-08 0)
(0.127982 -1.11378e-08 0)
(0.127982 -1.22257e-08 0)
(0.127982 -1.32568e-08 0)
(0.127982 -1.39528e-08 0)
(0.127982 -1.44172e-08 0)
(0.127982 -1.47032e-08 0)
(0.127982 -1.41509e-08 0)
(0.127982 -1.37558e-08 0)
(0.127982 -1.23168e-08 0)
(0.127982 -1.14471e-08 0)
(0.127982 -8.09303e-09 0)
(0.127982 -6.91032e-09 0)
(0.127982 -3.5684e-10 0)
(0.127982 5.21671e-10 0)
(0.127982 1.23349e-08 0)
(0.127982 1.34002e-08 0)
(0.127982 2.56481e-08 0)
(0.127982 6.88798e-08 0)
(0.128629 5.21867e-08 0)
(0.128629 2.87418e-08 0)
(0.128629 2.76762e-08 0)
(0.128629 2.7359e-08 0)
(0.128629 2.24462e-08 0)
(0.128629 1.61617e-08 0)
(0.128629 8.84604e-09 0)
(0.128629 1.38219e-09 0)
(0.128629 -4.74083e-09 0)
(0.128629 -8.75048e-09 0)
(0.128629 -1.03819e-08 0)
(0.128629 -1.206e-08 0)
(0.128629 -1.6104e-08 0)
(0.128629 -2.01476e-08 0)
(0.128629 -2.14026e-08 0)
(0.128629 -1.9902e-08 0)
(0.128629 -1.6789e-08 0)
(0.128629 -1.33077e-08 0)
(0.128629 -1.05543e-08 0)
(0.128629 -9.18519e-09 0)
(0.128629 -8.95831e-09 0)
(0.128629 -9.36916e-09 0)
(0.128629 -1.02183e-08 0)
(0.128629 -1.11144e-08 0)
(0.128629 -1.18562e-08 0)
(0.128629 -1.25073e-08 0)
(0.128629 -1.29496e-08 0)
(0.128629 -1.30815e-08 0)
(0.128629 -1.25022e-08 0)
(0.128629 -1.20681e-08 0)
(0.128629 -1.07863e-08 0)
(0.128629 -9.76892e-09 0)
(0.128629 -6.66971e-09 0)
(0.128629 -5.35463e-09 0)
(0.128629 6.96151e-10 0)
(0.128629 1.79018e-09 0)
(0.128629 1.31448e-08 0)
(0.128629 1.49026e-08 0)
(0.128629 2.88819e-08 0)
(0.128629 6.62308e-08 0)
(0.129187 4.37728e-08 0)
(0.129187 2.00323e-08 0)
(0.129187 2.00297e-08 0)
(0.129187 2.13214e-08 0)
(0.129187 1.76471e-08 0)
(0.129187 1.26694e-08 0)
(0.129187 7.20902e-09 0)
(0.129187 1.72454e-09 0)
(0.129187 -2.9769e-09 0)
(0.129187 -6.2754e-09 0)
(0.129187 -7.98402e-09 0)
(0.129187 -9.84965e-09 0)
(0.129187 -1.36834e-08 0)
(0.129187 -1.76283e-08 0)
(0.129187 -1.92387e-08 0)
(0.129187 -1.83145e-08 0)
(0.129187 -1.57802e-08 0)
(0.129187 -1.2732e-08 0)
(0.129187 -1.0216e-08 0)
(0.129187 -8.79989e-09 0)
(0.129187 -8.30147e-09 0)
(0.129187 -8.55528e-09 0)
(0.129187 -9.15692e-09 0)
(0.129187 -9.77563e-09 0)
(0.129187 -1.03957e-08 0)
(0.129187 -1.09095e-08 0)
(0.129187 -1.12056e-08 0)
(0.129187 -1.12391e-08 0)
(0.129187 -1.08146e-08 0)
(0.129187 -1.03049e-08 0)
(0.129187 -9.02423e-09 0)
(0.129187 -7.99486e-09 0)
(0.129187 -5.2632e-09 0)
(0.129187 -3.84949e-09 0)
(0.129187 1.54046e-09 0)
(0.129187 2.83306e-09 0)
(0.129187 1.33729e-08 0)
(0.129187 1.55596e-08 0)
(0.129187 3.04507e-08 0)
(0.129187 6.20712e-08 0)
(0.129658 3.36335e-08 0)
(0.129658 1.18332e-08 0)
(0.129658 1.38395e-08 0)
(0.129658 1.69543e-08 0)
(0.129658 1.45314e-08 0)
(0.129658 1.07904e-08 0)
(0.129658 6.7627e-09 0)
(0.129658 2.63707e-09 0)
(0.129658 -1.10026e-09 0)
(0.129658 -3.96997e-09 0)
(0.129658 -5.82647e-09 0)
(0.129658 -7.80333e-09 0)
(0.129658 -1.12984e-08 0)
(0.129658 -1.49411e-08 0)
(0.129658 -1.67342e-08 0)
(0.129658 -1.63498e-08 0)
(0.129658 -1.44104e-08 0)
(0.129658 -1.18811e-08 0)
(0.129658 -9.63781e-09 0)
(0.129658 -8.22448e-09 0)
(0.129658 -7.60529e-09 0)
(0.129658 -7.63064e-09 0)
(0.129658 -7.94421e-09 0)
(0.129658 -8.37663e-09 0)
(0.129658 -8.83607e-09 0)
(0.129658 -9.17209e-09 0)
(0.129658 -9.4003e-09 0)
(0.129658 -9.39441e-09 0)
(0.129658 -8.89672e-09 0)
(0.129658 -8.33005e-09 0)
(0.129658 -7.25672e-09 0)
(0.129658 -6.27194e-09 0)
(0.129658 -3.8835e-09 0)
(0.129658 -2.48176e-09 0)
(0.129658 2.13689e-09 0)
(0.129658 3.52795e-09 0)
(0.129658 1.28655e-08 0)
(0.129658 1.50186e-08 0)
(0.129658 2.90634e-08 0)
(0.129658 5.40696e-08 0)
(0.130043 2.36416e-08 0)
(0.130043 4.66639e-09 0)
(0.130043 8.63403e-09 0)
(0.130043 1.33252e-08 0)
(0.130043 1.22961e-08 0)
(0.130043 9.75135e-09 0)
(0.130043 6.82776e-09 0)
(0.130043 3.65012e-09 0)
(0.130043 5.84468e-10 0)
(0.130043 -1.99457e-09 0)
(0.130043 -3.95186e-09 0)
(0.130043 -5.94408e-09 0)
(0.130043 -8.97501e-09 0)
(0.130043 -1.22074e-08 0)
(0.130043 -1.39897e-08 0)
(0.130043 -1.40035e-08 0)
(0.130043 -1.26685e-08 0)
(0.130043 -1.07058e-08 0)
(0.130043 -8.8238e-09 0)
(0.130043 -7.47891e-09 0)
(0.130043 -6.81043e-09 0)
(0.130043 -6.60069e-09 0)
(0.130043 -6.70151e-09 0)
(0.130043 -6.96846e-09 0)
(0.130043 -7.20853e-09 0)
(0.130043 -7.41209e-09 0)
(0.130043 -7.49974e-09 0)
(0.130043 -7.36192e-09 0)
(0.130043 -6.91949e-09 0)
(0.130043 -6.41657e-09 0)
(0.130043 -5.49104e-09 0)
(0.130043 -4.55275e-09 0)
(0.130043 -2.55961e-09 0)
(0.130043 -1.29015e-09 0)
(0.130043 2.49869e-09 0)
(0.130043 3.84003e-09 0)
(0.130043 1.16467e-08 0)
(0.130043 1.33498e-08 0)
(0.130043 2.54808e-08 0)
(0.130043 4.43634e-08 0)
(0.13034 1.54787e-08 0)
(0.13034 -2.98629e-10 0)
(0.13034 4.58795e-09 0)
(0.13034 1.00952e-08 0)
(0.13034 1.01126e-08 0)
(0.13034 8.52231e-09 0)
(0.13034 6.48463e-09 0)
(0.13034 4.08757e-09 0)
(0.13034 1.60313e-09 0)
(0.13034 -6.58299e-10 0)
(0.13034 -2.55485e-09 0)
(0.13034 -4.38654e-09 0)
(0.13034 -6.84811e-09 0)
(0.13034 -9.45002e-09 0)
(0.13034 -1.10831e-08 0)
(0.13034 -1.14104e-08 0)
(0.13034 -1.06192e-08 0)
(0.13034 -9.22985e-09 0)
(0.13034 -7.76732e-09 0)
(0.13034 -6.62407e-09 0)
(0.13034 -5.88967e-09 0)
(0.13034 -5.5226e-09 0)
(0.13034 -5.44575e-09 0)
(0.13034 -5.49788e-09 0)
(0.13034 -5.53221e-09 0)
(0.13034 -5.56515e-09 0)
(0.13034 -5.52351e-09 0)
(0.13034 -5.32603e-09 0)
(0.13034 -4.93617e-09 0)
(0.13034 -4.46772e-09 0)
(0.13034 -3.6902e-09 0)
(0.13034 -2.87774e-09 0)
(0.13034 -1.32762e-09 0)
(0.13034 -2.49807e-10 0)
(0.13034 2.65562e-09 0)
(0.13034 3.80304e-09 0)
(0.13034 9.85684e-09 0)
(0.13034 1.09501e-08 0)
(0.13034 2.04471e-08 0)
(0.13034 3.41072e-08 0)
(0.130545 9.70912e-09 0)
(0.130545 -1.67211e-09 0)
(0.130545 2.5716e-09 0)
(0.130545 7.18789e-09 0)
(0.130545 7.41667e-09 0)
(0.130545 6.42887e-09 0)
(0.130545 5.0862e-09 0)
(0.130545 3.39785e-09 0)
(0.130545 1.53677e-09 0)
(0.130545 -2.57525e-10 0)
(0.130545 -1.84031e-09 0)
(0.130545 -3.27058e-09 0)
(0.130545 -4.95837e-09 0)
(0.130545 -6.78821e-09 0)
(0.130545 -8.12595e-09 0)
(0.130545 -8.62653e-09 0)
(0.130545 -8.32449e-09 0)
(0.130545 -7.53297e-09 0)
(0.130545 -6.5468e-09 0)
(0.130545 -5.63197e-09 0)
(0.130545 -4.90293e-09 0)
(0.130545 -4.39902e-09 0)
(0.130545 -4.11809e-09 0)
(0.130545 -3.94448e-09 0)
(0.130545 -3.7935e-09 0)
(0.130545 -3.65021e-09 0)
(0.130545 -3.49853e-09 0)
(0.130545 -3.27845e-09 0)
(0.130545 -2.91964e-09 0)
(0.130545 -2.49681e-09 0)
(0.130545 -1.88376e-09 0)
(0.130545 -1.24502e-09 0)
(0.130545 -1.49153e-10 0)
(0.130545 6.79802e-10 0)
(0.130545 2.64343e-09 0)
(0.130545 3.52588e-09 0)
(0.130545 7.56554e-09 0)
(0.130545 8.14817e-09 0)
(0.130545 1.4539e-08 0)
(0.130545 2.34083e-08 0)
(0.130652 6.06393e-09 0)
(0.130652 1.34132e-09 0)
(0.130652 3.10302e-09 0)
(0.130652 4.58606e-09 0)
(0.130652 4.02775e-09 0)
(0.130652 3.21808e-09 0)
(0.130652 2.39842e-09 0)
(0.130652 1.41043e-09 0)
(0.130652 2.77677e-10 0)
(0.130652 -8.62067e-10 0)
(0.130652 -1.86655e-09 0)
(0.130652 -2.61493e-09 0)
(0.130652 -3.33551e-09 0)
(0.130652 -4.24125e-09 0)
(0.130652 -5.12958e-09 0)
(0.130652 -5.73409e-09 0)
(0.130652 -5.91731e-09 0)
(0.130652 -5.70644e-09 0)
(0.130652 -5.20331e-09 0)
(0.130652 -4.53051e-09 0)
(0.130652 -3.82748e-09 0)
(0.130652 -3.19876e-09 0)
(0.130652 -2.70978e-09 0)
(0.130652 -2.32623e-09 0)
(0.130652 -1.97118e-09 0)
(0.130652 -1.68074e-09 0)
(0.130652 -1.44219e-09 0)
(0.130652 -1.18301e-09 0)
(0.130652 -8.61106e-10 0)
(0.130652 -4.9678e-10 0)
(0.130652 -7.34498e-11 0)
(0.130652 3.66411e-10 0)
(0.130652 9.96708e-10 0)
(0.130652 1.54211e-09 0)
(0.130652 2.49295e-09 0)
(0.130652 3.0714e-09 0)
(0.130652 4.86853e-09 0)
(0.130652 5.31124e-09 0)
(0.130652 8.15641e-09 0)
(0.130652 1.17377e-08 0)
(0.130652 3.36508e-09 0)
(0.130652 7.47693e-09 0)
(0.130652 5.6781e-09 0)
(0.130652 2.32431e-09 0)
(0.130652 2.65441e-10 0)
(0.130652 -6.87697e-10 0)
(0.130652 -1.13262e-09 0)
(0.130652 -1.43088e-09 0)
(0.130652 -1.76552e-09 0)
(0.130652 -2.14263e-09 0)
(0.130652 -2.40497e-09 0)
(0.130652 -2.26274e-09 0)
(0.130652 -1.86879e-09 0)
(0.130652 -1.77785e-09 0)
(0.130652 -2.19869e-09 0)
(0.130652 -2.88306e-09 0)
(0.130652 -3.50049e-09 0)
(0.130652 -3.83785e-09 0)
(0.130652 -3.7827e-09 0)
(0.130652 -3.35294e-09 0)
(0.130652 -2.67982e-09 0)
(0.130652 -1.92943e-09 0)
(0.130652 -1.25079e-09 0)
(0.130652 -6.61212e-10 0)
(0.130652 -1.20796e-10 0)
(0.130652 3.11091e-10 0)
(0.130652 6.38133e-10 0)
(0.130652 9.285e-10 0)
(0.130652 1.21321e-09 0)
(0.130652 1.50759e-09 0)
(0.130652 1.73139e-09 0)
(0.130652 1.96134e-09 0)
(0.130652 2.10657e-09 0)
(0.130652 2.34151e-09 0)
(0.130652 2.23152e-09 0)
(0.130652 2.49703e-09 0)
(0.130652 1.91697e-09 0)
(0.130652 2.50296e-09 0)
(0.130652 1.62815e-09 0)
(0.130652 -9.16984e-10 0)
(0.130545 1.37163e-09 0)
(0.130545 1.25951e-08 0)
(0.130545 7.65188e-09 0)
(0.130545 1.62753e-10 0)
(0.130545 -3.31488e-09 0)
(0.130545 -4.43898e-09 0)
(0.130545 -4.48266e-09 0)
(0.130545 -4.10855e-09 0)
(0.130545 -3.69712e-09 0)
(0.130545 -3.37805e-09 0)
(0.130545 -2.92488e-09 0)
(0.130545 -1.85098e-09 0)
(0.130545 -3.45565e-10 0)
(0.130545 6.45129e-10 0)
(0.130545 6.17077e-10 0)
(0.130545 -1.71435e-10 0)
(0.130545 -1.20266e-09 0)
(0.130545 -2.02934e-09 0)
(0.130545 -2.37623e-09 0)
(0.130545 -2.16992e-09 0)
(0.130545 -1.49521e-09 0)
(0.130545 -6.23541e-10 0)
(0.130545 2.11783e-10 0)
(0.130545 9.99275e-10 0)
(0.130545 1.71021e-09 0)
(0.130545 2.26717e-09 0)
(0.130545 2.66922e-09 0)
(0.130545 2.97696e-09 0)
(0.130545 3.2191e-09 0)
(0.130545 3.46393e-09 0)
(0.130545 3.48446e-09 0)
(0.130545 3.48193e-09 0)
(0.130545 3.14313e-09 0)
(0.130545 3.05915e-09 0)
(0.130545 1.88953e-09 0)
(0.130545 1.84227e-09 0)
(0.130545 -1.04219e-09 0)
(0.130545 -5.44968e-10 0)
(0.130545 -4.94743e-09 0)
(0.130545 -1.22696e-08 0)
(0.13034 -1.50204e-09 0)
(0.13034 1.46236e-08 0)
(0.13034 7.71828e-09 0)
(0.13034 -2.10257e-09 0)
(0.13034 -6.40921e-09 0)
(0.13034 -7.42184e-09 0)
(0.13034 -6.91246e-09 0)
(0.13034 -5.85178e-09 0)
(0.13034 -4.7722e-09 0)
(0.13034 -3.92247e-09 0)
(0.13034 -2.92181e-09 0)
(0.13034 -1.03333e-09 0)
(0.13034 1.43276e-09 0)
(0.13034 3.13981e-09 0)
(0.13034 3.33659e-09 0)
(0.13034 2.37308e-09 0)
(0.13034 9.33934e-10 0)
(0.13034 -3.59915e-10 0)
(0.13034 -1.07033e-09 0)
(0.13034 -9.90019e-10 0)
(0.13034 -2.93137e-10 0)
(0.13034 6.75103e-10 0)
(0.13034 1.67732e-09 0)
(0.13034 2.6248e-09 0)
(0.13034 3.4778e-09 0)
(0.13034 4.13798e-09 0)
(0.13034 4.6106e-09 0)
(0.13034 4.95227e-09 0)
(0.13034 5.17009e-09 0)
(0.13034 5.34745e-09 0)
(0.13034 5.13824e-09 0)
(0.13034 4.93516e-09 0)
(0.13034 4.10156e-09 0)
(0.13034 3.72322e-09 0)
(0.13034 1.57025e-09 0)
(0.13034 1.20995e-09 0)
(0.13034 -3.7937e-09 0)
(0.13034 -3.71595e-09 0)
(0.13034 -1.13203e-08 0)
(0.13034 -2.24899e-08 0)
(0.130044 -6.10302e-09 0)
(0.130044 1.25647e-08 0)
(0.130044 5.23189e-09 0)
(0.130044 -5.14304e-09 0)
(0.130044 -9.38618e-09 0)
(0.130044 -9.74733e-09 0)
(0.130044 -8.31178e-09 0)
(0.130044 -6.35984e-09 0)
(0.130044 -4.60924e-09 0)
(0.130044 -3.39857e-09 0)
(0.130044 -2.09256e-09 0)
(0.130044 4.11018e-10 0)
(0.130044 3.56313e-09 0)
(0.130044 5.70847e-09 0)
(0.130044 6.00171e-09 0)
(0.130044 4.7701e-09 0)
(0.130044 2.88654e-09 0)
(0.130044 1.15415e-09 0)
(0.130044 1.71009e-10 0)
(0.130044 1.48579e-10 0)
(0.130044 8.89616e-10 0)
(0.130044 2.00052e-09 0)
(0.130044 3.13338e-09 0)
(0.130044 4.21533e-09 0)
(0.130044 5.20307e-09 0)
(0.130044 5.971e-09 0)
(0.130044 6.48612e-09 0)
(0.130044 6.83514e-09 0)
(0.130044 7.03542e-09 0)
(0.130044 7.15964e-09 0)
(0.130044 6.72306e-09 0)
(0.130044 6.30842e-09 0)
(0.130044 5.0138e-09 0)
(0.130044 4.44856e-09 0)
(0.130044 1.34789e-09 0)
(0.130044 7.53527e-10 0)
(0.130044 -6.208e-09 0)
(0.130044 -6.71043e-09 0)
(0.130044 -1.70583e-08 0)
(0.130044 -3.19517e-08 0)
(0.129659 -1.22892e-08 0)
(0.129659 8.61785e-09 0)
(0.129659 -1.00914e-11 0)
(0.129659 -9.35547e-09 0)
(0.129659 -1.25609e-08 0)
(0.129659 -1.16055e-08 0)
(0.129659 -8.71782e-09 0)
(0.129659 -5.5698e-09 0)
(0.129659 -3.0906e-09 0)
(0.129659 -1.67403e-09 0)
(0.129659 -3.04371e-10 0)
(0.129659 2.49052e-09 0)
(0.129659 6.05978e-09 0)
(0.129659 8.44365e-09 0)
(0.129659 8.59897e-09 0)
(0.129659 6.97288e-09 0)
(0.129659 4.62401e-09 0)
(0.129659 2.48991e-09 0)
(0.129659 1.30564e-09 0)
(0.129659 1.22261e-09 0)
(0.129659 2.05906e-09 0)
(0.129659 3.29494e-09 0)
(0.129659 4.55429e-09 0)
(0.129659 5.79385e-09 0)
(0.129659 6.87545e-09 0)
(0.129659 7.71265e-09 0)
(0.129659 8.26933e-09 0)
(0.129659 8.66403e-09 0)
(0.129659 8.81029e-09 0)
(0.129659 8.92537e-09 0)
(0.129659 8.24843e-09 0)
(0.129659 7.65421e-09 0)
(0.129659 5.95096e-09 0)
(0.129659 5.27483e-09 0)
(0.129659 1.29439e-09 0)
(0.129659 5.69704e-10 0)
(0.129659 -8.18958e-09 0)
(0.129659 -9.27939e-09 0)
(0.129659 -2.20154e-08 0)
(0.129659 -4.08914e-08 0)
(0.129187 -2.09032e-08 0)
(0.129187 1.06868e-09 0)
(0.129187 -6.06838e-09 0)
(0.129187 -1.43285e-08 0)
(0.129187 -1.57836e-08 0)
(0.129187 -1.29619e-08 0)
(0.129187 -8.1868e-09 0)
(0.129187 -3.58587e-09 0)
(0.129187 -3.26013e-10 0)
(0.129187 1.16863e-09 0)
(0.129187 2.36676e-09 0)
(0.129187 5.15108e-09 0)
(0.129187 8.84237e-09 0)
(0.129187 1.12046e-08 0)
(0.129187 1.10437e-08 0)
(0.129187 8.95464e-09 0)
(0.129187 6.12915e-09 0)
(0.129187 3.66237e-09 0)
(0.129187 2.26962e-09 0)
(0.129187 2.23684e-09 0)
(0.129187 3.18769e-09 0)
(0.129187 4.54168e-09 0)
(0.129187 5.92824e-09 0)
(0.129187 7.25594e-09 0)
(0.129187 8.47303e-09 0)
(0.129187 9.40552e-09 0)
(0.129187 9.97347e-09 0)
(0.129187 1.0409e-08 0)
(0.129187 1.05656e-08 0)
(0.129187 1.06041e-08 0)
(0.129187 9.69931e-09 0)
(0.129187 9.02516e-09 0)
(0.129187 6.91767e-09 0)
(0.129187 6.25325e-09 0)
(0.129187 1.43963e-09 0)
(0.129187 7.51606e-10 0)
(0.129187 -9.60092e-09 0)
(0.129187 -1.13138e-08 0)
(0.129187 -2.60749e-08 0)
(0.129187 -4.95054e-08 0)
(0.128629 -3.16158e-08 0)
(0.128629 -9.23547e-09 0)
(0.128629 -1.36397e-08 0)
(0.128629 -1.97627e-08 0)
(0.128629 -1.88483e-08 0)
(0.128629 -1.37694e-08 0)
(0.128629 -6.86999e-09 0)
(0.128629 -6.92164e-10 0)
(0.128629 3.35613e-09 0)
(0.128629 4.87281e-09 0)
(0.128629 5.67237e-09 0)
(0.128629 8.17089e-09 0)
(0.128629 1.18234e-08 0)
(0.128629 1.39226e-08 0)
(0.128629 1.3257e-08 0)
(0.128629 1.06498e-08 0)
(0.128629 7.36563e-09 0)
(0.128629 4.56316e-09 0)
(0.128629 3.13603e-09 0)
(0.128629 3.14731e-09 0)
(0.128629 4.18208e-09 0)
(0.128629 5.6806e-09 0)
(0.128629 7.19775e-09 0)
(0.128629 8.67991e-09 0)
(0.128629 1.00024e-08 0)
(0.128629 1.09968e-08 0)
(0.128629 1.15905e-08 0)
(0.128629 1.20902e-08 0)
(0.128629 1.21654e-08 0)
(0.128629 1.22566e-08 0)
(0.128629 1.11281e-08 0)
(0.128629 1.04044e-08 0)
(0.128629 7.9372e-09 0)
(0.128629 7.36707e-09 0)
(0.128629 1.83841e-09 0)
(0.128629 1.22037e-09 0)
(0.128629 -1.04483e-08 0)
(0.128629 -1.26985e-08 0)
(0.128629 -2.89374e-08 0)
(0.128629 -5.76029e-08 0)
(0.127982 -4.37521e-08 0)
(0.127982 -2.1174e-08 0)
(0.127982 -2.31742e-08 0)
(0.127982 -2.51397e-08 0)
(0.127982 -2.15265e-08 0)
(0.127982 -1.41521e-08 0)
(0.127982 -5.12355e-09 0)
(0.127982 2.63268e-09 0)
(0.127982 7.47221e-09 0)
(0.127982 8.98613e-09 0)
(0.127982 9.24211e-09 0)
(0.127982 1.13879e-08 0)
(0.127982 1.47692e-08 0)
(0.127982 1.6379e-08 0)
(0.127982 1.52103e-08 0)
(0.127982 1.20254e-08 0)
(0.127982 8.24635e-09 0)
(0.127982 5.28541e-09 0)
(0.127982 3.83805e-09 0)
(0.127982 3.92394e-09 0)
(0.127982 5.09619e-09 0)
(0.127982 6.72731e-09 0)
(0.127982 8.40653e-09 0)
(0.127982 1.00027e-08 0)
(0.127982 1.1406e-08 0)
(0.127982 1.24791e-08 0)
(0.127982 1.30922e-08 0)
(0.127982 1.36227e-08 0)
(0.127982 1.36997e-08 0)
(0.127982 1.38171e-08 0)
(0.127982 1.24541e-08 0)
(0.127982 1.17599e-08 0)
(0.127982 8.9847e-09 0)
(0.127982 8.58019e-09 0)
(0.127982 2.34587e-09 0)
(0.127982 1.97956e-09 0)
(0.127982 -1.05606e-08 0)
(0.127982 -1.34065e-08 0)
(0.127982 -3.01699e-08 0)
(0.127982 -6.47232e-08 0)
(0.127243 -5.74148e-08 0)
(0.127243 -3.58587e-08 0)
(0.127243 -3.2195e-08 0)
(0.127243 -2.99048e-08 0)
(0.127243 -2.38737e-08 0)
(0.127243 -1.44692e-08 0)
(0.127243 -3.51937e-09 0)
(0.127243 5.78487e-09 0)
(0.127243 1.14563e-08 0)
(0.127243 1.29921e-08 0)
(0.127243 1.27526e-08 0)
(0.127243 1.44331e-08 0)
(0.127243 1.73815e-08 0)
(0.127243 1.84786e-08 0)
(0.127243 1.67338e-08 0)
(0.127243 1.29522e-08 0)
(0.127243 8.87131e-09 0)
(0.127243 5.80275e-09 0)
(0.127243 4.35376e-09 0)
(0.127243 4.62013e-09 0)
(0.127243 5.96643e-09 0)
(0.127243 7.7288e-09 0)
(0.127243 9.55819e-09 0)
(0.127243 1.12664e-08 0)
(0.127243 1.27473e-08 0)
(0.127243 1.38021e-08 0)
(0.127243 1.43913e-08 0)